Title
81329
    1CHL1    C3    1   2.584   2.983  10.125 -0.1925 -0.2452 -0.3288
    1CHL1    H3    2   2.617   2.878  10.110  0.0276 -0.3362  0.7421
    1CHL1    O3    3   2.579   3.002  10.270  0.4822 -0.1340  0.0260
    1CHL1   H3'    4   2.491   2.982  10.302  1.3365  0.2125  2.6730
    1CHL1    C4    5   2.694   3.088  10.071 -0.2446  0.1143  0.2162
    1CHL1   H4A    6   2.666   3.194  10.088  2.3387  0.8280  0.2581
    1CHL1   H4B    7   2.777   3.048  10.132 -0.3603 -0.4408  0.0124
    1CHL1    C5    8   2.698   3.073   9.922 -0.5363  0.1159  1.1385
    1CHL1    C6    9   2.812   3.050   9.859  0.0245  0.2260  0.3193
    1CHL1    H6   10   2.905   3.064   9.916 -0.2450  1.6330  0.4243
    1CHL1    C7   11   2.831   3.043   9.709 -0.3813  0.1536  0.4713
    1CHL1   H7A   12   2.927   3.089   9.677 -0.2102 -1.5557 -1.5424
    1CHL1   H7B   13   2.839   2.938   9.677  0.7079  0.2643  0.3662
    1CHL1    C8   14   2.718   3.108   9.624  0.1792 -0.4037 -0.6272
    1CHL1    H8   15   2.729   3.218   9.624 -1.6504 -0.1839  0.8539
    1CHL1   C14   16   2.723   3.064   9.475  0.4346  0.0825 -0.3589
    1CHL1   H14   17   2.715   2.953   9.470 -0.9418  0.1808 -0.4911
    1CHL1   C15   18   2.859   3.083   9.405  0.0729 -0.0024  0.1452
    1CHL1  H15A   19   2.897   3.184   9.433 -1.3239  0.3053  0.9333
    1CHL1  H15B   20   2.929   3.003   9.438  0.5665  0.7510  0.9441
    1CHL1   C16   21   2.818   3.085   9.257  0.0747  0.9339  0.3729
    1CHL1  H16A   22   2.854   3.183   9.219  0.5227  0.9201  0.7533
    1CHL1  H16B   23   2.867   3.010   9.191 -1.1290 -0.1305  0.6823
    1CHL1   C17   24   2.663   3.069   9.248  0.1147  0.1571  0.1568
    1CHL1   H17   25   2.642   2.960   9.247 -1.0589  0.3753 -0.5075
    1CHL1   C13   26   2.612   3.121   9.386 -0.2903  0.2660  0.0458
    1CHL1   C18   27   2.620   3.281   9.386  0.2298  0.1032  0.0876
    1CHL1  H18A   28   2.618   3.320   9.490 -0.1252 -1.5991  0.7292
    1CHL1  H18B   29   2.716   3.310   9.338 -1.1719  1.4724 -2.0253
    1CHL1  H18C   30   2.532   3.320   9.330  0.1196 -0.3376 -0.0493
    1CHL1   C12   31   2.483   3.063   9.446  0.0431 -0.4566 -0.1550
    1CHL1  H12A   32   2.399   3.107   9.388  0.1292 -0.8599 -0.5803
    1CHL1  H12B   33   2.485   2.952   9.435  0.9896 -0.5795  1.1272
    1CHL1   C11   34   2.470   3.096   9.592  0.3061 -0.2692  0.5855
    1CHL1  H11A   35   2.464   3.207   9.592  1.4916 -0.1776  2.1507
    1CHL1  H11B   36   2.375   3.057   9.633 -1.9530  2.7627 -1.5752
    1CHL1    C9   37   2.586   3.052   9.683  0.7487  0.1983 -0.3704
    1CHL1    H9   38   2.585   2.942   9.665 -3.0570 -0.6977  4.1639
    1CHL1   C10   39   2.573   3.081   9.835  0.4667  0.3417 -0.5141
    1CHL1   C19   40   2.510   3.219   9.847  0.0202  0.6979  0.3881
    1CHL1  H19A   41   2.573   3.303   9.811 -0.1287  0.2241 -1.0401
    1CHL1  H19B   42   2.413   3.234   9.794 -0.5471 -1.0604  0.8939
    1CHL1  H19C   43   2.476   3.243   9.950 -2.0564  0.3058 -0.1683
    1CHL1    C1   44   2.460   2.994   9.906 -0.5346  0.8580 -0.0396
    1CHL1   H1A   45   2.360   2.997   9.859 -0.3023 -0.6855 -0.6445
    1CHL1   H1B   46   2.478   2.887   9.882 -0.5581  0.9483 -0.4676
    1CHL1    C2   47   2.443   3.000  10.059  0.4043 -0.1566 -0.3680
    1CHL1   H2A   48   2.375   2.920  10.096  0.3306  0.0336 -0.0932
    1CHL1   H2B   49   2.403   3.102  10.079  1.1172  0.1889 -0.6885
    1CHL1   C20   50   2.611   3.114   9.109  0.2878 -0.2946 -0.8724
    1CHL1   H20   51   2.663   3.210   9.086 -0.0229  0.0192 -0.2883
    1CHL1   C21   52   2.454   3.133   9.113  0.1349 -0.2198  1.0164
    1CHL1  H21A   53   2.417   3.166   9.013  2.0991  1.8407  0.9386
    1CHL1  H21B   54   2.423   3.209   9.188 -0.4875  1.4048 -0.8563
    1CHL1  H21C   55   2.398   3.040   9.138  2.5464 -1.6683  1.0956
    1CHL1   C22   56   2.646   3.028   8.988 -0.0246  0.0140  0.2830
    1CHL1  H22A   57   2.757   3.019   8.979 -0.0828  1.3283 -2.1237
    1CHL1  H22B   58   2.626   2.920   9.004  0.4329 -0.3501 -1.4794
    1CHL1   C23   59   2.616   3.072   8.845 -0.3189  0.1325 -0.2469
    1CHL1  H23A   60   2.507   3.090   8.833 -0.5186  0.0622  1.2690
    1CHL1  H23B   61   2.662   3.173   8.836 -0.6698  0.2086 -1.2291
    1CHL1   C24   62   2.647   2.979   8.718  0.7696  0.4293 -0.6093
    1CHL1  H24A   63   2.754   2.947   8.718  0.8355  0.5932  0.7921
    1CHL1  H24B   64   2.595   2.884   8.745  1.5926  0.6635  1.9287
    1CHL1   C25   65   2.582   3.020   8.589 -0.7637  0.7639 -0.3117
    1CHL1   H25   66   2.478   2.980   8.588 -0.2196 -0.8570  3.0263
    1CHL1   C26   67   2.582   3.166   8.560 -0.0843  0.0878  0.0573
    1CHL1  H26A   68   2.685   3.207   8.555 -0.1713  0.1136 -1.5922
    1CHL1  H26B   69   2.535   3.188   8.462 -1.6692 -1.7574  0.3792
    1CHL1  H26C   70   2.523   3.218   8.639 -0.6196  0.8861 -0.8594
    1CHL1   C27   71   2.656   2.950   8.475 -0.2192  0.3231  0.3789
    1CHL1  H27A   72   2.616   2.978   8.376  2.0751  0.7565 -0.4593
    1CHL1  H27B   73   2.767   2.962   8.477 -0.3937  2.4837 -0.9273
    1CHL1  H27C   74   2.644   2.841   8.489  1.6826  0.0300 -0.1090
    2CHL1    C3   75   3.659   1.081   9.961 -0.4797 -0.0672  0.0880
    2CHL1    H3   76   3.754   1.134   9.938  0.3460 -1.0525  1.1235
    2CHL1    O3   77   3.626   1.108  10.098  0.0959 -0.0646  0.4860
    2CHL1   H3'   78   3.552   1.051  10.120  0.2242 -0.5453 -0.3378
    2CHL1    C4   79   3.548   1.155   9.877 -0.1775  0.7962  0.0727
    2CHL1   H4A   80   3.451   1.132   9.926 -0.0084  1.0393  0.5275
    2CHL1   H4B   81   3.569   1.262   9.898  1.6601  0.1242  1.8075
    2CHL1    C5   82   3.550   1.121   9.730  0.2998 -0.0004 -0.3105
    2CHL1    C6   83   3.547   1.213   9.632  0.5179 -0.0625  0.0121
    2CHL1    H6   84   3.573   1.316   9.663  1.8728  0.0150 -1.3337
    2CHL1    C7   85   3.536   1.190   9.492  0.4889  0.1879 -0.2952
    2CHL1   H7A   86   3.456   1.245   9.439  0.3320  1.2799  1.0628
    2CHL1   H7B   87   3.637   1.187   9.445  1.1365  1.2609  0.9818
    2CHL1    C8   88   3.494   1.043   9.474  1.2430  0.3624  0.6613
    2CHL1    H8   89   3.388   1.028   9.501  1.4980  1.4731  2.3498
    2CHL1   C14   90   3.502   1.006   9.322  0.0030 -0.5417 -0.1971
    2CHL1   H14   91   3.607   1.027   9.293  0.2847 -1.3063  0.2411
    2CHL1   C15   92   3.431   1.096   9.220  0.4086 -0.3118 -0.2842
    2CHL1  H15A   93   3.326   1.113   9.252  0.5036  0.8586 -0.5604
    2CHL1  H15B   94   3.478   1.195   9.199 -0.0964 -0.1086 -0.4495
    2CHL1   C16   95   3.452   1.008   9.092 -0.1517 -0.9824 -0.0204
    2CHL1  H16A   96   3.369   1.002   9.018  1.4383 -0.3984 -1.9047
    2CHL1  H16B   97   3.541   1.054   9.044 -0.8649  0.6994  0.2477
    2CHL1   C17   98   3.503   0.873   9.135 -0.4424  0.1053 -0.2648
    2CHL1   H17   99   3.614   0.878   9.126 -0.6044  1.5307 -1.6509
    2CHL1   C13  100   3.476   0.864   9.286  0.4876  0.6283 -0.2919
    2CHL1   C18  101   3.322   0.838   9.310  0.2833 -0.3498 -1.1280
    2CHL1  H18A  102   3.310   0.831   9.420  0.6477  1.6407 -0.9443
    2CHL1  H18B  103   3.250   0.906   9.261 -1.5949 -1.5468 -0.1018
    2CHL1  H18C  104   3.295   0.738   9.271  0.8706 -1.1512  0.4619
    2CHL1   C12  105   3.568   0.765   9.368 -0.4810 -0.0755  0.1290
    2CHL1  H12A  106   3.545   0.660   9.338 -0.7871  0.8844 -3.1480
    2CHL1  H12B  107   3.672   0.792   9.341 -0.5560  0.2808  0.1973
    2CHL1   C11  108   3.559   0.792   9.517 -0.4603 -0.1868 -1.2450
    2CHL1  H11A  109   3.455   0.772   9.549 -0.5485 -0.0485 -1.4405
    2CHL1  H11B  110   3.626   0.726   9.577 -1.0597 -1.9317 -2.4406
    2CHL1    C9  111   3.579   0.944   9.558 -0.2275  0.8611  0.5102
    2CHL1    H9  112   3.681   0.971   9.525  0.1565 -1.3083 -0.2037
    2CHL1   C10  113   3.552   0.968   9.707 -0.4218  0.7072 -0.6311
    2CHL1   C19  114   3.415   0.914   9.756  0.4042  0.2903  0.0257
    2CHL1  H19A  115   3.397   0.935   9.864 -0.0220 -3.0224  0.6648
    2CHL1  H19B  116   3.330   0.941   9.691  1.3442  1.3451 -0.7834
    2CHL1  H19C  117   3.416   0.803   9.753 -0.0964  0.3230 -1.7791
    2CHL1    C1  118   3.672   0.901   9.791  0.2900  0.1781 -0.0573
    2CHL1   H1A  119   3.683   0.791   9.781  0.4669  0.1349  0.5931
    2CHL1   H1B  120   3.762   0.946   9.744  0.7006 -0.7364 -0.1427
    2CHL1    C2  121   3.666   0.933   9.942 -0.6582  0.5698  0.9093
    2CHL1   H2A  122   3.748   0.876   9.991 -1.2650 -2.9255 -1.9458
    2CHL1   H2B  123   3.572   0.887   9.980 -1.3220  1.6841  0.6270
    2CHL1   C20  124   3.469   0.751   9.044 -0.3765 -0.2651 -0.0648
    2CHL1   H20  125   3.362   0.765   9.015 -0.0468 -0.4572 -1.4267
    2CHL1   C21  126   3.492   0.614   9.113  0.5008 -0.7944 -0.0981
    2CHL1  H21A  127   3.412   0.588   9.185  0.4073 -0.4360 -0.0672
    2CHL1  H21B  128   3.595   0.598   9.152  0.5191  2.8637  1.5166
    2CHL1  H21C  129   3.487   0.533   9.037 -2.3664 -0.8251  0.0603
    2CHL1   C22  130   3.543   0.758   8.910  0.2278 -0.3597 -0.3356
    2CHL1  H22A  131   3.558   0.862   8.874 -1.2166 -1.1747 -3.4240
    2CHL1  H22B  132   3.637   0.699   8.911  0.9619  0.8002 -0.2864
    2CHL1   C23  133   3.447   0.698   8.801  0.3512 -0.7333  1.0263
    2CHL1  H23A  134   3.424   0.590   8.816 -1.4166 -0.3633  1.1166
    2CHL1  H23B  135   3.350   0.752   8.810  0.0618 -1.1588  0.5318
    2CHL1   C24  136   3.506   0.705   8.667  0.1155 -0.1483  0.7151
    2CHL1  H24A  137   3.533   0.811   8.647 -1.2364  0.1052  0.2016
    2CHL1  H24B  138   3.606   0.658   8.653  0.5851  1.0514 -0.0576
    2CHL1   C25  139   3.418   0.659   8.548  0.0632  0.3912 -0.1347
    2CHL1   H25  140   3.405   0.549   8.560  1.2987  0.4807  2.5098
    2CHL1   C26  141   3.279   0.724   8.542  0.5582  0.4110 -0.3001
    2CHL1  H26A  142   3.227   0.698   8.447  1.2530  0.8795 -0.8120
    2CHL1  H26B  143   3.221   0.696   8.632  0.7442  0.6912 -0.0935
    2CHL1  H26C  144   3.291   0.832   8.561  0.4186  0.6655 -1.6387
    2CHL1   C27  145   3.500   0.680   8.421  0.2857  0.6599 -0.1797
    2CHL1  H27A  146   3.604   0.647   8.440  0.0217  0.2591  0.6235
    2CHL1  H27B  147   3.462   0.613   8.341  0.0279 -1.3715  1.5681
    2CHL1  H27C  148   3.500   0.783   8.380 -0.9933 -0.2297 -2.5115
    3CHL1    C3  149   4.046   0.631  10.394  0.5320 -0.1836 -0.9153
    3CHL1    H3  150   4.036   0.520  10.397 -0.0071 -0.2722 -4.1323
    3CHL1    O3  151   4.065   0.671  10.526 -0.1450  0.3235 -0.2707
    3CHL1   H3'  152   4.009   0.749  10.531 -0.8694 -0.1431 -0.9904
    3CHL1    C4  153   4.182   0.658  10.316  1.2581 -0.0543 -0.6708
    3CHL1   H4A  154   4.212   0.764  10.311  1.0145 -0.0670 -3.5108
    3CHL1   H4B  155   4.262   0.601  10.369 -0.5664 -1.6569  0.4327
    3CHL1    C5  156   4.162   0.605  10.177  0.4939 -0.0357 -0.7603
    3CHL1    C6  157   4.245   0.520  10.119  0.1101  0.8728 -0.6855
    3CHL1    H6  158   4.328   0.489  10.183  0.7990  3.8724 -0.0771
    3CHL1    C7  159   4.247   0.479   9.970 -0.4283  0.2981 -0.0219
    3CHL1   H7A  160   4.349   0.484   9.927 -0.1111  0.1942  0.7224
    3CHL1   H7B  161   4.207   0.376   9.959  0.6661 -0.3563  1.9045
    3CHL1    C8  162   4.155   0.570   9.887  0.2707  0.8716  0.2595
    3CHL1    H8  163   4.186   0.676   9.875 -0.9976  1.0797 -1.2875
    3CHL1   C14  164   4.134   0.514   9.749  0.3191  0.0645  0.8844
    3CHL1   H14  165   4.088   0.414   9.767 -0.4253  0.2747  0.2183
    3CHL1   C15  166   4.254   0.477   9.666 -0.4430 -0.8839 -0.2039
    3CHL1  H15A  167   4.324   0.563   9.673 -0.4710 -0.8982  0.3051
    3CHL1  H15B  168   4.305   0.389   9.713 -0.5259  0.5553  2.6915
    3CHL1   C16  169   4.196   0.459   9.528  0.0540 -0.0771 -0.0079
    3CHL1  H16A  170   4.237   0.530   9.453 -1.9664  0.5897 -0.5414
    3CHL1  H16B  171   4.198   0.358   9.482 -2.3078 -0.2762  0.2469
    3CHL1   C17  172   4.044   0.507   9.532 -0.8181  0.7465  0.8325
    3CHL1   H17  173   3.991   0.413   9.559  1.1239 -0.3268  0.9516
    3CHL1   C13  174   4.031   0.589   9.656  0.0927 -0.4596 -0.3608
    3CHL1   C18  175   4.083   0.741   9.635 -0.1021  0.4898  0.3326
    3CHL1  H18A  176   4.192   0.744   9.611 -0.4110 -0.8584 -1.3554
    3CHL1  H18B  177   4.026   0.796   9.558 -2.5390 -0.1729  1.6212
    3CHL1  H18C  178   4.068   0.808   9.722  0.2932 -1.8674  2.2659
    3CHL1   C12  179   3.900   0.584   9.737 -0.1494 -0.3169 -0.1164
    3CHL1  H12A  180   3.825   0.638   9.676  1.5937  2.5235  0.1629
    3CHL1  H12B  181   3.868   0.481   9.764 -0.1418  0.1041  1.5472
    3CHL1   C11  182   3.909   0.649   9.881  0.4162  0.2010  0.2113
    3CHL1  H11A  183   3.924   0.759   9.881  0.8355  0.1436  0.1186
    3CHL1  H11B  184   3.805   0.644   9.920  1.7550  2.3930  4.3092
    3CHL1    C9  185   4.019   0.588   9.964 -0.6242  0.2309 -0.1967
    3CHL1    H9  186   3.984   0.483   9.978  0.6689 -0.3827 -1.4471
    3CHL1   C10  187   4.037   0.654  10.102 -0.2288  0.1587  0.7725
    3CHL1   C19  188   4.083   0.805  10.089  0.0647 -0.4407  1.1965
    3CHL1  H19A  189   4.008   0.860  10.029 -0.6838 -2.2480  0.4434
    3CHL1  H19B  190   4.070   0.857  10.187 -0.4536  0.5769  0.5944
    3CHL1  H19C  191   4.183   0.827  10.048  0.6851 -2.9845  1.2783
    3CHL1    C1  192   3.906   0.639  10.182 -0.4751  0.3811 -0.1490
    3CHL1   H1A  193   3.823   0.697  10.136 -0.8455 -0.9681 -1.2370
    3CHL1   H1B  194   3.873   0.536  10.210  1.7985 -0.3763 -0.2143
    3CHL1    C2  195   3.923   0.700  10.328 -0.2729 -0.2627 -0.1733
    3CHL1   H2A  196   3.839   0.673  10.395  0.4908  0.6982  1.2043
    3CHL1   H2B  197   3.932   0.810  10.317  0.5726 -0.3873 -0.8109
    3CHL1   C20  198   4.001   0.562   9.396 -0.1124  0.0028 -0.3080
    3CHL1   H20  199   4.049   0.658   9.366  1.1616 -0.3412  0.6178
    3CHL1   C21  200   3.848   0.588   9.409  0.3858 -0.0164  0.3454
    3CHL1  H21A  201   3.815   0.596   9.303  0.3532  0.9731  0.4241
    3CHL1  H21B  202   3.824   0.685   9.458 -0.8286  1.0942 -2.3426
    3CHL1  H21C  203   3.787   0.499   9.435  1.6516 -0.3681  2.1984
    3CHL1   C22  204   4.028   0.479   9.270  1.2812  0.1924  0.5882
    3CHL1  H22A  205   4.126   0.428   9.284  1.4825  0.7053  1.0389
    3CHL1  H22B  206   3.960   0.391   9.265  1.9098 -0.2271 -0.9157
    3CHL1   C23  207   4.030   0.555   9.129  0.2395  0.2485  0.0966
    3CHL1  H23A  208   3.934   0.603   9.103 -0.7831 -2.5396 -1.3912
    3CHL1  H23B  209   4.118   0.623   9.132  0.6670 -0.2218 -1.6002
    3CHL1   C24  210   4.063   0.462   9.009  0.2102 -0.8510  0.5669
    3CHL1  H24A  211   3.992   0.376   9.006 -1.1903  0.2859  0.4684
    3CHL1  H24B  212   4.056   0.503   8.906 -2.9657  0.6344  1.3162
    3CHL1   C25  213   4.194   0.380   9.009  0.9195 -0.1682  0.4710
    3CHL1   H25  214   4.196   0.312   9.097  1.5061 -1.1549 -0.2944
    3CHL1   C26  215   4.210   0.285   8.885  0.3599  0.0032  1.1652
    3CHL1  H26A  216   4.136   0.202   8.887 -1.0021  1.0989 -1.2904
    3CHL1  H26B  217   4.187   0.346   8.795  1.8682  0.8841  1.3554
    3CHL1  H26C  218   4.315   0.249   8.882  0.2910 -0.0487 -1.9395
    3CHL1   C27  219   4.316   0.480   9.024  0.2909  0.2496 -0.2943
    3CHL1  H27A  220   4.300   0.533   9.120 -0.7212  1.4486 -1.1048
    3CHL1  H27B  221   4.415   0.430   9.031 -0.1505 -0.3503  2.1472
    3CHL1  H27C  222   4.312   0.557   8.944 -2.6837  0.4417 -0.0297
    4CHL1    C3  223   3.501   2.533  10.537  0.1667  0.2024  0.0813
    4CHL1    H3  224   3.605   2.507  10.564 -0.2170  0.4122  1.8050
    4CHL1    O3  225   3.440   2.560  10.663 -0.5179  0.0752  0.5166
    4CHL1   H3'  226   3.513   2.580  10.722  1.0291  0.8685 -1.6006
    4CHL1    C4  227   3.510   2.662  10.457 -0.4712  0.3217 -0.6021
    4CHL1   H4A  228   3.412   2.714  10.464 -0.6543 -0.3087  1.9082
    4CHL1   H4B  229   3.585   2.723  10.511  1.0981  0.2231 -2.5962
    4CHL1    C5  230   3.563   2.634  10.319 -0.6057 -0.7504 -0.6131
    4CHL1    C6  231   3.676   2.697  10.277 -0.2877  0.0292  0.0562
    4CHL1    H6  232   3.732   2.770  10.337 -1.9757  0.4473  1.1672
    4CHL1    C7  233   3.731   2.681  10.143  0.8445 -0.6200 -0.7334
    4CHL1   H7A  234   3.753   2.784  10.108  1.7324 -0.0035  1.5448
    4CHL1   H7B  235   3.824   2.621  10.141  2.4394  1.7439 -0.0169
    4CHL1    C8  236   3.634   2.620  10.039 -0.5427  0.3630  0.3546
    4CHL1    H8  237   3.559   2.697  10.012  0.5950  0.4293 -2.8892
    4CHL1   C14  238   3.711   2.579   9.913  0.6424  0.5055 -0.0151
    4CHL1   H14  239   3.788   2.504   9.941 -2.2388 -1.9793  1.6209
    4CHL1   C15  240   3.784   2.687   9.827  0.0549 -0.2280  0.4004
    4CHL1  H15A  241   3.722   2.779   9.828  0.1223 -0.1844  0.9454
    4CHL1  H15B  242   3.882   2.709   9.876 -1.0421 -0.1759  2.6490
    4CHL1   C16  243   3.804   2.634   9.682  0.6679  0.3233  0.5347
    4CHL1  H16A  244   3.765   2.702   9.603  0.3835 -0.1936  0.2317
    4CHL1  H16B  245   3.911   2.606   9.670 -0.2050 -2.8251 -0.4292
    4CHL1   C17  246   3.726   2.503   9.679  0.4317 -0.2415  0.3699
    4CHL1   H17  247   3.804   2.428   9.707  0.0598 -0.6866  0.2081
    4CHL1   C13  248   3.627   2.507   9.802  0.0176  0.1521  0.0655
    4CHL1   C18  249   3.505   2.594   9.759 -0.0569 -0.4521 -0.1833
    4CHL1  H18A  250   3.432   2.611   9.842 -0.6574 -0.6151 -0.6771
    4CHL1  H18B  251   3.529   2.694   9.716 -0.7643 -0.7538 -1.3110
    4CHL1  H18C  252   3.442   2.531   9.692  0.4321 -1.0910 -0.0424
    4CHL1   C12  253   3.574   2.373   9.866  0.0365 -0.3825 -0.1650
    4CHL1  H12A  254   3.513   2.301   9.808 -2.0921 -0.1602  1.6918
    4CHL1  H12B  255   3.660   2.311   9.899 -0.4200 -2.7172 -3.1189
    4CHL1   C11  256   3.498   2.406   9.999  0.3533 -0.4751  0.2313
    4CHL1  H11A  257   3.394   2.439   9.978  1.6686  1.5013 -3.6920
    4CHL1  H11B  258   3.487   2.306  10.046 -0.8054 -0.8034 -0.7258
    4CHL1    C9  259   3.575   2.498  10.099 -0.7365 -0.5426 -0.5350
    4CHL1    H9  260   3.657   2.433  10.136 -1.3465 -0.9126  0.2015
    4CHL1   C10  261   3.489   2.531  10.233  0.0404 -0.7333  0.0144
    4CHL1   C19  262   3.353   2.593  10.197 -0.1127  0.0643  0.0029
    4CHL1  H19A  263   3.363   2.685  10.136  1.7022 -0.3072 -0.2714
    4CHL1  H19B  264   3.295   2.516  10.142 -0.2889  0.6373 -0.6158
    4CHL1  H19C  265   3.288   2.613  10.286 -1.8777  1.5642 -1.5742
    4CHL1    C1  266   3.471   2.406  10.316 -0.3357 -0.1268 -0.8459
    4CHL1   H1A  267   3.407   2.334  10.261 -0.2852 -1.0664  0.3055
    4CHL1   H1B  268   3.573   2.363  10.326 -0.6615 -1.0269 -1.3542
    4CHL1    C2  269   3.416   2.430  10.461 -0.0479  0.8772  0.7676
    4CHL1   H2A  270   3.413   2.335  10.517 -0.0592  0.1209 -0.4908
    4CHL1   H2B  271   3.313   2.469  10.445 -0.5387 -0.4917  0.5297
    4CHL1   C20  272   3.672   2.461   9.536  0.3761 -0.1573 -0.4835
    4CHL1   H20  273   3.597   2.536   9.503  0.0376  0.0877  0.8165
    4CHL1   C21  274   3.594   2.331   9.538  0.7361  0.3974  0.2858
    4CHL1  H21A  275   3.499   2.339   9.594 -0.8025 -2.0902 -1.8850
    4CHL1  H21B  276   3.648   2.257   9.600  1.8983  2.4996  1.8676
    4CHL1  H21C  277   3.577   2.277   9.442 -0.7019  1.0565  0.1667
    4CHL1   C22  278   3.795   2.451   9.438  0.6184  0.3288 -0.3186
    4CHL1  H22A  279   3.864   2.537   9.450  0.2964  0.5320  0.0643
    4CHL1  H22B  280   3.855   2.358   9.450 -0.1556 -0.2513 -0.8645
    4CHL1   C23  281   3.746   2.445   9.288 -0.0165 -0.7223  0.7085
    4CHL1  H23A  282   3.697   2.348   9.264 -1.0379 -0.4175  1.5070
    4CHL1  H23B  283   3.659   2.512   9.274  3.2482  2.7984 -4.1995
    4CHL1   C24  284   3.848   2.488   9.187  0.8054  0.2809 -0.7373
    4CHL1  H24A  285   3.857   2.598   9.196 -0.8402  0.3022  1.0564
    4CHL1  H24B  286   3.947   2.444   9.212  0.6013 -0.0256 -0.4557
    4CHL1   C25  287   3.808   2.452   9.047  0.8669 -0.1727  0.1008
    4CHL1   H25  288   3.703   2.484   9.027  0.5818 -0.5679  0.9433
    4CHL1   C26  289   3.890   2.549   8.949 -1.1002  0.4311 -0.3743
    4CHL1  H26A  290   3.999   2.534   8.966 -1.3881 -0.1838  0.9875
    4CHL1  H26B  291   3.872   2.524   8.842 -0.9236 -0.0338 -0.2977
    4CHL1  H26C  292   3.870   2.658   8.956 -1.4511  0.2338  2.0733
    4CHL1   C27  293   3.846   2.303   9.025  0.4554 -0.0417  0.3930
    4CHL1  H27A  294   3.779   2.244   9.091 -1.4239  0.3384 -1.1398
    4CHL1  H27B  295   3.816   2.273   8.923  1.6708  1.4715 -0.4332
    4CHL1  H27C  296   3.949   2.267   9.047  0.3625 -1.4335 -1.4431
    5CHL1    C3  297   4.680   0.225  10.056 -0.2179 -0.8739 -0.6434
    5CHL1    H3  298   4.783   0.263  10.034 -0.1262 -0.2774  0.7399
    5CHL1    O3  299   4.657   0.224  10.199  0.2686 -0.1537 -0.4745
    5CHL1   H3'  300   4.567   0.194  10.213  1.2785 -2.4799  1.4448
    5CHL1    C4  301   4.570   0.311   9.992  0.2801 -0.0827 -0.1486
    5CHL1   H4A  302   4.468   0.278  10.023  0.1119  0.5670  0.0004
    5CHL1   H4B  303   4.579   0.411  10.038  0.6259 -0.3285  0.3194
    5CHL1    C5  304   4.585   0.318   9.840  0.7957 -0.7370  0.4574
    5CHL1    C6  305   4.615   0.432   9.774  0.8841 -0.1104  0.6347
    5CHL1    H6  306   4.603   0.528   9.827 -1.9044 -0.0032 -0.1333
    5CHL1    C7  307   4.652   0.442   9.629  0.8326 -0.0521  0.4930
    5CHL1   H7A  308   4.610   0.533   9.580 -2.1469 -0.0550  2.8428
    5CHL1   H7B  309   4.762   0.447   9.620  0.8994 -0.4661  1.0694
    5CHL1    C8  310   4.614   0.317   9.547  0.1558  0.2724 -0.2415
    5CHL1    H8  311   4.503   0.314   9.543 -0.0033  0.1875  2.7925
    5CHL1   C14  312   4.678   0.321   9.410  0.0362 -0.2744 -0.1770
    5CHL1   H14  313   4.788   0.325   9.427  0.2071  2.0130 -1.6296
    5CHL1   C15  314   4.658   0.436   9.316  0.4399 -0.1041 -0.5154
    5CHL1  H15A  315   4.570   0.502   9.333  1.1430  0.8075 -0.3825
    5CHL1  H15B  316   4.742   0.507   9.334  1.1694 -1.0973  0.0251
    5CHL1   C16  317   4.677   0.381   9.176 -0.0286 -0.6045 -1.2836
    5CHL1  H16A  318   4.586   0.380   9.113 -1.6028 -0.0080  0.8968
    5CHL1  H16B  319   4.752   0.444   9.123  2.2206 -1.0558  1.2471
    5CHL1   C17  320   4.730   0.234   9.191 -0.2994 -0.7831  0.4916
    5CHL1   H17  321   4.839   0.232   9.216 -0.0509 -2.3751 -0.6526
    5CHL1   C13  322   4.656   0.190   9.328 -0.4563  0.3364 -0.5538
    5CHL1   C18  323   4.509   0.186   9.299  0.5253 -0.1468  0.6644
    5CHL1  H18A  324   4.465   0.263   9.232  1.0850 -0.2588  0.1683
    5CHL1  H18B  325   4.475   0.092   9.250 -0.1306  1.2755 -1.6952
    5CHL1  H18C  326   4.444   0.186   9.389  1.6592  2.2270  1.5274
    5CHL1   C12  327   4.722   0.076   9.404  0.1657 -0.0475 -0.2333
    5CHL1  H12A  328   4.716  -0.019   9.346 -1.5298  0.5892 -1.1463
    5CHL1  H12B  329   4.832   0.084   9.403  0.0372  1.9636 -0.7969
    5CHL1   C11  330   4.672   0.058   9.542  0.4039 -0.3520  0.3565
    5CHL1  H11A  331   4.570   0.014   9.534  0.4550 -0.5438  0.7809
    5CHL1  H11B  332   4.729  -0.023   9.591  0.8773  0.2809  0.8486
    5CHL1    C9  333   4.659   0.195   9.624  0.0385  0.4703 -0.3737
    5CHL1    H9  334   4.765   0.212   9.652  0.8292 -3.2351 -0.8445
    5CHL1   C10  335   4.594   0.180   9.770 -0.2646 -0.6500 -0.1289
    5CHL1   C19  336   4.447   0.136   9.760  0.4726 -0.3142 -0.0913
    5CHL1  H19A  337   4.387   0.204   9.696 -0.0612 -1.4497 -0.8016
    5CHL1  H19B  338   4.440   0.035   9.716  0.5828 -0.5730  0.4844
    5CHL1  H19C  339   4.406   0.122   9.863 -0.5062 -3.0328 -0.8223
    5CHL1    C1  340   4.686   0.080   9.852 -0.7348 -0.7346 -0.0102
    5CHL1   H1A  341   4.670  -0.018   9.802 -2.0705  0.6251 -2.3410
    5CHL1   H1B  342   4.793   0.105   9.838 -0.7329 -1.3555 -1.2272
    5CHL1    C2  343   4.658   0.078  10.004  0.4250  0.4303  0.0664
    5CHL1   H2A  344   4.737   0.022  10.058  0.2624 -0.9026 -1.0543
    5CHL1   H2B  345   4.555   0.054  10.037  0.1213  1.1365 -0.3587
    5CHL1   C20  346   4.704   0.152   9.069  0.2338  0.7676  0.2874
    5CHL1   H20  347   4.594   0.139   9.064  0.4223 -0.7988 -0.0753
    5CHL1   C21  348   4.757   0.009   9.081 -0.3070 -0.5407  0.2479
    5CHL1  H21A  349   4.706  -0.046   9.163 -0.6186 -1.6224 -0.6729
    5CHL1  H21B  350   4.867   0.006   9.097 -0.5470  0.7394  2.4221
    5CHL1  H21C  351   4.734  -0.040   8.985 -0.6971  0.3660 -0.1347
    5CHL1   C22  352   4.742   0.221   8.933 -0.3228 -0.3179 -0.2544
    5CHL1  H22A  353   4.737   0.332   8.933 -0.8524 -0.3411 -0.6611
    5CHL1  H22B  354   4.851   0.207   8.916 -0.2533 -0.5017  0.3276
    5CHL1   C23  355   4.659   0.178   8.811 -0.0141  0.2178 -0.6122
    5CHL1  H23A  356   4.676   0.071   8.786 -2.2027 -0.5672  1.0805
    5CHL1  H23B  357   4.550   0.198   8.826  0.0043 -0.6294  0.8138
    5CHL1   C24  358   4.696   0.258   8.689  0.7099 -0.2579 -0.2008
    5CHL1  H24A  359   4.692   0.367   8.709  0.9034 -0.4149  0.7331
    5CHL1  H24B  360   4.803   0.230   8.674 -0.0411 -1.7600 -3.1415
    5CHL1   C25  361   4.628   0.234   8.559 -0.2973 -0.1223 -0.6111
    5CHL1   H25  362   4.684   0.291   8.483  1.2751 -0.7376  0.0734
    5CHL1   C26  363   4.646   0.087   8.521 -0.3785 -0.1351 -0.6188
    5CHL1  H26A  364   4.605   0.069   8.419  0.4753  0.5047 -1.0878
    5CHL1  H26B  365   4.757   0.082   8.515 -0.3424 -2.3141  1.3135
    5CHL1  H26C  366   4.604   0.013   8.592  0.1162 -0.2850 -0.4813
    5CHL1   C27  367   4.476   0.265   8.559  0.5230  0.0307  0.4451
    5CHL1  H27A  368   4.454   0.363   8.604  0.8226  1.3443 -2.1585
    5CHL1  H27B  369   4.432   0.256   8.457 -2.9810  0.7987  1.8118
    5CHL1  H27C  370   4.429   0.179   8.612  0.3292  0.8126  1.5521
    6CHL1    C3  371   2.089   5.064  10.325  0.4898  0.3669  0.2214
    6CHL1    H3  372   2.027   4.973  10.336  0.2744  0.4776 -0.0432
    6CHL1    O3  373   2.138   5.115  10.452 -0.6754 -0.2972  0.6354
    6CHL1   H3'  374   2.187   5.194  10.431  1.1876 -1.5998 -0.0261
    6CHL1    C4  375   2.220   5.009  10.259  0.6660 -0.5089 -0.6579
    6CHL1   H4A  376   2.317   5.062  10.268  1.5470 -2.3320  1.0276
    6CHL1   H4B  377   2.245   4.926  10.328  2.0118 -0.7352 -1.3860
    6CHL1    C5  378   2.186   4.969  10.114  0.4294  0.4559  0.5976
    6CHL1    C6  379   2.214   4.849  10.063  0.0507 -0.4849  0.6212
    6CHL1    H6  380   2.265   4.766  10.115  3.8147  0.1106 -1.8867
    6CHL1    C7  381   2.202   4.816   9.920 -0.3486 -0.2316 -0.1080
    6CHL1   H7A  382   2.288   4.755   9.887  0.3970  1.1970 -0.8532
    6CHL1   H7B  383   2.115   4.751   9.896 -1.5454  0.6612  1.6982
    6CHL1    C8  384   2.188   4.941   9.827 -0.1355  1.2626 -0.6680
    6CHL1    H8  385   2.286   4.993   9.814  0.4408 -0.0757 -1.7697
    6CHL1   C14  386   2.153   4.897   9.688  0.0934 -0.2133  0.5651
    6CHL1   H14  387   2.053   4.847   9.698  0.7072 -1.0558  2.7703
    6CHL1   C15  388   2.241   4.797   9.607 -0.3300  0.0727  0.2176
    6CHL1  H15A  389   2.347   4.818   9.631 -0.4055  0.2511  0.4020
    6CHL1  H15B  390   2.214   4.694   9.638 -0.6056  0.7738  2.3625
    6CHL1   C16  391   2.193   4.817   9.463  0.3090 -0.4800 -0.8119
    6CHL1  H16A  392   2.280   4.838   9.396  0.5788  3.9620  0.7861
    6CHL1  H16B  393   2.136   4.727   9.432 -0.4181 -1.0704  2.1026
    6CHL1   C17  394   2.097   4.939   9.457  0.2864 -0.1588  0.0640
    6CHL1   H17  395   2.001   4.883   9.453  0.9849 -1.4608  1.1304
    6CHL1   C13  396   2.129   5.008   9.593 -0.4536 -0.8225  0.0520
    6CHL1   C18  397   2.261   5.094   9.575 -0.0581 -0.3766 -0.0200
    6CHL1  H18A  398   2.338   5.029   9.530  0.3324 -0.6232  0.9810
    6CHL1  H18B  399   2.223   5.181   9.518  1.1112  0.9992  1.2344
    6CHL1  H18C  400   2.309   5.139   9.666  1.4391 -2.2081  0.1230
    6CHL1   C12  401   2.019   5.104   9.648 -0.9022 -0.9563  0.2419
    6CHL1  H12A  402   2.023   5.196   9.584 -1.1410 -0.7509  0.5205
    6CHL1  H12B  403   1.917   5.061   9.643 -1.5973  0.5905  0.7418
    6CHL1   C11  404   2.045   5.142   9.797 -0.6773  0.2761  0.8178
    6CHL1  H11A  405   2.126   5.218   9.789  0.3261 -0.9328 -0.8238
    6CHL1  H11B  406   1.955   5.193   9.839  0.7378  3.0565  0.6173
    6CHL1    C9  407   2.080   5.027   9.892 -0.0049 -0.3635  0.0676
    6CHL1    H9  408   1.985   4.970   9.894 -1.8698  2.5842 -0.3127
    6CHL1   C10  409   2.124   5.076  10.030  0.2566  0.2472 -0.3890
    6CHL1   C19  410   2.230   5.188  10.019 -0.5954 -0.0284  0.8991
    6CHL1  H19A  411   2.317   5.168   9.954 -0.1752  2.7163  0.5302
    6CHL1  H19B  412   2.190   5.287   9.986  3.4086  0.8219 -1.7789
    6CHL1  H19C  413   2.268   5.215  10.120 -0.1995 -1.3780  1.1130
    6CHL1    C1  414   1.997   5.127  10.100 -0.4324 -0.1369 -0.0053
    6CHL1   H1A  415   1.966   5.215  10.040  0.9192 -0.0858 -0.6272
    6CHL1   H1B  416   1.922   5.046  10.087  0.1593 -0.1259 -3.8706
    6CHL1    C2  417   2.023   5.175  10.244  0.5344 -0.2639 -0.5724
    6CHL1   H2A  418   1.930   5.203  10.299  0.4680  1.3214 -1.4838
    6CHL1   H2B  419   2.092   5.261  10.241 -1.2006  1.1636 -0.3378
    6CHL1   C20  420   2.109   5.010   9.324 -0.1499 -0.0568  0.7998
    6CHL1   H20  421   2.212   5.051   9.325 -1.0427  2.2513  0.1944
    6CHL1   C21  422   2.031   5.147   9.326 -0.2286  0.6963  0.1728
    6CHL1  H21A  423   1.933   5.136   9.378 -0.2643 -5.1860 -0.8160
    6CHL1  H21B  424   2.024   5.195   9.226 -1.9512  0.3518  0.1064
    6CHL1  H21C  425   2.082   5.224   9.389 -0.8539  1.5135 -0.3066
    6CHL1   C22  426   2.080   4.923   9.203 -0.0533  0.4869 -0.6654
    6CHL1  H22A  427   2.135   4.982   9.126 -0.1785 -0.5884 -1.5984
    6CHL1  H22B  428   2.124   4.821   9.204 -1.2025 -0.0137  1.0515
    6CHL1   C23  429   1.928   4.912   9.170  0.6014 -0.1441 -0.1538
    6CHL1  H23A  430   1.884   4.845   9.247 -2.4319  0.1943 -1.5189
    6CHL1  H23B  431   1.867   5.004   9.178 -0.9666 -1.0917 -0.9629
    6CHL1   C24  432   1.906   4.854   9.029 -0.1948 -0.6142 -0.0840
    6CHL1  H24A  433   1.946   4.932   8.961 -2.1623  1.6932  1.3054
    6CHL1  H24B  434   1.970   4.763   9.025 -1.4605 -1.5285  0.1056
    6CHL1   C25  435   1.765   4.817   8.982  0.3933  0.2749 -0.6636
    6CHL1   H25  436   1.698   4.902   9.009  0.1274  0.4101 -1.7006
    6CHL1   C26  437   1.756   4.806   8.829 -0.1778 -0.6625 -0.0346
    6CHL1  H26A  438   1.649   4.792   8.802 -0.9336  1.4988  1.6632
    6CHL1  H26B  439   1.789   4.896   8.772 -0.8285 -0.2769  0.1950
    6CHL1  H26C  440   1.811   4.717   8.792  0.9635 -0.2882  0.7527
    6CHL1   C27  441   1.725   4.692   9.055  0.1151  0.1514  0.0714
    6CHL1  H27A  442   1.729   4.704   9.166 -2.7640  1.4692  0.0660
    6CHL1  H27B  443   1.620   4.662   9.035  1.2817 -2.6575 -2.1548
    6CHL1  H27C  444   1.775   4.598   9.023  1.6986  0.6329  1.0426
    7CHL1    C3  445   5.442   0.968  10.446  0.3522 -0.3040 -0.2372
    7CHL1    H3  446   5.553   0.979  10.445  0.3644 -0.3278  0.4841
    7CHL1    O3  447   5.393   0.901  10.567  0.2626  0.2713 -0.0609
    7CHL1   H3'  448   5.388   0.806  10.557 -0.4413  0.3671 -0.6748
    7CHL1    C4  449   5.367   1.099  10.412 -0.5224  1.0897 -0.0956
    7CHL1   H4A  450   5.260   1.072  10.421 -0.2530  0.5643  1.6371
    7CHL1   H4B  451   5.398   1.171  10.491 -0.5989 -0.0696  0.9983
    7CHL1    C5  452   5.380   1.151  10.264 -0.5825 -0.2606 -1.0372
    7CHL1    C6  453   5.427   1.269  10.237  0.4780  0.1193  0.0663
    7CHL1    H6  454   5.452   1.342  10.316  2.9886 -2.3069  1.6478
    7CHL1    C7  455   5.451   1.318  10.096 -0.2224 -0.4439  0.0480
    7CHL1   H7A  456   5.393   1.412  10.088 -0.0643 -0.4594 -1.4173
    7CHL1   H7B  457   5.556   1.339  10.069 -0.5510  1.3603  0.1243
    7CHL1    C8  458   5.387   1.231   9.988 -0.2930 -0.4991  0.6194
    7CHL1    H8  459   5.280   1.256   9.977 -0.7754 -3.0905 -1.4173
    7CHL1   C14  460   5.441   1.257   9.845 -0.7030 -0.2776 -0.1993
    7CHL1   H14  461   5.549   1.234   9.854 -0.0361  2.7212  0.1989
    7CHL1   C15  462   5.446   1.397   9.791 -0.7045 -0.3793 -0.1931
    7CHL1  H15A  463   5.346   1.439   9.815  0.3800  2.0111  0.2633
    7CHL1  H15B  464   5.520   1.469   9.833  0.1387  1.2333 -4.2878
    7CHL1   C16  465   5.463   1.383   9.639  0.5470  0.0238  0.3230
    7CHL1  H16A  466   5.385   1.445   9.590 -0.5843 -0.0484  2.0078
    7CHL1  H16B  467   5.562   1.427   9.616  0.4293  0.4498  0.6152
    7CHL1   C17  468   5.462   1.231   9.613  0.2870  0.2668  0.0135
    7CHL1   H17  469   5.570   1.206   9.624  0.1438  0.6223  2.4844
    7CHL1   C13  470   5.389   1.173   9.731 -0.1491  0.7355 -0.0761
    7CHL1   C18  471   5.231   1.184   9.722  0.2932  0.0664  0.5329
    7CHL1  H18A  472   5.176   1.159   9.815 -1.5759  1.2581 -0.2284
    7CHL1  H18B  473   5.188   1.282   9.694  1.8940  0.4283 -0.7799
    7CHL1  H18C  474   5.196   1.120   9.638  2.0699  2.3108 -2.0196
    7CHL1   C12  475   5.430   1.033   9.767 -0.4833 -0.3216  0.2076
    7CHL1  H12A  476   5.406   0.959   9.687 -2.1908 -1.9457  2.1700
    7CHL1  H12B  477   5.539   1.029   9.790 -0.5946  0.1740  0.8175
    7CHL1   C11  478   5.373   0.988   9.899  0.3710  0.3977 -0.5846
    7CHL1  H11A  479   5.264   0.974   9.886  1.0109 -2.0254 -3.6974
    7CHL1  H11B  480   5.413   0.887   9.920 -1.4924 -0.4415 -0.9727
    7CHL1    C9  481   5.411   1.083  10.018 -0.6762 -0.4803 -0.3585
    7CHL1    H9  482   5.521   1.070  10.027 -0.7612 -0.8800  0.0538
    7CHL1   C10  483   5.354   1.042  10.164  0.2744 -0.1301 -0.8975
    7CHL1   C19  484   5.202   1.025  10.142 -0.0850 -0.1259 -0.5097
    7CHL1  H19A  485   5.186   0.930  10.087 -0.3476 -0.4006  0.0302
    7CHL1  H19B  486   5.156   1.008  10.242  0.0897 -0.4538 -0.4837
    7CHL1  H19C  487   5.156   1.110  10.087  1.3862 -0.3489 -2.1427
    7CHL1    C1  488   5.418   0.905  10.200  0.2881  0.3468  0.3830
    7CHL1   H1A  489   5.387   0.828  10.125 -0.5773 -0.0869  1.1756
    7CHL1   H1B  490   5.527   0.919  10.190 -0.0389  2.7325 -0.1553
    7CHL1    C2  491   5.406   0.859  10.344  0.1542  0.0157  0.1980
    7CHL1   H2A  492   5.460   0.763  10.356  2.2357  0.8400 -2.3197
    7CHL1   H2B  493   5.299   0.830  10.347  0.3858 -0.9492 -0.6529
    7CHL1   C20  494   5.428   1.190   9.471  0.7486  0.1578  0.0502
    7CHL1   H20  495   5.329   1.140   9.469  0.7169  0.1689  1.0872
    7CHL1   C21  496   5.539   1.085   9.427  0.2092  0.1592  0.7044
    7CHL1  H21A  497   5.523   0.989   9.481 -0.8593  1.0951  2.0975
    7CHL1  H21B  498   5.641   1.121   9.455  0.2874  1.6899 -1.4560
    7CHL1  H21C  499   5.538   1.065   9.318 -0.6584  1.7257  0.4161
    7CHL1   C22  500   5.422   1.304   9.369  0.5078 -0.3587 -0.3336
    7CHL1  H22A  501   5.346   1.371   9.413 -1.6018 -0.1377 -4.0288
    7CHL1  H22B  502   5.516   1.358   9.347  0.9938 -1.6506 -1.5203
    7CHL1   C23  503   5.355   1.263   9.232 -0.2412 -0.8854  0.6286
    7CHL1  H23A  504   5.413   1.183   9.181 -1.9033 -0.0255 -2.7554
    7CHL1  H23B  505   5.256   1.217   9.254  0.1793 -2.8744 -1.4745
    7CHL1   C24  506   5.342   1.388   9.149 -0.1320 -0.1746  0.7933
    7CHL1  H24A  507   5.271   1.458   9.197 -1.2039  0.5193 -1.6938
    7CHL1  H24B  508   5.442   1.437   9.149 -0.9316  1.6090 -2.4615
    7CHL1   C25  509   5.304   1.360   8.994  0.3041  0.3316 -0.5732
    7CHL1   H25  510   5.220   1.289   8.988 -1.8291  2.5165  2.2361
    7CHL1   C26  511   5.247   1.490   8.951  0.3699 -0.9502 -0.1374
    7CHL1  H26A  512   5.209   1.476   8.847 -0.1719  2.0334 -0.3588
    7CHL1  H26B  513   5.165   1.524   9.017  2.8721  0.5488  2.3169
    7CHL1  H26C  514   5.323   1.571   8.951  1.7957 -2.2358 -1.5724
    7CHL1   C27  515   5.419   1.313   8.914 -0.1504  0.1937  0.2330
    7CHL1  H27A  516   5.381   1.279   8.815 -0.4321  2.4364 -0.4568
    7CHL1  H27B  517   5.495   1.392   8.896  0.3248 -0.0158  1.2944
    7CHL1  H27C  518   5.458   1.223   8.966 -0.6934 -0.7654 -0.9834
    8CHL1    C3  519   5.711   2.213  10.318  0.1146  0.1696 -0.1558
    8CHL1    H3  520   5.767   2.119  10.299 -0.2492 -0.1138  0.1725
    8CHL1    O3  521   5.743   2.240  10.452  0.4156 -0.1715  0.1669
    8CHL1   H3'  522   5.684   2.313  10.471 -1.3430 -1.3396 -0.6874
    8CHL1    C4  523   5.754   2.335  10.246  0.6226 -0.2327 -0.0705
    8CHL1   H4A  524   5.697   2.421  10.288  1.5816  0.1257  0.5011
    8CHL1   H4B  525   5.859   2.358  10.272  0.3401  0.5490  0.4153
    8CHL1    C5  526   5.726   2.335  10.096  0.4728 -0.1116  1.2438
    8CHL1    C6  527   5.817   2.352   9.997 -0.0400  0.4283 -0.6314
    8CHL1    H6  528   5.924   2.367  10.015 -0.1527  0.6761 -0.1590
    8CHL1    C7  529   5.770   2.368   9.848 -0.1411  0.2668 -0.2602
    8CHL1   H7A  530   5.811   2.460   9.802 -1.4698 -1.0598 -4.2624
    8CHL1   H7B  531   5.795   2.278   9.789 -1.0716  1.7951 -3.0666
    8CHL1    C8  532   5.614   2.381   9.818 -0.3650  0.2501 -0.7047
    8CHL1    H8  533   5.585   2.486   9.842 -0.3841 -0.0544  0.6317
    8CHL1   C14  534   5.584   2.341   9.679 -0.4203 -0.5856  0.0819
    8CHL1   H14  535   5.622   2.237   9.666 -0.1225 -0.3476 -1.0352
    8CHL1   C15  536   5.653   2.411   9.560 -0.5197  0.5707  0.1878
    8CHL1  H15A  537   5.645   2.515   9.597 -0.7147  1.3820 -2.0900
    8CHL1  H15B  538   5.761   2.387   9.554 -0.0272  2.2445  1.8196
    8CHL1   C16  539   5.575   2.373   9.441  0.1682 -0.2581 -0.4375
    8CHL1  H16A  540   5.550   2.455   9.369 -1.8041 -1.0626 -0.7093
    8CHL1  H16B  541   5.637   2.305   9.380  0.5304  0.4057 -0.8166
    8CHL1   C17  542   5.440   2.307   9.492 -0.4277  0.2556 -0.3256
    8CHL1   H17  543   5.452   2.197   9.487  0.2286  0.3547 -1.1698
    8CHL1   C13  544   5.440   2.337   9.647 -0.0182  0.3328  0.2122
    8CHL1   C18  545   5.382   2.479   9.661  0.6693 -0.4748 -0.6552
    8CHL1  H18A  546   5.378   2.518   9.765  2.2735 -0.2001 -0.6817
    8CHL1  H18B  547   5.444   2.558   9.614  0.1890 -0.9111 -2.0551
    8CHL1  H18C  548   5.277   2.477   9.625  0.3103  0.5536  0.2820
    8CHL1   C12  549   5.370   2.235   9.729 -0.2783  0.4330 -0.0705
    8CHL1  H12A  550   5.260   2.224   9.712 -0.6262  0.5215  1.9750
    8CHL1  H12B  551   5.422   2.140   9.704 -0.3952  0.5619 -0.8178
    8CHL1   C11  552   5.400   2.259   9.873 -0.0600 -0.2885 -0.7313
    8CHL1  H11A  553   5.330   2.336   9.914  1.2165  0.8178 -0.6142
    8CHL1  H11B  554   5.371   2.167   9.929  0.4129  0.0855  0.1358
    8CHL1    C9  555   5.546   2.283   9.918  0.4139  0.0356 -0.1536
    8CHL1    H9  556   5.593   2.183   9.907  0.6453  0.2566 -1.1975
    8CHL1   C10  557   5.573   2.309  10.064 -0.0969 -0.3281  0.2784
    8CHL1   C19  558   5.490   2.437  10.110 -0.7672 -0.2188  0.3856
    8CHL1  H19A  559   5.524   2.528  10.055  2.4814 -0.7241  1.4356
    8CHL1  H19B  560   5.384   2.420  10.083 -1.1232  1.4072  0.7293
    8CHL1  H19C  561   5.501   2.452  10.219 -1.9493  2.9834  0.1091
    8CHL1    C1  562   5.535   2.190  10.144 -0.6119 -0.5142 -0.3883
    8CHL1   H1A  563   5.426   2.179  10.129 -0.8488  1.1992 -0.0168
    8CHL1   H1B  564   5.592   2.103  10.104  1.5539  0.3275  0.7747
    8CHL1    C2  565   5.562   2.192  10.301 -0.1114 -0.6003  0.3260
    8CHL1   H2A  566   5.531   2.099  10.353  1.0479 -0.8272  0.6234
    8CHL1   H2B  567   5.501   2.276  10.340 -0.3641 -0.0246 -1.2765
    8CHL1   C20  568   5.323   2.343   9.405  0.0014  0.4728  0.0639
    8CHL1   H20  569   5.293   2.450   9.412  0.9911  0.8176 -0.9180
    8CHL1   C21  570   5.199   2.267   9.449 -0.2340 -0.1714 -0.2815
    8CHL1  H21A  571   5.219   2.158   9.447  2.4094  0.2645  0.7315
    8CHL1  H21B  572   5.119   2.292   9.376 -2.3175 -1.8990  1.3425
    8CHL1  H21C  573   5.163   2.298   9.550  0.8657  0.3606 -0.0440
    8CHL1   C22  574   5.345   2.309   9.259  0.1165  0.7024 -0.9056
    8CHL1  H22A  575   5.453   2.291   9.242  0.0965  0.9140 -1.2763
    8CHL1  H22B  576   5.297   2.212   9.235 -1.7448  1.2341  0.5277
    8CHL1   C23  577   5.292   2.411   9.164  0.1648  0.3757 -0.2596
    8CHL1  H23A  578   5.182   2.407   9.151  0.3460 -3.2501 -1.3380
    8CHL1  H23B  579   5.327   2.511   9.197 -1.4582  0.6737  0.5820
    8CHL1   C24  580   5.349   2.380   9.028  0.3022  0.5448 -1.0227
    8CHL1  H24A  581   5.459   2.378   9.045  0.5505 -0.7810 -2.6071
    8CHL1  H24B  582   5.317   2.279   8.994 -0.0372  0.7746 -1.3900
    8CHL1   C25  583   5.322   2.486   8.921  0.1740  0.8031 -0.2054
    8CHL1   H25  584   5.214   2.473   8.898  0.2828 -3.4397  1.2814
    8CHL1   C26  585   5.352   2.633   8.954  0.0735 -0.3278 -0.2089
    8CHL1  H26A  586   5.359   2.695   8.862 -0.7828  0.0357 -0.0320
    8CHL1  H26B  587   5.283   2.689   9.021 -1.2362 -1.6127 -0.4804
    8CHL1  H26C  588   5.448   2.636   9.010 -0.7856 -3.6750  1.5826
    8CHL1   C27  589   5.404   2.446   8.795 -0.0087  0.3802  0.2408
    8CHL1  H27A  590   5.395   2.339   8.767 -0.9937  0.8857 -1.4005
    8CHL1  H27B  591   5.371   2.512   8.712 -0.6545 -0.8035 -0.4567
    8CHL1  H27C  592   5.511   2.471   8.814 -0.0609  0.0745  0.9613
    9CHL1    C3  593   2.096   5.965  10.146  0.6168  0.2123  0.4677
    9CHL1    H3  594   2.039   5.872  10.127 -0.8069  1.1028  0.2623
    9CHL1    O3  595   2.064   6.016  10.273  0.0910 -0.4576  0.0302
    9CHL1   H3'  596   2.113   6.097  10.287  0.1941 -0.3552 -0.9097
    9CHL1    C4  597   2.254   5.948  10.129 -0.8047 -0.0553  0.8576
    9CHL1   H4A  598   2.286   6.051  10.156 -2.3682  0.1064  2.2160
    9CHL1   H4B  599   2.298   5.877  10.202 -3.1994 -2.7298 -0.2218
    9CHL1    C5  600   2.280   5.908   9.984 -0.3632 -0.0727 -0.2690
    9CHL1    C6  601   2.346   5.790   9.959 -0.4107 -0.0936  0.3348
    9CHL1    H6  602   2.381   5.738  10.050  2.3093  0.5978 -0.2773
    9CHL1    C7  603   2.399   5.742   9.833  0.3030 -0.1583  1.0530
    9CHL1   H7A  604   2.508   5.718   9.829  0.5139  0.8843  0.3584
    9CHL1   H7B  605   2.343   5.647   9.817 -1.6301  0.9904  0.8374
    9CHL1    C8  606   2.373   5.857   9.726  0.5366 -0.1174  0.5596
    9CHL1    H8  607   2.454   5.933   9.732  0.4054 -0.0593  1.6118
    9CHL1   C14  608   2.390   5.792   9.589 -0.5914 -0.5018  0.1817
    9CHL1   H14  609   2.311   5.714   9.580 -2.0668  0.7999  1.5718
    9CHL1   C15  610   2.529   5.723   9.563  0.2414  0.1597 -0.2639
    9CHL1  H15A  611   2.609   5.794   9.594  0.5594 -0.9745  1.5431
    9CHL1  H15B  612   2.545   5.634   9.627  0.1651  0.6501  0.4396
    9CHL1   C16  613   2.533   5.706   9.415 -0.2733 -0.1026 -0.6137
    9CHL1  H16A  614   2.629   5.750   9.381  1.5688 -2.2254  1.5963
    9CHL1  H16B  615   2.536   5.599   9.384  1.7806 -0.5626  1.0467
    9CHL1   C17  616   2.414   5.791   9.352 -0.4977  0.3702  0.3348
    9CHL1   H17  617   2.337   5.713   9.331 -0.2668  0.7275 -1.9512
    9CHL1   C13  618   2.377   5.885   9.471 -0.2210 -1.6196  0.0549
    9CHL1   C18  619   2.474   6.002   9.471 -0.9798 -0.6437  0.4528
    9CHL1  H18A  620   2.449   6.074   9.390 -2.2204 -1.2159  0.3032
    9CHL1  H18B  621   2.476   6.053   9.570 -1.3263 -3.1410  1.7927
    9CHL1  H18C  622   2.581   5.974   9.462 -0.6299  0.8661 -0.2760
    9CHL1   C12  623   2.233   5.931   9.474  1.3237  0.6454  0.0811
    9CHL1  H12A  624   2.217   6.012   9.401  2.0072  0.2426 -0.5135
    9CHL1  H12B  625   2.165   5.848   9.444  1.7047  0.3524  0.0286
    9CHL1   C11  626   2.191   6.003   9.602 -0.3715  0.1528  0.6201
    9CHL1  H11A  627   2.231   6.106   9.595  1.5563 -0.7784 -3.5439
    9CHL1  H11B  628   2.081   6.019   9.600 -0.6755 -1.6749  1.0217
    9CHL1    C9  629   2.233   5.922   9.732  0.6098  0.2716  1.0246
    9CHL1    H9  630   2.155   5.844   9.738  1.5758 -0.5371  4.2230
    9CHL1   C10  631   2.225   5.997   9.874 -0.4917 -0.1550  0.0953
    9CHL1   C19  632   2.299   6.131   9.861 -0.9646 -0.6728  0.4967
    9CHL1  H19A  633   2.221   6.203   9.827 -2.6168 -1.9154  1.5731
    9CHL1  H19B  634   2.331   6.166   9.962 -1.2627 -4.0652  1.8162
    9CHL1  H19C  635   2.381   6.126   9.787  0.1616  0.3555  1.6470
    9CHL1    C1  636   2.074   6.020   9.908  0.4918 -0.4458  0.0001
    9CHL1   H1A  637   2.027   6.089   9.835  1.7696  1.0054  0.5549
    9CHL1   H1B  638   2.018   5.924   9.895  0.3763 -0.1670 -1.6892
    9CHL1    C2  639   2.046   6.072  10.046  0.0924  0.0945  0.0709
    9CHL1   H2A  640   1.937   6.084  10.064  0.3864 -0.3184  2.3321
    9CHL1   H2B  641   2.088   6.169  10.080 -2.0960  0.5779  1.4722
    9CHL1   C20  642   2.454   5.842   9.213 -0.3879  0.3088 -0.6344
    9CHL1   H20  643   2.541   5.911   9.219 -1.3292  1.4302  0.5547
    9CHL1   C21  644   2.335   5.922   9.155 -0.3534 -0.3410 -0.0410
    9CHL1  H21A  645   2.372   5.988   9.073 -0.4918 -1.2155 -0.8134
    9CHL1  H21B  646   2.313   5.988   9.242  0.2232  0.8619 -0.7900
    9CHL1  H21C  647   2.238   5.870   9.142 -1.4366  1.8275 -0.9195
    9CHL1   C22  648   2.509   5.733   9.113  0.7757 -0.5754  0.2070
    9CHL1  H22A  649   2.612   5.709   9.148  0.8169  0.2264  0.6444
    9CHL1  H22B  650   2.440   5.648   9.132 -0.2812 -0.0171 -1.0969
    9CHL1   C23  651   2.512   5.755   8.963 -0.3719 -0.4965  0.6375
    9CHL1  H23A  652   2.526   5.656   8.914  1.2103  0.3912 -0.7849
    9CHL1  H23B  653   2.414   5.794   8.928 -0.3351 -3.2472 -2.8179
    9CHL1   C24  654   2.614   5.866   8.924 -0.1668  0.6755 -0.4401
    9CHL1  H24A  655   2.586   5.965   8.965  0.5320  0.3786  0.7689
    9CHL1  H24B  656   2.715   5.842   8.962 -0.2718 -0.0159 -0.5934
    9CHL1   C25  657   2.646   5.900   8.779 -0.0060 -0.6070  0.2478
    9CHL1   H25  658   2.717   5.985   8.788 -0.1944 -0.1054 -2.6643
    9CHL1   C26  659   2.707   5.783   8.707  0.2981 -0.4202 -0.5026
    9CHL1  H26A  660   2.744   5.819   8.608  0.9293  2.1860  0.6422
    9CHL1  H26B  661   2.789   5.735   8.765 -0.2909 -0.0564  0.6495
    9CHL1  H26C  662   2.630   5.705   8.696 -0.5632  0.0059  2.1126
    9CHL1   C27  663   2.528   5.957   8.707  1.2470 -0.0661  0.7862
    9CHL1  H27A  664   2.456   5.874   8.690  0.8443  0.3992  0.1805
    9CHL1  H27B  665   2.472   6.034   8.765 -0.3651  0.4016 -1.3354
    9CHL1  H27C  666   2.561   6.003   8.611 -0.1557 -0.1855  0.2317
   10CHL1    C3  667   0.344   3.086  10.286 -0.2702  0.3495  0.3407
   10CHL1    H3  668   0.282   2.998  10.258 -0.6341  0.7306 -0.0622
   10CHL1    O3  669   0.333   3.105  10.430 -0.0571  0.0660  0.1244
   10CHL1   H3'  670   0.388   3.180  10.454  1.1807 -0.5930 -0.5517
   10CHL1    C4  671   0.490   3.054  10.245 -0.7814  0.5043  0.0891
   10CHL1   H4A  672   0.558   3.132  10.285  1.5445 -0.5825 -1.5976
   10CHL1   H4B  673   0.522   2.954  10.283 -1.0833  0.1695 -0.5290
   10CHL1    C5  674   0.505   3.059  10.091 -0.4670 -0.2426  0.4693
   10CHL1    C6  675   0.542   2.949  10.020 -0.0455  0.0049  0.1304
   10CHL1    H6  676   0.553   2.854  10.074 -0.9666 -0.0729  0.1786
   10CHL1    C7  677   0.565   2.945   9.874  0.5034 -1.2595  0.1381
   10CHL1   H7A  678   0.655   2.888   9.842  0.6469 -0.8518 -0.1834
   10CHL1   H7B  679   0.485   2.886   9.824  0.0634 -1.8640  1.5486
   10CHL1    C8  680   0.578   3.089   9.813 -0.1451 -0.3143 -1.2547
   10CHL1    H8  681   0.677   3.138   9.828  0.8944 -2.3890 -1.1838
   10CHL1   C14  682   0.570   3.077   9.663 -0.4970  0.4339 -0.3966
   10CHL1   H14  683   0.470   3.031   9.646 -0.0386 -0.7268  0.0484
   10CHL1   C15  684   0.661   2.980   9.590 -0.2353  0.4286  0.5478
   10CHL1  H15A  685   0.765   2.990   9.628 -0.1453 -2.0203  1.0228
   10CHL1  H15B  686   0.623   2.876   9.604  0.4387 -0.1182 -1.5095
   10CHL1   C16  687   0.647   3.017   9.448  0.6121  0.2334  0.6729
   10CHL1  H16A  688   0.746   3.038   9.404 -0.0108  2.3656  0.2472
   10CHL1  H16B  689   0.599   2.934   9.391  0.6158  0.2728  0.6121
   10CHL1   C17  690   0.560   3.147   9.445 -0.1374  0.2100 -0.6784
   10CHL1   H17  691   0.455   3.113   9.433 -0.6853  1.7996 -0.5209
   10CHL1   C13  692   0.577   3.209   9.590 -0.7873  0.0867 -0.2042
   10CHL1   C18  693   0.719   3.278   9.603 -0.2087  0.2921  0.1889
   10CHL1  H18A  694   0.725   3.335   9.698  0.5141  0.1681  0.2215
   10CHL1  H18B  695   0.802   3.205   9.598 -1.4874 -1.1610 -0.2063
   10CHL1  H18C  696   0.728   3.344   9.514  0.8258  0.2278  0.2389
   10CHL1   C12  697   0.455   3.301   9.638  0.6759 -0.1182  0.4009
   10CHL1  H12A  698   0.457   3.405   9.599  0.5613 -0.8125 -1.5435
   10CHL1  H12B  699   0.354   3.260   9.616 -1.2849  3.4108  2.2352
   10CHL1   C11  700   0.455   3.317   9.792  0.0107  0.2303  0.1329
   10CHL1  H11A  701   0.541   3.381   9.821 -1.7471  1.3131  3.1903
   10CHL1  H11B  702   0.354   3.361   9.812 -0.8826 -2.2197  1.1327
   10CHL1    C9  703   0.466   3.182   9.862  0.5509  0.4010 -0.8732
   10CHL1    H9  704   0.379   3.123   9.825  0.6569 -0.6127  0.4711
   10CHL1   C10  705   0.457   3.186  10.020  0.4388  0.2248 -0.6130
   10CHL1   C19  706   0.554   3.300  10.065 -0.0033 -0.6380  0.3386
   10CHL1  H19A  707   0.534   3.402  10.026  2.5659 -0.3499 -0.2835
   10CHL1  H19B  708   0.567   3.308  10.175  0.8101  0.8078  0.1467
   10CHL1  H19C  709   0.651   3.275  10.018  0.1622  0.4787  0.0682
   10CHL1    C1  710   0.310   3.212  10.070 -0.0712  0.2790  0.5061
   10CHL1   H1A  711   0.295   3.315  10.029 -0.3765 -0.1442 -0.4626
   10CHL1   H1B  712   0.243   3.137  10.023  1.6347 -0.7364 -0.3222
   10CHL1    C2  713   0.295   3.218  10.222  0.3233 -0.0497 -0.3116
   10CHL1   H2A  714   0.188   3.225  10.252  0.6236 -0.1367  0.7700
   10CHL1   H2B  715   0.345   3.311  10.255  1.4965 -1.0385  0.7466
   10CHL1   C20  716   0.590   3.235   9.324 -0.1484  0.6619 -0.4995
   10CHL1   H20  717   0.695   3.272   9.324 -1.0835  3.3919 -1.7043
   10CHL1   C21  718   0.497   3.357   9.320 -0.8126 -0.0964  0.9393
   10CHL1  H21A  719   0.524   3.438   9.392  0.8837  2.1736 -2.1299
   10CHL1  H21B  720   0.388   3.347   9.337 -1.1161  0.2425 -0.7755
   10CHL1  H21C  721   0.521   3.416   9.229 -1.3292  1.6610  1.9083
   10CHL1   C22  722   0.565   3.156   9.195 -1.5852  0.0917  0.1253
   10CHL1  H22A  723   0.625   3.065   9.217 -0.7918  0.2432 -1.3804
   10CHL1  H22B  724   0.462   3.120   9.172 -1.4709  0.8775 -1.6554
   10CHL1   C23  725   0.632   3.223   9.077  0.1380  0.0912 -0.8608
   10CHL1  H23A  726   0.562   3.303   9.042  0.9944  0.2294 -2.3081
   10CHL1  H23B  727   0.721   3.281   9.110  1.4382 -1.0256 -2.2839
   10CHL1   C24  728   0.672   3.130   8.953 -0.0248 -0.2936 -0.2365
   10CHL1  H24A  729   0.721   3.042   8.999 -2.9797 -1.9650 -0.1390
   10CHL1  H24B  730   0.585   3.080   8.905 -0.5504  1.4383 -1.1208
   10CHL1   C25  731   0.772   3.182   8.843  0.9713  0.1537  0.8649
   10CHL1   H25  732   0.723   3.277   8.811  0.2059  0.0400  1.6505
   10CHL1   C26  733   0.909   3.209   8.897  0.4929 -0.3653 -0.1081
   10CHL1  H26A  734   0.912   3.293   8.969 -0.1070  0.0570 -0.5668
   10CHL1  H26B  735   0.953   3.115   8.938 -0.6064 -1.0596 -0.4800
   10CHL1  H26C  736   0.979   3.231   8.813  1.3149 -0.7246  0.4724
   10CHL1   C27  737   0.772   3.102   8.715 -0.3598 -0.2379  0.5505
   10CHL1  H27A  738   0.688   3.109   8.643 -1.3201 -0.3512  1.6596
   10CHL1  H27B  739   0.853   3.140   8.648 -0.5438 -0.4060  0.2313
   10CHL1  H27C  740   0.787   2.995   8.741 -1.6683 -0.6443 -0.3012
   11CHL1    C3  741   3.525   5.867  10.109 -0.0206 -0.2608 -0.1243
   11CHL1    H3  742   3.536   5.756  10.113  0.6988 -0.2533 -1.6803
   11CHL1    O3  743   3.507   5.915  10.240 -0.4873  0.0060 -0.1879
   11CHL1   H3'  744   3.577   5.874  10.291 -0.1546 -2.5500 -2.6257
   11CHL1    C4  745   3.659   5.921  10.046 -0.0603  0.5534  0.5270
   11CHL1   H4A  746   3.665   6.032  10.052  0.9636  0.5822 -0.6581
   11CHL1   H4B  747   3.743   5.886  10.109 -0.8763 -1.2981  0.6175
   11CHL1    C5  748   3.674   5.872   9.900 -0.3924  0.0771 -0.0380
   11CHL1    C6  749   3.780   5.797   9.858  0.3342  0.3446 -0.2273
   11CHL1    H6  750   3.857   5.780   9.936 -0.9167 -0.2978  0.8803
   11CHL1    C7  751   3.809   5.772   9.714 -0.4619  0.0541  0.4311
   11CHL1   H7A  752   3.905   5.822   9.690 -1.4802  2.0448  0.4238
   11CHL1   H7B  753   3.802   5.664   9.689 -1.1335 -0.1561  1.5167
   11CHL1    C8  754   3.711   5.844   9.615 -0.1414 -0.0946  0.3479
   11CHL1    H8  755   3.739   5.950   9.594 -0.5220 -0.4381 -2.0973
   11CHL1   C14  756   3.706   5.774   9.481  0.4524 -0.6208  0.1337
   11CHL1   H14  757   3.666   5.672   9.503  1.1028 -1.4521 -2.3970
   11CHL1   C15  758   3.838   5.754   9.402  0.5508 -0.4624 -0.3690
   11CHL1  H15A  759   3.898   5.847   9.413  0.5854 -0.6229  0.7727
   11CHL1  H15B  760   3.899   5.671   9.444 -0.4354 -0.5706  0.8620
   11CHL1   C16  761   3.789   5.724   9.260 -0.2537 -0.0853  0.2229
   11CHL1  H16A  762   3.838   5.800   9.195  0.1387 -1.2900 -0.8989
   11CHL1  H16B  763   3.824   5.624   9.228 -2.3478 -0.3845 -1.1778
   11CHL1   C17  764   3.635   5.736   9.264 -0.1387 -0.1989 -0.0031
   11CHL1   H17  765   3.586   5.640   9.289 -3.2839  1.4936  0.5054
   11CHL1   C13  766   3.612   5.835   9.381  0.4843 -0.5302 -0.2895
   11CHL1   C18  767   3.646   5.975   9.335 -0.4233  0.0156 -0.1670
   11CHL1  H18A  768   3.739   5.982   9.274 -1.0922  0.3542 -1.1554
   11CHL1  H18B  769   3.563   6.022   9.279 -0.0421  1.1993  0.2564
   11CHL1  H18C  770   3.651   6.034   9.429  1.4931 -1.1341  0.4693
   11CHL1   C12  771   3.466   5.827   9.430  0.1090 -0.3050  0.0362
   11CHL1  H12A  772   3.397   5.877   9.360 -1.0696 -1.8694  0.0428
   11CHL1  H12B  773   3.438   5.719   9.432 -3.3201  0.5274 -0.5501
   11CHL1   C11  774   3.449   5.887   9.576 -1.1363  0.1501  0.2153
   11CHL1  H11A  775   3.460   5.996   9.556 -1.2550  0.1181 -0.0309
   11CHL1  H11B  776   3.351   5.849   9.611 -0.9175  1.2642  2.0977
   11CHL1    C9  777   3.563   5.843   9.677 -0.2708 -0.0987  0.4811
   11CHL1    H9  778   3.551   5.734   9.697 -2.6790  0.0283 -0.1877
   11CHL1   C10  779   3.555   5.910   9.816  0.6272  0.1843 -0.0453
   11CHL1   C19  780   3.558   6.062   9.785 -0.6615 -0.2416  0.1831
   11CHL1  H19A  781   3.636   6.095   9.713 -0.2403 -0.1356  0.6861
   11CHL1  H19B  782   3.458   6.094   9.749 -0.2698  1.2567  0.4022
   11CHL1  H19C  783   3.577   6.130   9.871  2.7330  1.4470 -1.7855
   11CHL1    C1  784   3.426   5.868   9.882  0.8326  0.3588 -0.1895
   11CHL1   H1A  785   3.333   5.905   9.833  0.6535 -1.2425 -1.0886
   11CHL1   H1B  786   3.423   5.757   9.879  2.3141  0.3416 -1.6621
   11CHL1    C2  787   3.408   5.918  10.031  0.0588 -0.2398  0.2293
   11CHL1   H2A  788   3.309   5.875  10.057 -0.2493 -1.4789 -2.7584
   11CHL1   H2B  789   3.413   6.029  10.040  5.2162 -0.3945  0.6417
   11CHL1   C20  790   3.600   5.775   9.116 -0.3055  0.3655 -0.3084
   11CHL1   H20  791   3.634   5.880   9.108  2.1902 -0.4558 -1.1750
   11CHL1   C21  792   3.453   5.763   9.099 -0.4185  0.5716  0.3123
   11CHL1  H21A  793   3.422   5.657   9.091  0.3612  0.2187  1.8213
   11CHL1  H21B  794   3.427   5.808   9.001  0.2090  1.0263  0.3512
   11CHL1  H21C  795   3.386   5.824   9.164 -0.8862 -1.7154  2.0526
   11CHL1   C22  796   3.678   5.697   8.998  0.2441  0.0091 -0.6797
   11CHL1  H22A  797   3.785   5.725   9.008 -0.0786  0.9090  0.3372
   11CHL1  H22B  798   3.664   5.588   9.018 -1.0227  0.2066 -0.4356
   11CHL1   C23  799   3.635   5.744   8.859  0.1187  0.2066  0.0865
   11CHL1  H23A  800   3.573   5.835   8.871  1.3029  0.8787  1.0876
   11CHL1  H23B  801   3.729   5.775   8.809  1.8319  0.4766  3.3240
   11CHL1   C24  802   3.574   5.626   8.778  0.5363  0.6532 -0.4181
   11CHL1  H24A  803   3.646   5.553   8.738 -0.1443 -0.8531  1.0457
   11CHL1  H24B  804   3.496   5.574   8.838  1.7029  0.7019  1.1794
   11CHL1   C25  805   3.505   5.672   8.647  0.1630  0.2990 -0.4454
   11CHL1   H25  806   3.441   5.760   8.668 -1.1862 -0.7486 -0.0463
   11CHL1   C26  807   3.610   5.712   8.537  0.8329  0.4660  0.3198
   11CHL1  H26A  808   3.678   5.624   8.534  0.3991  0.0477  2.1569
   11CHL1  H26B  809   3.554   5.708   8.441  0.1290 -1.1323  0.7704
   11CHL1  H26C  810   3.661   5.810   8.548  2.9396 -0.5592 -0.0347
   11CHL1   C27  811   3.407   5.566   8.598 -0.1515 -0.2959 -0.3268
   11CHL1  H27A  812   3.461   5.469   8.599  1.7750  0.7521 -1.2004
   11CHL1  H27B  813   3.321   5.556   8.668 -0.9259  0.5635 -1.1321
   11CHL1  H27C  814   3.366   5.584   8.496 -0.9996 -1.2447 -0.1729
   12CHL1    C3  815   6.453   2.235  10.409  0.5900  0.5345 -0.0543
   12CHL1    H3  816   6.538   2.180  10.363 -0.4914 -2.2025  1.0758
   12CHL1    O3  817   6.479   2.239  10.548  0.0660 -0.5790 -0.0105
   12CHL1   H3'  818   6.548   2.177  10.576 -0.5646  0.1436  3.3319
   12CHL1    C4  819   6.453   2.384  10.352  0.4187 -0.4186  0.5389
   12CHL1   H4A  820   6.390   2.457  10.407  0.6865 -0.4226  0.8531
   12CHL1   H4B  821   6.556   2.424  10.362  0.5113  0.3847 -2.8197
   12CHL1    C5  822   6.415   2.397  10.204 -0.5607 -0.4544 -0.2883
   12CHL1    C6  823   6.506   2.458  10.123 -0.6729  0.1280  0.6245
   12CHL1    H6  824   6.595   2.510  10.163 -0.7018  1.4432 -0.9642
   12CHL1    C7  825   6.497   2.465   9.968  0.0086 -0.1736  0.2623
   12CHL1   H7A  826   6.520   2.564   9.923  4.5354 -1.0433  0.3833
   12CHL1   H7B  827   6.582   2.405   9.930 -0.3244 -0.3755 -0.1712
   12CHL1    C8  828   6.366   2.405   9.917  0.3121  0.0362 -0.1892
   12CHL1    H8  829   6.290   2.484   9.933 -0.1422 -0.2398 -0.9351
   12CHL1   C14  830   6.381   2.382   9.767  0.2749 -0.4053 -0.0530
   12CHL1   H14  831   6.465   2.313   9.748  1.2381  0.6899  0.1839
   12CHL1   C15  832   6.424   2.500   9.672  0.3030  0.3281 -1.2292
   12CHL1  H15A  833   6.368   2.590   9.705  0.7463  0.1367  0.0924
   12CHL1  H15B  834   6.525   2.545   9.665  0.8900 -0.7495  0.1322
   12CHL1   C16  835   6.382   2.450   9.535 -0.3736 -0.5033  0.2433
   12CHL1  H16A  836   6.334   2.534   9.480  0.1001  0.9241  1.9939
   12CHL1  H16B  837   6.468   2.429   9.468 -1.5203 -0.6479 -1.2348
   12CHL1   C17  838   6.294   2.321   9.549  0.9206  0.5619  0.7048
   12CHL1   H17  839   6.360   2.231   9.546  0.5928  0.3527 -1.2885
   12CHL1   C13  840   6.256   2.328   9.697  1.3735  0.6117  0.2619
   12CHL1   C18  841   6.143   2.431   9.705 -0.3298  0.3047  0.4522
   12CHL1  H18A  842   6.124   2.473   9.806 -0.1602  0.2701  0.4994
   12CHL1  H18B  843   6.160   2.516   9.637  0.2484 -1.1973 -1.3205
   12CHL1  H18C  844   6.049   2.381   9.671 -1.2345  2.0327  0.3439
   12CHL1   C12  845   6.224   2.197   9.769  0.0183  0.1089 -0.4597
   12CHL1  H12A  846   6.126   2.163   9.729  0.9334 -1.8469 -1.0527
   12CHL1  H12B  847   6.291   2.116   9.735  1.4228  0.3522  1.6582
   12CHL1   C11  848   6.216   2.201   9.926 -0.3731  0.4438 -0.3724
   12CHL1  H11A  849   6.122   2.258   9.941  0.3205  1.2304  1.0687
   12CHL1  H11B  850   6.200   2.105   9.978  3.2807  1.6204  3.2185
   12CHL1    C9  851   6.333   2.275   9.987 -0.4251  0.0154 -0.2557
   12CHL1    H9  852   6.421   2.207   9.974  0.5573  1.2173  0.0080
   12CHL1   C10  853   6.313   2.300  10.142  0.7512 -0.1495  0.0103
   12CHL1   C19  854   6.174   2.369  10.161  0.0845 -0.5111  0.0411
   12CHL1  H19A  855   6.082   2.306  10.151 -0.9551  0.8677  0.7086
   12CHL1  H19B  856   6.173   2.397  10.268 -2.3159  0.9685 -0.3236
   12CHL1  H19C  857   6.172   2.464  10.104  0.3686  0.4023  1.5412
   12CHL1    C1  858   6.314   2.166  10.217  0.1142 -0.3038  0.4189
   12CHL1   H1A  859   6.217   2.120  10.187 -0.4119 -0.8489  2.7881
   12CHL1   H1B  860   6.405   2.115  10.180 -1.0600 -0.1760 -2.7649
   12CHL1    C2  861   6.319   2.172  10.365  0.8690 -0.0120  0.1244
   12CHL1   H2A  862   6.321   2.068  10.402  0.4417  0.1091  0.4955
   12CHL1   H2B  863   6.232   2.223  10.411  1.7335  2.3713 -0.7727
   12CHL1   C20  864   6.189   2.285   9.438 -0.3677  0.1383 -0.3312
   12CHL1   H20  865   6.090   2.327   9.465 -0.8080 -2.5789  2.5963
   12CHL1   C21  866   6.182   2.127   9.432 -0.2641 -0.8722  0.2085
   12CHL1  H21A  867   6.273   2.082   9.387 -1.4634 -1.9100 -1.2345
   12CHL1  H21B  868   6.111   2.090   9.354 -0.2053 -0.6037  0.0261
   12CHL1  H21C  869   6.160   2.088   9.533 -1.8421  1.3775  0.7775
   12CHL1   C22  870   6.232   2.344   9.301  0.4097  0.4301  0.5589
   12CHL1  H22A  871   6.221   2.455   9.299  1.9839  0.6297  1.9030
   12CHL1  H22B  872   6.340   2.323   9.286  0.3466 -1.0129  1.9665
   12CHL1   C23  873   6.148   2.289   9.181  0.0806  0.0362 -0.5429
   12CHL1  H23A  874   6.178   2.183   9.192  0.8691  0.3645  0.4608
   12CHL1  H23B  875   6.038   2.293   9.197  0.5642  0.5175  2.8616
   12CHL1   C24  876   6.184   2.351   9.048 -0.5603  1.0789 -0.4887
   12CHL1  H24A  877   6.138   2.452   9.047 -1.1354  0.8199 -1.6065
   12CHL1  H24B  878   6.290   2.375   9.025 -0.7020  2.6334  0.4376
   12CHL1   C25  879   6.128   2.282   8.919  0.4088 -0.1999  0.1446
   12CHL1   H25  880   6.022   2.257   8.943  0.2649  0.3142  0.0481
   12CHL1   C26  881   6.128   2.367   8.794 -0.3710  0.3399  0.0196
   12CHL1  H26A  882   6.104   2.475   8.809  1.2511  0.7572 -0.2097
   12CHL1  H26B  883   6.220   2.356   8.733 -0.4784 -1.7937  0.2252
   12CHL1  H26C  884   6.053   2.331   8.721  0.4941  1.8170 -1.6392
   12CHL1   C27  885   6.199   2.151   8.883 -0.0725 -0.7089 -0.7192
   12CHL1  H27A  886   6.247   2.115   8.976  2.2363  2.1716 -0.7137
   12CHL1  H27B  887   6.127   2.075   8.847 -2.5002 -0.6005  3.5554
   12CHL1  H27C  888   6.282   2.168   8.811 -0.7561  0.0076 -1.3435
   13CHL1    C3  889   5.722   4.188   9.889  0.0935 -0.7012  0.0672
   13CHL1    H3  890   5.832   4.197   9.876  0.5050 -3.4775  1.3336
   13CHL1    O3  891   5.696   4.199  10.024  0.1736  0.0696  0.0629
   13CHL1   H3'  892   5.633   4.130  10.044  0.0350 -0.0169 -0.6958
   13CHL1    C4  893   5.638   4.282   9.801  0.1399 -0.0647 -0.3233
   13CHL1   H4A  894   5.532   4.248   9.809  0.7918 -1.7265  1.9213
   13CHL1   H4B  895   5.642   4.386   9.838  3.4971 -0.2189 -0.1403
   13CHL1    C5  896   5.652   4.271   9.651  0.9089  0.0073  0.0971
   13CHL1    C6  897   5.683   4.371   9.574 -0.1960  0.9436  0.1177
   13CHL1    H6  898   5.712   4.465   9.622 -1.1466  0.6790  1.2152
   13CHL1    C7  899   5.702   4.367   9.428 -0.1753  0.0613 -0.2208
   13CHL1   H7A  900   5.653   4.454   9.380 -0.7535  0.6827  1.4569
   13CHL1   H7B  901   5.809   4.376   9.402 -0.4143  0.2265 -1.1398
   13CHL1    C8  902   5.661   4.237   9.357  1.0737  0.2751 -0.5160
   13CHL1    H8  903   5.551   4.243   9.340  1.2770  0.0269 -1.9496
   13CHL1   C14  904   5.722   4.226   9.210 -0.2913 -0.8781 -0.5265
   13CHL1   H14  905   5.827   4.232   9.247 -1.4769  0.8463  2.6612
   13CHL1   C15  906   5.697   4.339   9.107  0.1958 -0.5392 -0.0601
   13CHL1  H15A  907   5.590   4.361   9.085  0.5344  1.7711  0.4368
   13CHL1  H15B  908   5.737   4.439   9.135 -0.5386 -0.0698 -0.6533
   13CHL1   C16  909   5.752   4.273   8.972  0.0805 -0.5875  0.6956
   13CHL1  H16A  910   5.679   4.280   8.889  3.3624 -0.7560 -2.3422
   13CHL1  H16B  911   5.847   4.322   8.940 -0.6544  0.2057 -0.3185
   13CHL1   C17  912   5.781   4.115   9.001 -0.0247 -1.0659 -0.6180
   13CHL1   H17  913   5.890   4.103   9.021  0.1557  0.5345 -0.5604
   13CHL1   C13  914   5.709   4.092   9.142  0.3450 -1.0067 -0.0696
   13CHL1   C18  915   5.551   4.067   9.117 -0.9865  0.2660  0.6654
   13CHL1  H18A  916   5.497   4.072   9.214 -0.6650  2.1342  0.7588
   13CHL1  H18B  917   5.512   4.145   9.049 -1.1787  0.4658  1.0016
   13CHL1  H18C  918   5.536   3.965   9.075  0.9536 -0.1301  0.8836
   13CHL1   C12  919   5.760   3.981   9.238  0.4483 -0.8007 -0.3502
   13CHL1  H12A  920   5.760   3.883   9.184  1.4954  0.4574 -2.7233
   13CHL1  H12B  921   5.869   3.993   9.255  0.1126 -2.4759  3.5329
   13CHL1   C11  922   5.687   3.980   9.376 -0.5880  0.7571  0.3424
   13CHL1  H11A  923   5.580   3.958   9.354 -0.2946 -0.3153 -0.0681
   13CHL1  H11B  924   5.724   3.899   9.443 -0.0839  0.6296 -0.0864
   13CHL1    C9  925   5.700   4.116   9.453 -0.0386  0.3418  0.2797
   13CHL1    H9  926   5.808   4.126   9.476  0.2650 -1.2051 -0.4061
   13CHL1   C10  927   5.640   4.126   9.596 -0.0127  0.3304 -0.2313
   13CHL1   C19  928   5.492   4.077   9.596 -0.3975  0.0076  0.4887
   13CHL1  H19A  929   5.438   4.115   9.507 -2.4661 -1.5689  1.0287
   13CHL1  H19B  930   5.489   3.966   9.599  0.5913 -0.0557 -0.4071
   13CHL1  H19C  931   5.447   4.100   9.695  3.6533  0.3939  2.3743
   13CHL1    C1  932   5.730   4.035   9.690  0.1403  0.2331  1.0957
   13CHL1   H1A  933   5.717   3.928   9.665 -0.6309  1.3081 -3.6126
   13CHL1   H1B  934   5.835   4.070   9.678 -0.6734  2.1836 -0.8285
   13CHL1    C2  935   5.694   4.047   9.839 -0.0282  0.0440 -0.7526
   13CHL1   H2A  936   5.764   3.983   9.897  1.0759  2.0681  0.1755
   13CHL1   H2B  937   5.593   4.009   9.867 -0.0052  0.6259  0.1342
   13CHL1   C20  938   5.751   4.033   8.872  0.4686 -0.1984 -0.2726
   13CHL1   H20  939   5.642   4.035   8.848  0.3567 -1.8493  0.0581
   13CHL1   C21  940   5.789   3.886   8.894  0.0147 -0.0477  0.0212
   13CHL1  H21A  941   5.889   3.879   8.942  0.8632  1.2251 -1.5273
   13CHL1  H21B  942   5.778   3.825   8.803  1.7095  0.1506 -0.3375
   13CHL1  H21C  943   5.722   3.852   8.976  1.2678 -0.8685  0.7233
   13CHL1   C22  944   5.832   4.090   8.745  0.1288 -1.1308  0.0673
   13CHL1  H22A  945   5.795   4.036   8.655 -0.6428 -1.1363  0.3817
   13CHL1  H22B  946   5.805   4.196   8.728 -0.6082 -1.4962 -1.1025
   13CHL1   C23  947   5.986   4.089   8.767 -0.4662 -0.6564 -0.3241
   13CHL1  H23A  948   6.015   4.142   8.860 -0.4446 -0.1689 -0.6079
   13CHL1  H23B  949   6.022   3.986   8.787  2.5679  0.3048 -0.5315
   13CHL1   C24  950   6.061   4.150   8.648  0.1203  0.4315  0.6601
   13CHL1  H24A  951   6.170   4.160   8.666  0.4291  1.1031 -1.4106
   13CHL1  H24B  952   6.041   4.088   8.558 -1.6042  0.9809  0.6421
   13CHL1   C25  953   6.023   4.291   8.592 -0.0302  0.5576 -0.8735
   13CHL1   H25  954   5.919   4.315   8.624  0.1864  0.7113 -0.2779
   13CHL1   C26  955   6.100   4.392   8.664  0.2358  0.4901  0.0769
   13CHL1  H26A  956   6.050   4.489   8.644 -0.4715 -0.5798 -3.7593
   13CHL1  H26B  957   6.095   4.378   8.774 -2.1711  0.4968 -0.0114
   13CHL1  H26C  958   6.207   4.386   8.634  0.1575 -3.1887  0.3061
   13CHL1   C27  959   6.034   4.301   8.443  0.1515 -0.2903  0.1029
   13CHL1  H27A  960   6.138   4.288   8.407 -0.4780 -2.5798 -0.9679
   13CHL1  H27B  961   5.969   4.228   8.391 -0.8523 -1.4147  2.8259
   13CHL1  H27C  962   6.014   4.406   8.412  0.7383 -0.9120 -2.4639
   14CHL1    C3  963   4.989   0.644  10.327  0.9804  1.1069  0.3593
   14CHL1    H3  964   5.067   0.715  10.361  0.7022  2.0610 -0.9356
   14CHL1    O3  965   4.944   0.557  10.436 -0.4815 -0.1363  0.0297
   14CHL1   H3'  966   4.887   0.488  10.401 -0.3028 -0.3223  0.1062
   14CHL1    C4  967   4.871   0.716  10.257  0.2319  0.3547  0.6395
   14CHL1   H4A  968   4.788   0.642  10.248 -1.1084  1.7871  1.0953
   14CHL1   H4B  969   4.834   0.792  10.329 -2.3882 -0.5242  0.3097
   14CHL1    C5  970   4.899   0.771  10.118 -0.4870 -0.4887 -0.1876
   14CHL1    C6  971   4.859   0.901  10.080 -0.4879  0.8464  0.6349
   14CHL1    H6  972   4.814   0.966  10.156  1.8287 -0.0780  2.8276
   14CHL1    C7  973   4.881   0.952   9.942  0.3738  0.0641  0.1273
   14CHL1   H7A  974   4.794   1.012   9.907 -1.7424 -2.9853 -0.0429
   14CHL1   H7B  975   4.973   1.014   9.935  0.7664 -0.5132  0.0871
   14CHL1    C8  976   4.912   0.844   9.837  0.1981 -0.7895 -0.2747
   14CHL1    H8  977   4.812   0.799   9.815 -0.7913  0.9211  0.5895
   14CHL1   C14  978   4.961   0.908   9.708  0.2311 -0.1691  0.4374
   14CHL1   H14  979   5.056   0.954   9.743 -0.0801  0.3797  0.5641
   14CHL1   C15  980   4.891   1.027   9.631  0.5768  0.3310  0.6179
   14CHL1  H15A  981   4.781   1.013   9.638  0.6933 -2.3597 -2.2937
   14CHL1  H15B  982   4.930   1.117   9.685  3.5421 -1.3737  1.4343
   14CHL1   C16  983   4.939   1.018   9.491 -0.1276  0.2653  1.0339
   14CHL1  H16A  984   4.848   0.999   9.429  0.7753 -3.3232  0.6778
   14CHL1  H16B  985   4.987   1.116   9.468  1.2155  0.1426  3.1821
   14CHL1   C17  986   5.041   0.904   9.488 -0.4592 -0.1820  0.4432
   14CHL1   H17  987   5.134   0.953   9.523  0.3188 -1.6063  0.4101
   14CHL1   C13  988   4.999   0.805   9.604  0.0913 -0.7899  0.5556
   14CHL1   C18  989   4.875   0.723   9.561  0.0584  0.5007  0.3906
   14CHL1  H18A  990   4.824   0.670   9.645  0.0893  1.2133  0.8617
   14CHL1  H18B  991   4.805   0.800   9.521 -0.6785 -0.9176 -1.1049
   14CHL1  H18C  992   4.908   0.652   9.483 -0.9934  1.6855 -1.1861
   14CHL1   C12  993   5.104   0.705   9.653  0.6245 -0.7073  0.4385
   14CHL1  H12A  994   5.114   0.630   9.571  0.3161  1.0032 -1.2014
   14CHL1  H12B  995   5.188   0.770   9.683  0.9678 -0.3682 -1.1942
   14CHL1   C11  996   5.048   0.640   9.783 -0.0179  0.5090  1.0254
   14CHL1  H11A  997   4.962   0.575   9.757 -0.3440  0.6127  1.8487
   14CHL1  H11B  998   5.120   0.568   9.827  2.2353  1.7826 -0.4448
   14CHL1    C9  999   5.014   0.742   9.892 -0.1858 -0.2003  0.3159
   14CHL1    H9 1000   5.110   0.794   9.914 -1.0530  1.8823 -0.6322
   14CHL1   C10 1001   4.970   0.666  10.025 -0.4355 -0.7009 -0.7739
   14CHL1   C19 1002   4.863   0.551   9.992  0.2312 -0.5774 -0.7494
   14CHL1  H19A 1003   4.798   0.526  10.078 -0.3704  0.2724 -0.9464
   14CHL1  H19B 1004   4.794   0.592   9.914  0.2215  2.1562  0.6286
   14CHL1  H19C 1005   4.901   0.456   9.947 -0.0804 -0.8581 -0.4194
   14CHL1    C1 1006   5.096   0.611  10.101  0.0839 -1.2654  0.1681
   14CHL1   H1A 1007   5.140   0.526  10.044  0.7796 -1.6676  1.2784
   14CHL1   H1B 1008   5.179   0.682  10.123  0.0026 -0.8738 -0.7573
   14CHL1    C2 1009   5.056   0.546  10.238  0.4450 -0.1143  0.9225
   14CHL1   H2A 1010   5.142   0.500  10.291  1.1891 -0.6854 -0.7273
   14CHL1   H2B 1011   4.979   0.469  10.216  0.5427 -0.2235  0.9632
   14CHL1   C20 1012   5.079   0.847   9.348 -0.4070 -0.2677 -0.2827
   14CHL1   H20 1013   5.096   0.738   9.366 -0.2106 -0.6440 -2.5928
   14CHL1   C21 1014   5.210   0.911   9.301  0.2319 -0.0911 -0.4657
   14CHL1  H21A 1015   5.246   0.857   9.212  0.4744 -3.6014  1.6665
   14CHL1  H21B 1016   5.282   0.903   9.386 -0.9167 -2.3224  0.3377
   14CHL1  H21C 1017   5.209   1.013   9.255 -0.0519  0.1746  0.1194
   14CHL1   C22 1018   4.970   0.843   9.237 -0.2111 -0.2647  0.3642
   14CHL1  H22A 1019   4.873   0.823   9.288  0.1094  0.2821  1.1971
   14CHL1  H22B 1020   4.952   0.948   9.202 -0.4957 -0.1678  0.7936
   14CHL1   C23 1021   5.003   0.741   9.128  0.2753 -0.0206 -0.3780
   14CHL1  H23A 1022   5.098   0.762   9.074  1.1870 -0.2690  1.0988
   14CHL1  H23B 1023   5.023   0.644   9.177 -1.5509  0.8857  2.2833
   14CHL1   C24 1024   4.890   0.748   9.028 -0.5328 -0.9384 -0.0652
   14CHL1  H24A 1025   4.791   0.719   9.070 -1.6645  1.0350 -1.2829
   14CHL1  H24B 1026   4.885   0.855   8.997  1.6462 -0.5141  0.9352
   14CHL1   C25 1027   4.924   0.664   8.899 -0.0582 -0.4102  0.1135
   14CHL1   H25 1028   5.003   0.726   8.851 -0.3860  1.6394  2.1215
   14CHL1   C26 1029   4.993   0.524   8.919 -0.2375 -0.0942 -0.2545
   14CHL1  H26A 1030   4.927   0.456   8.976 -0.7389  3.9357  4.2899
   14CHL1  H26B 1031   5.011   0.477   8.820 -0.6791  0.4984 -0.6188
   14CHL1  H26C 1032   5.089   0.528   8.975 -0.5649  1.3881  0.2412
   14CHL1   C27 1033   4.807   0.662   8.799 -0.7696 -0.5156  0.3870
   14CHL1  H27A 1034   4.764   0.763   8.781  3.2522  1.0393 -1.0745
   14CHL1  H27B 1035   4.843   0.633   8.698  0.7926  2.7470 -0.0884
   14CHL1  H27C 1036   4.727   0.600   8.844 -0.9157 -2.4670 -2.4505
   15CHL1    C3 1037   5.574   5.990  10.139  0.4093  0.6540 -0.1215
   15CHL1    H3 1038   5.643   5.907  10.112 -0.8140  0.2647 -2.1867
   15CHL1    O3 1039   5.531   5.981  10.278  0.1736 -0.4285  0.3491
   15CHL1   H3' 1040   5.470   6.054  10.284  0.8445  0.1911 -0.1531
   15CHL1    C4 1041   5.636   6.131  10.122  0.5354  0.5045 -0.0966
   15CHL1   H4A 1042   5.574   6.205  10.176  2.1299  0.4913  1.8056
   15CHL1   H4B 1043   5.731   6.126  10.179 -0.0974 -2.9046  0.7835
   15CHL1    C5 1044   5.660   6.172   9.979 -0.1096 -0.3195  0.3262
   15CHL1    C6 1045   5.777   6.220   9.940 -0.1909 -0.7822  0.1692
   15CHL1    H6 1046   5.854   6.243  10.015  0.5927  0.2927 -0.9600
   15CHL1    C7 1047   5.819   6.255   9.796  0.5213 -0.2101 -0.3153
   15CHL1   H7A 1048   5.860   6.358   9.790 -3.4932  1.3847 -2.9392
   15CHL1   H7B 1049   5.894   6.179   9.766 -0.4162 -0.4748 -2.0857
   15CHL1    C8 1050   5.693   6.244   9.698 -0.0571 -0.4629  0.0002
   15CHL1    H8 1051   5.638   6.340   9.707 -0.6142 -0.6465 -1.3295
   15CHL1   C14 1052   5.746   6.218   9.557  0.0338  0.3666  0.5788
   15CHL1   H14 1053   5.780   6.112   9.553 -0.0804  0.3645 -0.4715
   15CHL1   C15 1054   5.872   6.292   9.519  0.4265  0.5419  0.4851
   15CHL1  H15A 1055   5.859   6.400   9.545  2.1536  0.8414  0.1556
   15CHL1  H15B 1056   5.971   6.264   9.560  0.9589  1.1920 -0.3358
   15CHL1   C16 1057   5.865   6.279   9.363 -1.0421  0.4598 -0.6895
   15CHL1  H16A 1058   5.867   6.380   9.318  0.3034  0.2045 -1.2410
   15CHL1  H16B 1059   5.955   6.221   9.332 -1.4575 -0.4128 -0.2811
   15CHL1   C17 1060   5.733   6.212   9.326  0.4789 -0.2326 -0.1911
   15CHL1   H17 1061   5.757   6.103   9.323  1.0240 -0.1127 -0.1802
   15CHL1   C13 1062   5.644   6.234   9.447 -0.5148  0.1238 -0.3292
   15CHL1   C18 1063   5.586   6.379   9.438 -0.1927 -0.5960  0.4684
   15CHL1  H18A 1064   5.668   6.455   9.440 -2.5327  2.0779 -1.2725
   15CHL1  H18B 1065   5.534   6.384   9.340  2.6962  0.7198 -1.0740
   15CHL1  H18C 1066   5.515   6.409   9.517  0.4807 -0.4745  1.0372
   15CHL1   C12 1067   5.532   6.119   9.480 -0.3320 -0.1144 -0.2259
   15CHL1  H12A 1068   5.445   6.132   9.411 -1.0860  0.0879  0.7606
   15CHL1  H12B 1069   5.569   6.016   9.463 -1.4843 -0.4754 -0.6074
   15CHL1   C11 1070   5.479   6.138   9.625 -0.3545 -0.3614 -0.8226
   15CHL1  H11A 1071   5.445   6.243   9.629  2.7525  0.6854 -0.5820
   15CHL1  H11B 1072   5.393   6.069   9.639 -2.9575  2.4912 -2.1922
   15CHL1    C9 1073   5.593   6.129   9.733  0.3178 -0.1106  0.9999
   15CHL1    H9 1074   5.648   6.036   9.708  0.1946  0.1883 -0.3987
   15CHL1   C10 1075   5.549   6.132   9.882  0.2269 -0.6535 -0.0135
   15CHL1   C19 1076   5.432   6.242   9.894 -0.0175 -0.7669 -0.3687
   15CHL1  H19A 1077   5.470   6.333   9.843 -1.4737  0.6340  0.9878
   15CHL1  H19B 1078   5.339   6.208   9.843  0.6897 -0.3870 -1.9298
   15CHL1  H19C 1079   5.400   6.269   9.997  2.3482 -0.5881  0.3518
   15CHL1    C1 1080   5.473   5.997   9.909 -1.0346 -0.1302  0.1565
   15CHL1   H1A 1081   5.375   5.985   9.859 -0.2359 -0.2084 -1.3978
   15CHL1   H1B 1082   5.541   5.917   9.873 -1.2194  0.3493 -1.2959
   15CHL1    C2 1083   5.442   5.982  10.059  0.1237  0.1602  0.5237
   15CHL1   H2A 1084   5.388   5.888  10.081  3.4212 -1.9408  0.0271
   15CHL1   H2B 1085   5.391   6.073  10.097 -2.4230 -0.2299 -1.8038
   15CHL1   C20 1086   5.695   6.239   9.185  0.4324 -0.0560  0.3760
   15CHL1   H20 1087   5.684   6.350   9.181  2.5359  0.1686 -0.2013
   15CHL1   C21 1088   5.563   6.170   9.153  0.0157  0.4713  0.6878
   15CHL1  H21A 1089   5.554   6.065   9.186 -1.3597 -0.3051 -2.0071
   15CHL1  H21B 1090   5.532   6.162   9.046 -0.8863 -0.3828  1.0149
   15CHL1  H21C 1091   5.485   6.233   9.199  0.0410  1.0296 -0.0113
   15CHL1   C22 1092   5.799   6.200   9.082 -0.2268 -0.2146  1.0897
   15CHL1  H22A 1093   5.901   6.202   9.126 -0.2517  3.0743  1.1212
   15CHL1  H22B 1094   5.794   6.096   9.044 -0.4048  0.3926 -0.6103
   15CHL1   C23 1095   5.816   6.302   8.962 -0.1009  0.6765 -0.2656
   15CHL1  H23A 1096   5.714   6.306   8.918 -0.8294 -1.0336  1.2073
   15CHL1  H23B 1097   5.845   6.401   9.004  2.5186  0.2436 -1.0114
   15CHL1   C24 1098   5.913   6.259   8.851  1.0386  0.4879 -0.3805
   15CHL1  H24A 1099   5.965   6.351   8.816 -0.9050  0.8435 -2.3929
   15CHL1  H24B 1100   5.999   6.206   8.896 -0.6207 -3.2805 -1.5017
   15CHL1   C25 1101   5.865   6.182   8.728  0.3612  0.4578 -0.6821
   15CHL1   H25 1102   5.793   6.254   8.683 -0.6362 -0.5222 -0.6792
   15CHL1   C26 1103   5.975   6.171   8.622  0.3714 -0.3154  0.6746
   15CHL1  H26A 1104   6.028   6.268   8.631  0.0795 -0.2091  1.2723
   15CHL1  H26B 1105   6.043   6.086   8.644 -0.0103 -0.2706  2.0832
   15CHL1  H26C 1106   5.930   6.154   8.522  0.9489  1.7824  0.0329
   15CHL1   C27 1107   5.788   6.055   8.753  0.0027  0.4173 -0.4695
   15CHL1  H27A 1108   5.835   5.973   8.813 -2.9721 -0.3958  0.8703
   15CHL1  H27B 1109   5.696   6.071   8.813  0.1717  0.8524 -0.3273
   15CHL1  H27C 1110   5.765   6.003   8.657  0.3008 -1.6198  0.5209
   16CHL1    C3 1111   6.098   0.227  10.187  0.4930 -0.5846 -0.0275
   16CHL1    H3 1112   6.009   0.284  10.152 -0.5535 -1.4205  1.1932
   16CHL1    O3 1113   6.086   0.225  10.331 -0.7312 -0.5817  0.3532
   16CHL1   H3' 1114   6.172   0.197  10.361 -0.7990  0.2056  1.2996
   16CHL1    C4 1115   6.087   0.085  10.135 -0.4960  0.3281 -0.8430
   16CHL1   H4A 1116   6.169   0.024  10.179  0.9466  3.3950  0.8731
   16CHL1   H4B 1117   5.992   0.046  10.176  1.1076 -0.0925  2.6223
   16CHL1    C5 1118   6.099   0.083   9.988 -0.1943  0.0363  0.0640
   16CHL1    C6 1119   6.008   0.038   9.904 -1.0129  0.3300  1.0583
   16CHL1    H6 1120   5.916  -0.011   9.938  0.0424 -0.8107  2.3308
   16CHL1    C7 1121   6.024   0.039   9.755 -0.5620  0.2168  0.3392
   16CHL1   H7A 1122   5.983  -0.059   9.720 -0.7129  0.8905 -1.4006
   16CHL1   H7B 1123   5.966   0.124   9.712  1.3596  1.4008  0.0669
   16CHL1    C8 1124   6.170   0.058   9.712 -0.5004 -0.8553 -0.3102
   16CHL1    H8 1125   6.224  -0.040   9.719 -0.4755 -0.8024  0.3128
   16CHL1   C14 1126   6.173   0.104   9.565 -0.2301 -0.9588  0.8769
   16CHL1   H14 1127   6.116   0.199   9.560  0.1390 -0.8623 -2.0938
   16CHL1   C15 1128   6.107   0.014   9.462 -0.1376  0.6552 -0.4590
   16CHL1  H15A 1129   6.144  -0.090   9.472  0.1744  0.6128 -1.9248
   16CHL1  H15B 1130   5.998   0.034   9.471  0.1140  2.0913 -0.4611
   16CHL1   C16 1131   6.161   0.068   9.325 -0.2500  0.8466 -0.3936
   16CHL1  H16A 1132   6.203  -0.017   9.267 -0.5570 -1.9744  3.2738
   16CHL1  H16B 1133   6.078   0.109   9.264 -0.1723 -3.0723 -3.3209
   16CHL1   C17 1134   6.261   0.179   9.357 -0.4741  0.5721 -0.1300
   16CHL1   H17 1135   6.209   0.277   9.363  0.5076  1.1843 -1.2793
   16CHL1   C13 1136   6.306   0.148   9.499 -0.1417 -0.0925  0.0123
   16CHL1   C18 1137   6.410   0.035   9.506 -0.1102 -0.1082 -0.3024
   16CHL1  H18A 1138   6.395  -0.032   9.594  3.0608 -1.4952 -0.7683
   16CHL1  H18B 1139   6.409  -0.023   9.411  0.7794  0.3954 -0.6206
   16CHL1  H18C 1140   6.510   0.084   9.509 -0.7838  1.4325 -2.3131
   16CHL1   C12 1141   6.340   0.270   9.575 -0.6403 -0.3602 -0.3551
   16CHL1  H12A 1142   6.433   0.321   9.543 -1.2284  0.0421 -1.4704
   16CHL1  H12B 1143   6.261   0.347   9.562  0.0610  0.4877  0.3099
   16CHL1   C11 1144   6.359   0.239   9.727 -0.9507 -0.1527  1.0003
   16CHL1  H11A 1145   6.440   0.163   9.732 -1.4898 -0.8103  0.0514
   16CHL1  H11B 1146   6.385   0.328   9.788 -1.4101 -0.5324  1.7607
   16CHL1    C9 1147   6.229   0.178   9.787 -0.2052 -0.1523  0.2990
   16CHL1    H9 1148   6.148   0.251   9.765 -1.9478 -1.3915  2.4171
   16CHL1   C10 1149   6.233   0.159   9.939 -0.0404 -0.5604 -0.0685
   16CHL1   C19 1150   6.366   0.075   9.973  0.0351  0.4350  0.7560
   16CHL1  H19A 1151   6.371   0.053  10.082 -1.3419 -1.7638  0.3961
   16CHL1  H19B 1152   6.360  -0.025   9.926  0.1090  0.5075  0.5911
   16CHL1  H19C 1153   6.453   0.133   9.936  0.0604  0.1245  0.3322
   16CHL1    C1 1154   6.250   0.298  10.011  0.6186  0.4548  0.0295
   16CHL1   H1A 1155   6.348   0.349   9.997  1.5372 -1.2213  0.2211
   16CHL1   H1B 1156   6.177   0.366   9.963 -0.9892 -1.7854 -0.7510
   16CHL1    C2 1157   6.231   0.301  10.161 -0.3710  0.2574 -0.7008
   16CHL1   H2A 1158   6.229   0.404  10.203  0.6437  0.3802 -0.9404
   16CHL1   H2B 1159   6.314   0.246  10.209 -0.8536  2.0431  2.3193
   16CHL1   C20 1160   6.371   0.194   9.241  0.1566  0.0968  0.4742
   16CHL1   H20 1161   6.424   0.097   9.229  1.2805  0.6052  1.2503
   16CHL1   C21 1162   6.469   0.303   9.262  0.0550 -0.6581 -0.1677
   16CHL1  H21A 1163   6.424   0.402   9.284  0.0562 -0.4203 -1.2338
   16CHL1  H21B 1164   6.535   0.316   9.174 -2.2378  0.4449 -1.7631
   16CHL1  H21C 1165   6.531   0.277   9.351  2.1949 -0.4350 -1.5727
   16CHL1   C22 1166   6.301   0.210   9.102  0.3678 -0.6497 -0.5507
   16CHL1  H22A 1167   6.231   0.129   9.074 -0.9166  0.0528  0.5168
   16CHL1  H22B 1168   6.241   0.304   9.106  0.1918 -0.6824 -2.2941
   16CHL1   C23 1169   6.403   0.222   8.987  0.1032  0.5397  0.0341
   16CHL1  H23A 1170   6.472   0.307   9.004  1.7096 -0.9021  0.9524
   16CHL1  H23B 1171   6.460   0.129   8.965  2.0970  1.6694  0.3750
   16CHL1   C24 1172   6.333   0.253   8.854 -0.4174  0.0387 -0.0912
   16CHL1  H24A 1173   6.262   0.171   8.830 -0.4713 -0.1842  0.8254
   16CHL1  H24B 1174   6.263   0.337   8.871 -0.0798  0.7393 -2.0722
   16CHL1   C25 1175   6.420   0.262   8.725 -0.2562 -0.2113 -0.3530
   16CHL1   H25 1176   6.478   0.167   8.720  0.2147  0.0955 -0.6697
   16CHL1   C26 1177   6.330   0.290   8.610 -0.1673 -0.0902  0.6318
   16CHL1  H26A 1178   6.377   0.260   8.514 -1.2702  0.6901 -0.1598
   16CHL1  H26B 1179   6.231   0.244   8.632 -1.1568  2.0479  0.7980
   16CHL1  H26C 1180   6.323   0.399   8.590  0.5410 -0.4482 -1.6229
   16CHL1   C27 1181   6.511   0.381   8.755  0.0741  0.1509 -0.0457
   16CHL1  H27A 1182   6.578   0.406   8.670  1.9471 -0.6353  1.1668
   16CHL1  H27B 1183   6.457   0.476   8.775 -0.4494  0.4306 -2.6041
   16CHL1  H27C 1184   6.584   0.363   8.837 -1.2663  2.2319  1.6660
   17CHL1    C3 1185   1.633   3.962  10.286  0.0043  0.6518  0.1409
   17CHL1    H3 1186   1.528   3.946  10.255  0.1333  0.5933 -0.2728
   17CHL1    O3 1187   1.635   3.978  10.432  0.0440  0.2221 -0.0771
   17CHL1   H3' 1188   1.726   3.956  10.453  0.4852  2.5085  0.5343
   17CHL1    C4 1189   1.704   3.834  10.244 -0.3059 -0.5710  0.0300
   17CHL1   H4A 1190   1.809   3.821  10.279  0.2676  2.0055 -0.6466
   17CHL1   H4B 1191   1.650   3.748  10.289 -0.7425 -1.8981 -2.9383
   17CHL1    C5 1192   1.720   3.799  10.096  0.0262  0.2075 -0.3023
   17CHL1    C6 1193   1.693   3.677  10.045  0.2641 -0.3712 -0.3756
   17CHL1    H6 1194   1.653   3.609  10.122 -1.3984  3.4008  2.2977
   17CHL1    C7 1195   1.709   3.645   9.899  0.9724  0.5279 -0.4303
   17CHL1   H7A 1196   1.770   3.554   9.881  0.4229 -0.1337  0.9534
   17CHL1   H7B 1197   1.604   3.641   9.863  1.0743 -1.4555 -0.5683
   17CHL1    C8 1198   1.762   3.768   9.816 -0.8429  0.2965  0.0762
   17CHL1    H8 1199   1.872   3.756   9.820 -0.6999  1.6334  0.5036
   17CHL1   C14 1200   1.724   3.744   9.668  0.1273 -0.6281  0.3001
   17CHL1   H14 1201   1.614   3.736   9.657  0.3650 -3.4989 -0.2724
   17CHL1   C15 1202   1.774   3.612   9.605  0.2797  0.1557  0.5041
   17CHL1  H15A 1203   1.883   3.597   9.621  0.8580  2.0644 -1.4163
   17CHL1  H15B 1204   1.721   3.521   9.642 -0.1642  0.7878  1.4417
   17CHL1   C16 1205   1.749   3.641   9.457  0.7994 -0.1758 -0.1505
   17CHL1  H16A 1206   1.835   3.611   9.394 -1.2310  0.5892 -3.4134
   17CHL1  H16B 1207   1.658   3.589   9.420  1.1259  0.5922 -2.0927
   17CHL1   C17 1208   1.710   3.795   9.445 -0.1852 -0.1241  0.1195
   17CHL1   H17 1209   1.603   3.780   9.468 -0.2939 -1.1656 -1.0186
   17CHL1   C13 1210   1.775   3.849   9.574 -0.1495  0.5292 -0.1130
   17CHL1   C18 1211   1.931   3.847   9.569  0.5175 -0.3384 -0.2541
   17CHL1  H18A 1212   1.974   3.750   9.534  0.8449 -0.7242  1.1748
   17CHL1  H18B 1213   1.970   3.926   9.501  0.1725  2.4631  2.7089
   17CHL1  H18C 1214   1.983   3.867   9.665  0.0518 -0.0555 -0.0599
   17CHL1   C12 1215   1.720   3.986   9.614 -0.6234 -0.5590 -0.2892
   17CHL1  H12A 1216   1.760   4.067   9.549  0.9683 -0.2419  1.0613
   17CHL1  H12B 1217   1.611   3.988   9.595 -0.7282  3.1194  0.3310
   17CHL1   C11 1218   1.747   4.015   9.760  0.0050  0.0621  0.1061
   17CHL1  H11A 1219   1.856   4.031   9.773 -0.0617  0.2566  0.4462
   17CHL1  H11B 1220   1.703   4.111   9.797  1.6108 -0.0584  2.4370
   17CHL1    C9 1221   1.713   3.906   9.867  0.0725  0.2430  0.1780
   17CHL1    H9 1222   1.603   3.900   9.861  0.1346 -1.9621  0.8457
   17CHL1   C10 1223   1.760   3.925  10.014 -0.1658 -0.1976  0.3440
   17CHL1   C19 1224   1.911   3.934  10.026 -0.3757 -0.2225 -0.5114
   17CHL1  H19A 1225   1.930   3.951  10.134 -2.9039 -4.5251  0.7369
   17CHL1  H19B 1226   1.967   3.841  10.006 -2.3511 -1.3677 -0.8848
   17CHL1  H19C 1227   1.941   4.023   9.967  1.1472  0.7148  1.6030
   17CHL1    C1 1228   1.706   4.060  10.059  0.3311 -0.0439  0.6253
   17CHL1   H1A 1229   1.768   4.146  10.029  3.0875 -1.7232  1.3544
   17CHL1   H1B 1230   1.604   4.064  10.014 -0.2401 -0.0608  1.8727
   17CHL1    C2 1231   1.699   4.081  10.214  0.3736 -0.0194  0.2602
   17CHL1   H2A 1232   1.648   4.172  10.251 -2.6734 -1.6505  0.2749
   17CHL1   H2B 1233   1.802   4.078  10.254  0.6844 -2.0787 -0.6194
   17CHL1   C20 1234   1.736   3.878   9.315  0.0512  0.7536 -0.1451
   17CHL1   H20 1235   1.790   3.972   9.338 -0.3145  0.8354  0.4026
   17CHL1   C21 1236   1.597   3.912   9.258  0.0721  0.0615  0.5378
   17CHL1  H21A 1237   1.549   3.987   9.325 -0.1251  3.2312 -2.9936
   17CHL1  H21B 1238   1.536   3.821   9.246  3.0423 -1.9535  0.2550
   17CHL1  H21C 1239   1.607   3.967   9.162  2.4365 -0.0011  0.6994
   17CHL1   C22 1240   1.812   3.809   9.198 -0.6020 -0.2987 -0.4464
   17CHL1  H22A 1241   1.831   3.889   9.122  2.7436  0.5583  1.1957
   17CHL1  H22B 1242   1.904   3.765   9.242 -1.3864 -0.6227  0.8823
   17CHL1   C23 1243   1.741   3.692   9.131 -0.4761 -0.5124  0.1816
   17CHL1  H23A 1244   1.697   3.622   9.205 -0.2330 -1.0418 -0.1784
   17CHL1  H23B 1245   1.663   3.737   9.066  0.8857  2.3184  0.4394
   17CHL1   C24 1246   1.833   3.624   9.025  0.2693  0.1334 -0.6451
   17CHL1  H24A 1247   1.851   3.698   8.945  2.2419 -0.4736 -0.7883
   17CHL1  H24B 1248   1.926   3.598   9.079 -1.5763  1.2914  3.3376
   17CHL1   C25 1249   1.765   3.499   8.975 -0.3169 -0.5521  0.6133
   17CHL1   H25 1250   1.717   3.440   9.056 -0.6201 -1.4020 -0.1740
   17CHL1   C26 1251   1.666   3.535   8.867  0.4385  0.4641 -0.4080
   17CHL1  H26A 1252   1.615   3.441   8.837  1.3272 -0.2165  0.1731
   17CHL1  H26B 1253   1.592   3.610   8.902 -0.9003 -0.3246 -1.5079
   17CHL1  H26C 1254   1.716   3.573   8.775 -0.7104 -1.0641 -1.7003
   17CHL1   C27 1255   1.866   3.407   8.907  0.2875  0.4612 -0.1699
   17CHL1  H27A 1256   1.909   3.448   8.813 -1.3546 -0.3422 -1.2929
   17CHL1  H27B 1257   1.950   3.400   8.980  1.7002  2.4962 -1.5359
   17CHL1  H27C 1258   1.826   3.308   8.878  0.5271  0.5170 -0.7035
   18CHL1    C3 1259   0.878   3.018  10.212  0.4758 -0.0665 -0.0334
   18CHL1    H3 1260   0.780   2.976  10.180  0.5693 -0.9006  0.7564
   18CHL1    O3 1261   0.879   3.037  10.353  0.0263 -0.2354 -0.1883
   18CHL1   H3' 1262   0.970   3.064  10.368  0.2514  0.2644 -2.2601
   18CHL1    C4 1263   0.992   2.915  10.188 -0.0787 -0.1445 -0.2168
   18CHL1   H4A 1264   1.090   2.920  10.240  0.2330 -0.5189 -0.7541
   18CHL1   H4B 1265   0.951   2.816  10.216 -4.0462  0.8388 -2.1288
   18CHL1    C5 1266   1.042   2.902  10.041 -0.2529  0.4902 -0.6020
   18CHL1    C6 1267   1.065   2.777   9.994 -0.3755  0.3132  0.7611
   18CHL1    H6 1268   1.046   2.689  10.057  2.2872  0.1687  1.4238
   18CHL1    C7 1269   1.126   2.756   9.858 -0.2366 -0.1012  0.8247
   18CHL1   H7A 1270   1.215   2.690   9.864 -0.3315 -0.2444  0.6401
   18CHL1   H7B 1271   1.058   2.694   9.796  1.0307 -0.3745 -0.3240
   18CHL1    C8 1272   1.148   2.885   9.771 -0.3877  0.6513 -0.7667
   18CHL1    H8 1273   1.254   2.909   9.789 -0.4041 -1.6107  2.7528
   18CHL1   C14 1274   1.126   2.855   9.621 -0.0284 -0.6500  0.1466
   18CHL1   H14 1275   1.016   2.846   9.607 -0.2056 -1.6970  2.0322
   18CHL1   C15 1276   1.194   2.730   9.562 -0.0814  0.1537  0.0944
   18CHL1  H15A 1277   1.298   2.726   9.602  0.7650  0.8496 -1.9783
   18CHL1  H15B 1278   1.134   2.640   9.588 -0.7319  0.4460 -0.3736
   18CHL1   C16 1279   1.206   2.750   9.410  0.3394 -0.2090  0.2219
   18CHL1  H16A 1280   1.307   2.738   9.364 -0.8343 -2.7683 -1.8029
   18CHL1  H16B 1281   1.148   2.675   9.353  3.3452 -1.2825 -1.5441
   18CHL1   C17 1282   1.158   2.902   9.397 -0.4717  0.3522 -0.0193
   18CHL1   H17 1283   1.050   2.886   9.381 -0.6240  2.3368 -1.1786
   18CHL1   C13 1284   1.166   2.972   9.531 -0.2662 -0.2748 -0.1403
   18CHL1   C18 1285   1.319   3.010   9.540  0.6933  0.5780 -0.0846
   18CHL1  H18A 1286   1.348   3.049   9.640  0.1752  1.0869 -0.1289
   18CHL1  H18B 1287   1.375   2.914   9.530 -0.5129 -0.1143 -0.2774
   18CHL1  H18C 1288   1.353   3.084   9.464 -0.3770  0.3523 -0.7927
   18CHL1   C12 1289   1.059   3.084   9.566  0.0485  0.5303  0.5742
   18CHL1  H12A 1290   1.080   3.180   9.514 -1.7371  0.8827  0.4592
   18CHL1  H12B 1291   0.957   3.051   9.536  0.4257  0.5445 -0.7317
   18CHL1   C11 1292   1.070   3.122   9.718 -0.0235  1.0945  0.3264
   18CHL1  H11A 1293   1.170   3.169   9.725  0.9540 -0.7773 -0.7629
   18CHL1  H11B 1294   0.993   3.199   9.740 -0.6800  0.9598 -1.3893
   18CHL1    C9 1295   1.062   3.003   9.815 -0.5458  0.0593  0.8205
   18CHL1    H9 1296   0.958   2.968   9.794 -0.9403 -0.9121  4.1447
   18CHL1   C10 1297   1.049   3.033   9.958  0.2266 -0.0079 -0.3252
   18CHL1   C19 1298   1.183   3.099  10.000  0.0747  0.2681 -0.2991
   18CHL1  H19A 1299   1.202   3.204   9.971 -0.8371  1.1170  2.0232
   18CHL1  H19B 1300   1.198   3.097  10.111 -2.4171 -1.4007  0.0454
   18CHL1  H19C 1301   1.264   3.034   9.962 -0.5178  0.5701 -2.1414
   18CHL1    C1 1302   0.935   3.138   9.998 -0.7539  0.4538  0.5398
   18CHL1   H1A 1303   0.947   3.234   9.943  0.5671 -0.3962 -0.6622
   18CHL1   H1B 1304   0.841   3.092   9.962 -0.2618 -1.5074  1.7209
   18CHL1    C2 1305   0.911   3.156  10.147  0.5280  0.3192 -0.0895
   18CHL1   H2A 1306   0.829   3.229  10.160  0.7443  0.3735  0.9860
   18CHL1   H2B 1307   0.999   3.202  10.197 -0.1068  1.1122  0.2905
   18CHL1   C20 1308   1.208   2.966   9.265  0.5436  0.6493  0.4210
   18CHL1   H20 1309   1.312   3.004   9.271  1.1940 -0.6865 -1.8489
   18CHL1   C21 1310   1.114   3.088   9.240  0.6099  0.2794  0.0160
   18CHL1  H21A 1311   1.131   3.137   9.142  0.9714  0.0791 -0.0215
   18CHL1  H21B 1312   1.123   3.177   9.307  0.0852  2.2015 -2.4034
   18CHL1  H21C 1313   1.007   3.057   9.246  0.1509  1.7291 -0.4625
   18CHL1   C22 1314   1.215   2.889   9.127 -0.0491  0.7312 -0.3380
   18CHL1  H22A 1315   1.257   2.962   9.055  1.2875 -0.1928 -0.5181
   18CHL1  H22B 1316   1.283   2.804   9.150 -1.3606  0.1397  1.4784
   18CHL1   C23 1317   1.088   2.830   9.061 -0.2566  0.4163 -0.3196
   18CHL1  H23A 1318   1.033   2.775   9.139  1.2947  0.8048  1.0788
   18CHL1  H23B 1319   1.017   2.908   9.026  0.3559 -0.4723 -3.7162
   18CHL1   C24 1320   1.109   2.730   8.951  0.4402 -0.4516  0.8056
   18CHL1  H24A 1321   1.170   2.785   8.877  0.1391  0.7492  1.4311
   18CHL1  H24B 1322   1.166   2.642   8.988 -1.1234 -0.9998  1.9851
   18CHL1   C25 1323   0.982   2.676   8.876 -0.2864 -0.0664  0.6823
   18CHL1   H25 1324   0.901   2.657   8.949 -2.0966 -0.6392 -1.4211
   18CHL1   C26 1325   0.920   2.774   8.777  0.7424 -0.1735  0.0060
   18CHL1  H26A 1326   0.976   2.794   8.683  0.8399 -1.4633 -0.2269
   18CHL1  H26B 1327   0.828   2.723   8.739  0.3404  0.7257 -0.2267
   18CHL1  H26C 1328   0.898   2.870   8.827 -0.2027 -0.4916  0.2138
   18CHL1   C27 1329   1.014   2.536   8.810 -0.3921 -0.1083  0.1994
   18CHL1  H27A 1330   1.062   2.466   8.881  1.9289  0.9785 -0.2649
   18CHL1  H27B 1331   0.935   2.491   8.746 -2.9359  4.8107 -0.3167
   18CHL1  H27C 1332   1.095   2.566   8.741  0.9797 -3.2207  0.3415
   19CHL1    C3 1333   4.905   5.945  10.143  0.2183  0.7707 -0.2711
   19CHL1    H3 1334   4.912   6.048  10.184  0.9561  0.0964  1.3388
   19CHL1    O3 1335   4.867   5.856  10.247 -0.7899  0.4561 -0.2369
   19CHL1   H3' 1336   4.783   5.890  10.279 -0.9436 -0.3437  0.2203
   19CHL1    C4 1337   4.790   5.940  10.048  0.3571 -0.3065 -0.3535
   19CHL1   H4A 1338   4.771   5.831  10.032 -0.4403 -1.1632  5.4039
   19CHL1   H4B 1339   4.691   5.975  10.085 -0.1069 -0.1551 -1.7236
   19CHL1    C5 1340   4.812   6.009   9.911  0.4210 -0.2281 -0.5030
   19CHL1    C6 1341   4.728   6.105   9.867 -0.3363 -0.7946 -0.0678
   19CHL1    H6 1342   4.641   6.129   9.930  0.5227 -1.8766  1.5822
   19CHL1    C7 1343   4.741   6.174   9.735  0.4129  0.5043  0.3399
   19CHL1   H7A 1344   4.647   6.166   9.676  0.7667 -3.4094  0.1577
   19CHL1   H7B 1345   4.759   6.283   9.745  0.9191  0.4026  0.5781
   19CHL1    C8 1346   4.841   6.097   9.649 -0.2016  0.1523 -0.4305
   19CHL1    H8 1347   4.797   6.001   9.615 -0.0105  0.5994 -2.0051
   19CHL1   C14 1348   4.873   6.182   9.524  0.1086 -0.4398 -0.1666
   19CHL1   H14 1349   4.914   6.278   9.562  1.4847 -0.6656 -1.0862
   19CHL1   C15 1350   4.758   6.219   9.433 -0.3082 -0.1680  0.1359
   19CHL1  H15A 1351   4.687   6.135   9.421  1.1352 -1.3567 -0.1131
   19CHL1  H15B 1352   4.697   6.303   9.473  0.0410  1.3169 -2.2977
   19CHL1   C16 1353   4.822   6.269   9.303 -0.1022 -0.2137 -0.0283
   19CHL1  H16A 1354   4.763   6.229   9.218 -3.4000  1.6253  1.3022
   19CHL1  H16B 1355   4.835   6.379   9.312 -0.6168 -0.1376 -0.1873
   19CHL1   C17 1356   4.970   6.217   9.310  0.1828  0.5873  0.1512
   19CHL1   H17 1357   5.033   6.303   9.342  0.9633 -0.5724  1.8269
   19CHL1   C13 1358   4.973   6.117   9.429  0.2730 -0.1975  0.2843
   19CHL1   C18 1359   4.926   5.978   9.380 -0.0239  0.2509  0.3882
   19CHL1  H18A 1360   4.832   5.976   9.321  2.3213  2.3033 -3.6565
   19CHL1  H18B 1361   5.000   5.932   9.311  0.7853  0.2396  1.2577
   19CHL1  H18C 1362   4.916   5.914   9.470  1.2074  0.3290  0.5955
   19CHL1   C12 1363   5.106   6.112   9.505 -0.2245 -0.2481  0.6181
   19CHL1  H12A 1364   5.178   6.063   9.436 -0.8968  1.1320 -1.0853
   19CHL1  H12B 1365   5.156   6.209   9.523 -0.4896  0.5107 -2.4677
   19CHL1   C11 1366   5.084   6.022   9.626  0.5088  0.4057 -0.7447
   19CHL1  H11A 1367   5.071   5.917   9.593  0.3357  0.2931 -0.3131
   19CHL1  H11B 1368   5.182   6.026   9.678 -1.0498  1.5079  2.2215
   19CHL1    C9 1369   4.971   6.072   9.717 -0.7187 -0.5454 -0.0617
   19CHL1    H9 1370   5.009   6.168   9.758 -1.2799 -0.2165 -0.3020
   19CHL1   C10 1371   4.952   5.981   9.844  0.5262 -0.0346 -0.0669
   19CHL1   C19 1372   4.946   5.835   9.784 -0.1584  0.1605 -0.3008
   19CHL1  H19A 1373   4.898   5.768   9.858 -0.7934  0.3118 -0.5698
   19CHL1  H19B 1374   4.892   5.826   9.687 -2.0744 -2.6420  0.9530
   19CHL1  H19C 1375   5.044   5.789   9.758  0.2342  1.1924 -0.6837
   19CHL1    C1 1376   5.068   5.995   9.952  0.0659  0.4300 -0.4520
   19CHL1   H1A 1377   5.172   5.981   9.915  0.3162 -2.3679  1.2269
   19CHL1   H1B 1378   5.058   6.101   9.984 -3.8479  0.0518 -0.1091
   19CHL1    C2 1379   5.045   5.917  10.081 -0.3513 -0.3976  0.2253
   19CHL1   H2A 1380   5.117   5.962  10.153  0.6215  0.0138 -0.9820
   19CHL1   H2B 1381   5.054   5.806  10.075  1.7359 -0.2610  0.3802
   19CHL1   C20 1382   5.021   6.184   9.167  0.1974 -0.5997  0.5931
   19CHL1   H20 1383   4.959   6.114   9.106 -0.3577  0.6830 -0.3203
   19CHL1   C21 1384   5.164   6.127   9.188 -0.5208  0.2153 -0.6202
   19CHL1  H21A 1385   5.176   6.018   9.208  0.5858  0.3209 -0.6862
   19CHL1  H21B 1386   5.215   6.192   9.261 -0.1934 -1.2040  0.4429
   19CHL1  H21C 1387   5.210   6.135   9.087  0.9918 -0.6986 -0.0242
   19CHL1   C22 1388   5.029   6.317   9.086  0.5422  0.1215 -0.3193
   19CHL1  H22A 1389   4.948   6.385   9.120  1.2358 -0.3881  2.4491
   19CHL1  H22B 1390   5.126   6.355   9.124  0.2623  1.0357 -0.5018
   19CHL1   C23 1391   5.034   6.291   8.935  0.5323  0.1162 -0.5307
   19CHL1  H23A 1392   5.125   6.233   8.909  0.5883  0.0496 -0.1893
   19CHL1  H23B 1393   4.944   6.240   8.893 -1.1067  1.2538  1.4853
   19CHL1   C24 1394   5.043   6.420   8.851  0.0158  0.2647 -0.0881
   19CHL1  H24A 1395   4.943   6.468   8.859  0.1288  0.4946 -0.0375
   19CHL1  H24B 1396   5.095   6.502   8.906  0.4421 -1.1374  1.6591
   19CHL1   C25 1397   5.091   6.404   8.708  0.0520  0.6019  0.5106
   19CHL1   H25 1398   5.187   6.350   8.702  0.4467  1.4740 -1.1289
   19CHL1   C26 1399   4.985   6.328   8.621  0.4165  0.3064 -0.3846
   19CHL1  H26A 1400   4.962   6.225   8.654 -1.2481  1.5877  2.6517
   19CHL1  H26B 1401   4.888   6.383   8.620  1.0162  1.3712 -0.6539
   19CHL1  H26C 1402   5.024   6.323   8.517  0.4211  0.5212 -0.3943
   19CHL1   C27 1403   5.111   6.542   8.645 -0.5185  0.2113  0.5531
   19CHL1  H27A 1404   5.144   6.543   8.539 -1.5538 -2.9537  0.1456
   19CHL1  H27B 1405   5.015   6.598   8.647 -1.5732 -1.5485  3.3192
   19CHL1  H27C 1406   5.173   6.601   8.716 -1.2348  1.0168  0.5150
   20CHL1    C3 1407   0.730   6.063  10.333  0.5721  0.5466  0.0034
   20CHL1    H3 1408   0.831   6.095  10.298  1.1531 -1.1776  0.0797
   20CHL1    O3 1409   0.745   6.049  10.469  0.3230 -0.2859 -0.0732
   20CHL1   H3' 1410   0.667   5.998  10.490  0.2722 -0.1669  0.0287
   20CHL1    C4 1411   0.630   6.179  10.299 -0.2618 -0.1960 -0.3896
   20CHL1   H4A 1412   0.532   6.155  10.346 -0.1868  0.2266 -0.0112
   20CHL1   H4B 1413   0.655   6.276  10.347  1.0023  0.7608 -2.8837
   20CHL1    C5 1414   0.611   6.201  10.151  0.1132 -0.3159 -0.3054
   20CHL1    C6 1415   0.622   6.323  10.091  0.8823 -0.0203  0.2552
   20CHL1    H6 1416   0.635   6.411  10.155 -1.8608 -0.4043  1.4132
   20CHL1    C7 1417   0.606   6.356   9.946 -0.0350  0.5314  1.0817
   20CHL1   H7A 1418   0.546   6.449   9.934  1.8096  1.9926  2.8519
   20CHL1   H7B 1419   0.706   6.364   9.899 -0.0243  0.1884  1.0430
   20CHL1    C8 1420   0.545   6.238   9.866 -0.2624 -0.5269 -0.4324
   20CHL1    H8 1421   0.438   6.239   9.894 -0.5802  2.3440 -1.6539
   20CHL1   C14 1422   0.559   6.257   9.717  0.0173  0.6018  0.1151
   20CHL1   H14 1423   0.664   6.235   9.690 -0.2163 -0.6751  0.2262
   20CHL1   C15 1424   0.525   6.391   9.659  0.1311 -0.7922  0.2193
   20CHL1  H15A 1425   0.431   6.430   9.706 -0.8778 -1.5645 -1.1164
   20CHL1  H15B 1426   0.609   6.463   9.670 -2.2736  1.8991  1.7822
   20CHL1   C16 1427   0.494   6.364   9.512  0.9765 -0.0386 -0.0530
   20CHL1  H16A 1428   0.386   6.384   9.492  1.0306 -1.1762 -1.6042
   20CHL1  H16B 1429   0.558   6.427   9.446  1.0017 -0.6464 -0.6155
   20CHL1   C17 1430   0.509   6.205   9.500 -0.4921  0.3727 -0.5352
   20CHL1   H17 1431   0.616   6.193   9.472 -0.7005 -2.4120 -0.2284
   20CHL1   C13 1432   0.481   6.151   9.642  0.0363  0.6783  0.2555
   20CHL1   C18 1433   0.331   6.157   9.671 -0.0657 -0.3360  0.3348
   20CHL1  H18A 1434   0.275   6.077   9.618  2.9109 -1.8194 -0.6874
   20CHL1  H18B 1435   0.312   6.142   9.780 -1.6313  1.8086  0.3996
   20CHL1  H18C 1436   0.293   6.256   9.636  0.2272 -0.4033 -0.1742
   20CHL1   C12 1437   0.534   6.016   9.675 -0.1867  0.2414  1.0558
   20CHL1  H12A 1438   0.459   5.944   9.635 -0.3667  0.5429  0.8454
   20CHL1  H12B 1439   0.635   6.003   9.631 -1.2915 -0.2912 -1.4209
   20CHL1   C11 1440   0.541   5.986   9.830 -0.2768 -0.0300 -0.3094
   20CHL1  H11A 1441   0.435   5.963   9.856  0.0808 -1.1379  0.1894
   20CHL1  H11B 1442   0.589   5.889   9.851  1.3231  1.0030  0.8699
   20CHL1    C9 1443   0.593   6.100   9.915 -0.5081 -0.5486 -0.3309
   20CHL1    H9 1444   0.702   6.107   9.895 -0.5260 -2.9071 -1.5286
   20CHL1   C10 1445   0.589   6.077  10.070 -0.0086 -0.3395  0.0815
   20CHL1   C19 1446   0.443   6.041  10.109  1.0309  0.6147 -0.5623
   20CHL1  H19A 1447   0.375   6.122  10.075 -0.8863  0.4116  2.6552
   20CHL1  H19B 1448   0.407   5.951  10.056 -0.2280  0.9734 -0.3237
   20CHL1  H19C 1449   0.434   6.029  10.219  0.9584  0.8465 -0.5427
   20CHL1    C1 1450   0.682   5.965  10.116 -0.1413 -0.3386  0.1182
   20CHL1   H1A 1451   0.653   5.864  10.079 -0.3560  0.3232 -1.5815
   20CHL1   H1B 1452   0.780   5.975  10.064 -0.0858  0.9446  0.4521
   20CHL1    C2 1453   0.691   5.936  10.270 -0.1396  0.0754  0.4667
   20CHL1   H2A 1454   0.759   5.849  10.283  0.7254  0.8555  1.2640
   20CHL1   H2B 1455   0.587   5.914  10.300 -0.2037 -1.4647 -0.8154
   20CHL1   C20 1456   0.439   6.147   9.379 -0.3519 -0.3017 -1.0278
   20CHL1   H20 1457   0.329   6.162   9.387 -0.4452 -0.8007 -1.3378
   20CHL1   C21 1458   0.475   5.991   9.365 -0.5715 -0.6089 -0.4532
   20CHL1  H21A 1459   0.415   5.932   9.438  0.5710 -0.6346  0.4853
   20CHL1  H21B 1460   0.582   5.977   9.393 -0.5585 -1.2151 -0.7918
   20CHL1  H21C 1461   0.435   5.955   9.268 -2.0568 -0.4711  0.0928
   20CHL1   C22 1462   0.482   6.213   9.239  0.3220 -0.3147 -0.1878
   20CHL1  H22A 1463   0.492   6.324   9.240  2.7337 -0.5230 -0.1333
   20CHL1  H22B 1464   0.583   6.172   9.217  0.7566  1.4225 -1.5381
   20CHL1   C23 1465   0.394   6.184   9.123  0.6672 -0.0160  0.2233
   20CHL1  H23A 1466   0.310   6.118   9.156  1.3664  0.2487  2.6235
   20CHL1  H23B 1467   0.340   6.271   9.081  0.2650 -0.7553 -0.8034
   20CHL1   C24 1468   0.474   6.118   9.007  0.5652  0.5934 -0.2222
   20CHL1  H24A 1469   0.552   6.195   8.986 -0.9131  1.6775 -1.8855
   20CHL1  H24B 1470   0.530   6.026   9.033  1.2959  1.6579  2.1207
   20CHL1   C25 1471   0.390   6.098   8.879 -0.2404  0.1429 -0.2957
   20CHL1   H25 1472   0.337   6.190   8.846  0.2621  0.3749 -0.4696
   20CHL1   C26 1473   0.489   6.077   8.762 -0.4336 -0.0661 -0.4348
   20CHL1  H26A 1474   0.555   5.989   8.778  0.4122  0.8400  1.2632
   20CHL1  H26B 1475   0.430   6.061   8.669 -3.4612 -1.2345  1.6312
   20CHL1  H26C 1476   0.554   6.167   8.754 -0.0299 -0.3976 -0.8945
   20CHL1   C27 1477   0.289   5.981   8.889  0.2652  0.0482 -0.2238
   20CHL1  H27A 1478   0.335   5.883   8.914 -0.4291 -0.0929  0.5344
   20CHL1  H27B 1479   0.213   6.008   8.966 -1.6742 -0.5912 -1.8551
   20CHL1  H27C 1480   0.237   5.972   8.791  0.2176  1.3715 -0.3312
   21CHL1    C3 1481   0.052   2.726  10.292  0.4448 -0.8630 -0.1591
   21CHL1    H3 1482  -0.005   2.631  10.293  2.3177 -2.0179 -0.3474
   21CHL1    O3 1483   0.045   2.779  10.425 -0.6152  0.2194 -0.1394
   21CHL1   H3' 1484   0.077   2.711  10.484  0.6379  1.0950  0.2171
   21CHL1    C4 1485   0.194   2.689  10.252 -0.9064  0.1798  0.8757
   21CHL1   H4A 1486   0.245   2.786  10.271 -0.4917  0.6064 -2.1474
   21CHL1   H4B 1487   0.212   2.607  10.324 -1.5997 -0.3389  0.4479
   21CHL1    C5 1488   0.212   2.657  10.111 -0.4456  0.5706  0.0048
   21CHL1    C6 1489   0.273   2.543  10.078 -0.1839  0.2465 -0.3358
   21CHL1    H6 1490   0.315   2.471  10.150  0.4607  2.0086  1.0767
   21CHL1    C7 1491   0.284   2.485   9.941  0.5305  0.5288 -0.7082
   21CHL1   H7A 1492   0.393   2.466   9.935  0.4144  0.1808 -1.8877
   21CHL1   H7B 1493   0.228   2.388   9.940 -1.3764  1.6026 -1.5435
   21CHL1    C8 1494   0.237   2.585   9.821 -0.4807  0.0536  0.0430
   21CHL1    H8 1495   0.330   2.644   9.806 -0.2491 -0.2201  0.3943
   21CHL1   C14 1496   0.211   2.519   9.687 -0.4912 -0.5107 -0.5825
   21CHL1   H14 1497   0.127   2.449   9.701 -1.3115  0.3314 -1.2087
   21CHL1   C15 1498   0.324   2.430   9.626  0.5199  0.6030  0.5812
   21CHL1  H15A 1499   0.417   2.490   9.630  0.8015  0.0954  2.1111
   21CHL1  H15B 1500   0.340   2.334   9.681  0.6840 -0.5749 -1.4795
   21CHL1   C16 1501   0.280   2.418   9.482 -0.2000  0.2228  1.0742
   21CHL1  H16A 1502   0.361   2.463   9.420 -0.5772 -0.9541 -0.3095
   21CHL1  H16B 1503   0.268   2.317   9.438  2.4959  0.5215 -0.4695
   21CHL1   C17 1504   0.154   2.514   9.464 -0.0079  0.1695  0.2195
   21CHL1   H17 1505   0.069   2.447   9.489 -1.8878  1.0911 -3.3864
   21CHL1   C13 1506   0.166   2.614   9.582  0.2614 -0.3747  0.6882
   21CHL1   C18 1507   0.269   2.723   9.545 -0.3630  0.9573  0.0077
   21CHL1  H18A 1508   0.212   2.794   9.481 -1.0702 -0.7076 -1.2284
   21CHL1  H18B 1509   0.286   2.783   9.637 -2.2006  2.8070 -0.8101
   21CHL1  H18C 1510   0.368   2.687   9.510  0.4109  1.7911  1.2707
   21CHL1   C12 1511   0.029   2.681   9.627 -0.5537 -0.8207  0.3976
   21CHL1  H12A 1512  -0.003   2.759   9.555 -0.3413 -0.7873  0.3390
   21CHL1  H12B 1513  -0.050   2.603   9.634 -1.5060 -0.0775 -1.7151
   21CHL1   C11 1514   0.044   2.749   9.762 -0.3456  0.0959  0.4870
   21CHL1  H11A 1515   0.110   2.834   9.737 -1.6479  0.2698 -2.6472
   21CHL1  H11B 1516  -0.056   2.788   9.789 -0.6555  0.4502 -1.1436
   21CHL1    C9 1517   0.111   2.658   9.867 -0.3777 -0.5659 -0.3732
   21CHL1    H9 1518   0.045   2.573   9.894  1.7605 -1.7904  1.1367
   21CHL1   C10 1519   0.133   2.730  10.003  0.2681 -0.1622  0.0978
   21CHL1   C19 1520   0.220   2.853   9.974 -0.0653 -0.2462  0.2871
   21CHL1  H19A 1521   0.251   2.894  10.073  1.6323 -2.8865  0.9011
   21CHL1  H19B 1522   0.312   2.818   9.921 -0.6244  2.4401 -2.6162
   21CHL1  H19C 1523   0.167   2.935   9.920 -0.0562  0.5660  1.4909
   21CHL1    C1 1524  -0.007   2.779  10.053  0.3364  0.5103 -0.1422
   21CHL1   H1A 1525  -0.065   2.851   9.992 -0.6863 -0.3653 -0.2202
   21CHL1   H1B 1526  -0.067   2.685  10.056  1.0038  0.1061  1.8499
   21CHL1    C2 1527  -0.013   2.830  10.200 -0.2145  0.4541  0.0766
   21CHL1   H2A 1528  -0.115   2.866  10.226 -1.3818 -1.6091 -1.5106
   21CHL1   H2B 1529   0.059   2.914  10.213  1.3994 -0.9168  0.0792
   21CHL1   C20 1530   0.136   2.575   9.322 -0.4293 -0.1729 -0.2877
   21CHL1   H20 1531   0.222   2.642   9.302  1.3819 -2.4673 -0.4042
   21CHL1   C21 1532   0.004   2.651   9.297 -0.2270 -0.3537  0.0443
   21CHL1  H21A 1533   0.010   2.753   9.341  2.2239  0.0054 -1.1005
   21CHL1  H21B 1534  -0.088   2.599   9.334 -1.5588  0.8868 -1.4360
   21CHL1  H21C 1535  -0.019   2.672   9.191 -2.9216 -1.0459  0.4394
   21CHL1   C22 1536   0.142   2.468   9.216 -0.1277 -0.1447  0.2367
   21CHL1  H22A 1537   0.126   2.520   9.119  0.5805 -0.7137 -0.1904
   21CHL1  H22B 1538   0.240   2.417   9.209 -0.2660 -0.2777 -0.8377
   21CHL1   C23 1539   0.032   2.358   9.220 -0.7134  0.0222  0.0927
   21CHL1  H23A 1540   0.061   2.300   9.310 -0.8948  0.3456  0.3621
   21CHL1  H23B 1541  -0.067   2.404   9.241 -0.5852  0.9360 -1.2434
   21CHL1   C24 1542   0.035   2.253   9.104 -0.3815  0.2275 -0.7568
   21CHL1  H24A 1543   0.139   2.256   9.067  0.3618  0.3498  1.3009
   21CHL1  H24B 1544   0.012   2.149   9.137  2.9456  0.3383  2.1114
   21CHL1   C25 1545  -0.053   2.297   8.989 -0.1033  0.1030 -0.6054
   21CHL1   H25 1546  -0.047   2.408   8.986 -0.3660  0.1721  1.0087
   21CHL1   C26 1547  -0.017   2.239   8.852  0.1330 -0.6390 -0.0254
   21CHL1  H26A 1548  -0.090   2.286   8.782  0.8319  0.2442 -0.1591
   21CHL1  H26B 1549   0.081   2.269   8.809  0.1938 -1.7880 -0.7104
   21CHL1  H26C 1550  -0.024   2.131   8.827  1.6205 -0.8409  0.4069
   21CHL1   C27 1551  -0.204   2.253   9.019 -0.8485 -0.1564 -0.6106
   21CHL1  H27A 1552  -0.268   2.261   8.929 -0.0259 -0.3877 -1.2261
   21CHL1  H27B 1553  -0.200   2.144   9.040  1.6764 -0.1351 -0.7355
   21CHL1  H27C 1554  -0.251   2.304   9.106  0.9858 -1.1272  1.0003
   22CHL1    C3 1555   6.288   4.230   9.954 -0.4339 -0.5329  0.4483
   22CHL1    H3 1556   6.380   4.177   9.921 -1.5898 -1.8605 -0.7439
   22CHL1    O3 1557   6.299   4.242  10.094  0.0209 -0.6819  0.1237
   22CHL1   H3' 1558   6.239   4.313  10.118  2.7109  1.3279  1.2469
   22CHL1    C4 1559   6.296   4.366   9.889  0.0160 -0.4988  0.0138
   22CHL1   H4A 1560   6.210   4.433   9.912  0.1003 -1.1111  2.1970
   22CHL1   H4B 1561   6.392   4.414   9.917  0.4719 -1.8208  0.7380
   22CHL1    C5 1562   6.311   4.348   9.736  0.4918 -0.5060 -0.9781
   22CHL1    C6 1563   6.417   4.386   9.669 -0.7922 -0.2125  0.5256
   22CHL1    H6 1564   6.494   4.446   9.721  0.2943  1.8643 -3.3191
   22CHL1    C7 1565   6.453   4.364   9.524  0.2946 -0.3950 -0.0742
   22CHL1   H7A 1566   6.465   4.463   9.474 -0.6697 -0.5903 -0.7083
   22CHL1   H7B 1567   6.547   4.307   9.511  1.4546  1.0804  1.6154
   22CHL1    C8 1568   6.324   4.305   9.453  0.1731  0.1394  0.3029
   22CHL1    H8 1569   6.254   4.385   9.423  0.3142 -0.5367 -1.8934
   22CHL1   C14 1570   6.368   4.223   9.325 -0.2508 -0.2685 -0.2008
   22CHL1   H14 1571   6.442   4.146   9.355 -0.1225 -0.2063 -0.3588
   22CHL1   C15 1572   6.458   4.309   9.219  0.1462  0.1449  0.0632
   22CHL1  H15A 1573   6.409   4.409   9.212  0.2840  0.1677 -0.5550
   22CHL1  H15B 1574   6.555   4.313   9.274  0.9578 -0.2063 -1.3213
   22CHL1   C16 1575   6.458   4.215   9.095 -0.3092 -0.2139  0.4834
   22CHL1  H16A 1576   6.414   4.280   9.016  0.6429  1.5228  1.3499
   22CHL1  H16B 1577   6.552   4.165   9.063 -1.2839 -0.3737 -2.2159
   22CHL1   C17 1578   6.355   4.095   9.127 -0.0160 -0.2415  0.2633
   22CHL1   H17 1579   6.424   4.013   9.154  1.5921  1.0390  0.1618
   22CHL1   C13 1580   6.264   4.147   9.236 -0.1634 -0.1160 -0.3833
   22CHL1   C18 1581   6.170   4.255   9.177  0.5238  0.2520 -0.0479
   22CHL1  H18A 1582   6.099   4.304   9.247 -0.6238  1.6202 -2.1288
   22CHL1  H18B 1583   6.212   4.332   9.109 -1.2722 -1.8378 -3.6662
   22CHL1  H18C 1584   6.100   4.199   9.111  1.4152  0.8962 -1.5726
   22CHL1   C12 1585   6.189   4.050   9.325 -0.7770  0.3569  0.1778
   22CHL1  H12A 1586   6.105   3.984   9.295 -2.1407  2.5175 -0.9671
   22CHL1  H12B 1587   6.269   3.979   9.356 -0.1874  1.0151  0.1814
   22CHL1   C11 1588   6.137   4.125   9.447  0.0728  0.1146  0.5022
   22CHL1  H11A 1589   6.054   4.195   9.423  1.3242  1.2760 -0.4595
   22CHL1  H11B 1590   6.084   4.043   9.501  1.4072  0.0427  1.7283
   22CHL1    C9 1591   6.246   4.197   9.531 -0.2549  0.0194 -0.7147
   22CHL1    H9 1592   6.323   4.118   9.544 -0.6548 -0.3283 -0.4458
   22CHL1   C10 1593   6.201   4.256   9.668 -0.0883  0.2552 -0.6155
   22CHL1   C19 1594   6.074   4.337   9.656 -0.1457 -0.2223  0.2150
   22CHL1  H19A 1595   6.082   4.411   9.574 -1.0144  0.9046  1.1277
   22CHL1  H19B 1596   5.985   4.270   9.650 -1.0014  0.8706  0.4139
   22CHL1  H19C 1597   6.045   4.401   9.742 -2.6248  0.8593 -1.3586
   22CHL1    C1 1598   6.172   4.129   9.761 -0.3186 -0.6128  0.0496
   22CHL1   H1A 1599   6.081   4.075   9.728  0.6708 -1.7115 -0.9250
   22CHL1   H1B 1600   6.261   4.063   9.749  0.3497 -0.1987  2.3915
   22CHL1    C2 1601   6.170   4.154   9.910 -0.9200  0.1377 -0.3635
   22CHL1   H2A 1602   6.172   4.056   9.961 -0.3447 -1.0479 -2.5777
   22CHL1   H2B 1603   6.072   4.201   9.930 -0.4982  1.0370 -0.3608
   22CHL1   C20 1604   6.292   4.047   8.999  0.3988 -0.1326 -0.1138
   22CHL1   H20 1605   6.229   4.126   8.952  2.2435  1.2720 -0.2844
   22CHL1   C21 1606   6.200   3.928   9.030 -0.3624  0.6181  0.4219
   22CHL1  H21A 1607   6.261   3.859   9.092 -0.1856 -0.7754 -1.2664
   22CHL1  H21B 1608   6.169   3.883   8.933  1.4413  0.7144 -0.2158
   22CHL1  H21C 1609   6.115   3.966   9.090 -0.1230  0.2193  1.0152
   22CHL1   C22 1610   6.400   4.007   8.902 -0.3022 -0.3449  0.0311
   22CHL1  H22A 1611   6.359   3.989   8.801 -2.4294 -3.4547  1.3749
   22CHL1  H22B 1612   6.473   4.089   8.882  0.8124 -1.6944 -1.5391
   22CHL1   C23 1613   6.490   3.884   8.932 -0.3778 -0.3200 -0.5229
   22CHL1  H23A 1614   6.539   3.908   9.029  0.5977  1.0360 -1.3382
   22CHL1  H23B 1615   6.437   3.786   8.929  0.7174 -0.9304 -0.2152
   22CHL1   C24 1616   6.599   3.873   8.829  0.0215 -0.2221 -0.1233
   22CHL1  H24A 1617   6.560   3.868   8.725  1.2812  1.8159 -0.7313
   22CHL1  H24B 1618   6.654   3.970   8.829  1.3514 -0.9137 -2.8577
   22CHL1   C25 1619   6.695   3.754   8.840  0.1149  0.0860 -0.1306
   22CHL1   H25 1620   6.734   3.736   8.943 -0.0468  0.9577  0.0974
   22CHL1   C26 1621   6.634   3.617   8.796  0.1965 -0.1244 -0.0117
   22CHL1  H26A 1622   6.554   3.604   8.871 -1.8658  0.8706 -1.9922
   22CHL1  H26B 1623   6.596   3.617   8.692 -0.2223 -3.1584  0.1074
   22CHL1  H26C 1624   6.716   3.542   8.798  1.3556  1.1384  1.6432
   22CHL1   C27 1625   6.821   3.776   8.756 -0.2024 -0.4810  0.2944
   22CHL1  H27A 1626   6.889   3.689   8.750 -0.2240 -0.6371  2.1562
   22CHL1  H27B 1627   6.793   3.800   8.651  2.2444  0.3758 -0.1869
   22CHL1  H27C 1628   6.877   3.857   8.807  1.7270 -1.6364  0.0430
   23CHL1    C3 1629   2.843   5.068  10.191 -0.5312  0.0852  0.7784
   23CHL1    H3 1630   2.799   5.150  10.130  1.7154 -0.4316 -1.6648
   23CHL1    O3 1631   2.840   5.099  10.329 -0.0146  0.1724  0.0453
   23CHL1   H3' 1632   2.861   5.010  10.360  0.4026 -0.1613 -1.1807
   23CHL1    C4 1633   2.751   4.944  10.166  0.1654  0.3126  0.5488
   23CHL1   H4A 1634   2.787   4.857  10.226 -3.0590 -0.7279  1.0975
   23CHL1   H4B 1635   2.653   4.972  10.211  0.1740  0.6146  0.3748
   23CHL1    C5 1636   2.740   4.899  10.024  1.0894 -0.5257 -0.2002
   23CHL1    C6 1637   2.622   4.890   9.964  0.7981  0.0414 -0.5799
   23CHL1    H6 1638   2.527   4.914  10.014  0.5596 -2.0816  0.0471
   23CHL1    C7 1639   2.610   4.867   9.819 -0.3054  0.1694 -0.4082
   23CHL1   H7A 1640   2.529   4.792   9.809  1.4075 -1.6022 -1.3288
   23CHL1   H7B 1641   2.594   4.965   9.769  1.1203  0.0661 -1.1119
   23CHL1    C8 1642   2.742   4.813   9.748 -0.0151 -0.4153  0.3770
   23CHL1    H8 1643   2.743   4.702   9.757 -3.3756 -0.3595  2.5597
   23CHL1   C14 1644   2.746   4.841   9.598 -0.2641  0.2423  0.2944
   23CHL1   H14 1645   2.763   4.951   9.589 -0.0102  0.2723  1.1120
   23CHL1   C15 1646   2.622   4.800   9.513  0.3519 -0.4251 -0.1631
   23CHL1  H15A 1647   2.568   4.709   9.547 -0.1856 -0.6609 -1.6268
   23CHL1  H15B 1648   2.552   4.886   9.519 -0.3869 -1.0277 -0.1828
   23CHL1   C16 1649   2.662   4.788   9.367 -0.2458 -0.3380 -0.7077
   23CHL1  H16A 1650   2.654   4.680   9.342  4.3681 -0.7029 -1.0555
   23CHL1  H16B 1651   2.612   4.846   9.287  1.3206  0.5387 -1.0701
   23CHL1   C17 1652   2.818   4.818   9.376 -0.1288  0.2761  0.1570
   23CHL1   H17 1653   2.830   4.927   9.356  1.6983  0.0164 -0.2727
   23CHL1   C13 1654   2.860   4.777   9.518 -0.0161 -0.2048  0.0564
   23CHL1   C18 1655   2.854   4.622   9.528  0.0259 -0.1918 -0.7421
   23CHL1  H18A 1656   2.749   4.596   9.504 -0.0535 -0.2323 -0.3387
   23CHL1  H18B 1657   2.921   4.566   9.458 -1.0183 -0.5776 -1.4474
   23CHL1  H18C 1658   2.868   4.587   9.632 -2.9845  0.2267 -0.1382
   23CHL1   C12 1659   2.993   4.839   9.572  0.0621  0.0935 -0.3743
   23CHL1  H12A 1660   3.073   4.765   9.551  0.4636  0.5754 -0.5823
   23CHL1  H12B 1661   3.023   4.938   9.530  0.3949  0.9138  1.7002
   23CHL1   C11 1662   2.993   4.840   9.731  0.3827 -0.1329  0.2772
   23CHL1  H11A 1663   3.026   4.741   9.769 -2.3276 -1.2117 -0.0541
   23CHL1  H11B 1664   3.066   4.919   9.759  0.0973 -0.3915  1.8175
   23CHL1    C9 1665   2.868   4.881   9.803 -0.4081  0.3943  0.0529
   23CHL1    H9 1666   2.850   4.987   9.777 -0.7015  0.6952  1.4405
   23CHL1   C10 1667   2.878   4.871   9.958  0.3609  0.5415 -0.1225
   23CHL1   C19 1668   2.917   4.729  10.003  0.0998  0.6744  0.4806
   23CHL1  H19A 1669   3.016   4.698   9.964 -0.9171 -1.3583 -0.5364
   23CHL1  H19B 1670   2.933   4.722  10.113  1.8135  0.7642  0.2610
   23CHL1  H19C 1671   2.851   4.648   9.967 -0.6330  1.8879 -0.9795
   23CHL1    C1 1672   2.982   4.983   9.998  0.2279 -0.6957  0.1564
   23CHL1   H1A 1673   3.081   4.939   9.973  0.7433  0.7399 -0.3842
   23CHL1   H1B 1674   2.971   5.070   9.929 -1.5941 -0.4854  0.6967
   23CHL1    C2 1675   2.990   5.032  10.141  0.2497  0.0307 -0.9135
   23CHL1   H2A 1676   3.037   5.132  10.142  0.6891 -0.1830 -0.0435
   23CHL1   H2B 1677   3.038   4.967  10.217  0.6370  1.8882  0.4403
   23CHL1   C20 1678   2.888   4.751   9.262 -0.7781 -0.1622  0.2349
   23CHL1   H20 1679   2.894   4.642   9.287  0.3695 -0.5816 -1.7801
   23CHL1   C21 1680   3.041   4.790   9.255  0.7971 -0.0316  0.1455
   23CHL1  H21A 1681   3.066   4.897   9.274 -0.5604  0.3342 -0.0768
   23CHL1  H21B 1682   3.081   4.746   9.161 -2.1077 -3.7195  0.5540
   23CHL1  H21C 1683   3.108   4.739   9.328  0.6433 -1.4457 -0.6863
   23CHL1   C22 1684   2.815   4.738   9.118  0.5803  0.4295 -0.1433
   23CHL1  H22A 1685   2.872   4.651   9.081  0.0363 -0.2632  0.6301
   23CHL1  H22B 1686   2.708   4.711   9.132  0.5634  0.7495  0.3779
   23CHL1   C23 1687   2.841   4.854   9.028 -0.2989 -0.0657 -0.4655
   23CHL1  H23A 1688   2.792   4.936   9.085 -1.0408 -0.7154 -0.1529
   23CHL1  H23B 1689   2.950   4.861   9.009 -0.1119 -0.5220  0.3894
   23CHL1   C24 1690   2.769   4.847   8.900  0.5560 -0.0528  0.6440
   23CHL1  H24A 1691   2.663   4.870   8.925  0.4968  1.4923 -0.9013
   23CHL1  H24B 1692   2.804   4.924   8.828 -2.9752  0.1810 -0.9318
   23CHL1   C25 1693   2.765   4.713   8.818 -0.5115  0.8335 -0.0013
   23CHL1   H25 1694   2.715   4.636   8.881  0.5901  0.8108  0.8694
   23CHL1   C26 1695   2.693   4.726   8.676 -0.3829 -0.8129 -0.3998
   23CHL1  H26A 1696   2.653   4.626   8.648 -0.5126 -0.6376 -0.8395
   23CHL1  H26B 1697   2.601   4.788   8.683  0.5460  0.4312  1.0271
   23CHL1  H26C 1698   2.754   4.778   8.599 -0.8909 -0.2717 -0.4383
   23CHL1   C27 1699   2.916   4.674   8.787  0.1902  0.6387 -0.5682
   23CHL1  H27A 1700   2.924   4.574   8.740 -3.2445 -0.6285  1.3351
   23CHL1  H27B 1701   2.950   4.743   8.708  1.1763 -0.6818 -1.3094
   23CHL1  H27C 1702   2.980   4.672   8.878 -2.0346 -1.5800  1.0113
   24CHL1    C3 1703   4.426   5.909   9.957  0.2325  0.2137  0.0477
   24CHL1    H3 1704   4.526   5.954   9.937  0.7242 -1.2993 -1.0259
   24CHL1    O3 1705   4.391   5.918  10.096 -0.0736  0.1673 -0.0936
   24CHL1   H3' 1706   4.311   5.865  10.096  1.4031 -2.1279 -0.0856
   24CHL1    C4 1707   4.319   5.986   9.875 -0.1675 -1.2083  0.0340
   24CHL1   H4A 1708   4.224   5.934   9.901  0.6953 -2.4314  0.7770
   24CHL1   H4B 1709   4.310   6.091   9.910 -0.2443 -1.0413 -0.4898
   24CHL1    C5 1710   4.339   5.979   9.723  0.1534  0.1019  0.5348
   24CHL1    C6 1711   4.351   6.089   9.646  0.1388  0.2931 -0.0067
   24CHL1    H6 1712   4.331   6.186   9.695 -1.7764 -0.8581  1.5655
   24CHL1    C7 1713   4.383   6.091   9.494  0.3073  0.5599 -0.0533
   24CHL1   H7A 1714   4.317   6.170   9.452  0.4443  0.7819  0.1452
   24CHL1   H7B 1715   4.483   6.134   9.469  0.2195  1.4983  1.1925
   24CHL1    C8 1716   4.376   5.946   9.435 -0.2148  0.6273 -0.3863
   24CHL1    H8 1717   4.268   5.934   9.413 -0.4619 -2.4107  2.1037
   24CHL1   C14 1718   4.462   5.939   9.313 -0.3666  0.0352 -0.2246
   24CHL1   H14 1719   4.569   5.945   9.345 -0.8929 -0.0437  1.5641
   24CHL1   C15 1720   4.448   6.054   9.210 -0.0481 -1.2636 -0.6592
   24CHL1  H15A 1721   4.343   6.079   9.186  0.4558  1.6315 -0.0133
   24CHL1  H15B 1722   4.487   6.147   9.256  0.6114 -1.6251 -0.4779
   24CHL1   C16 1723   4.521   6.001   9.088 -0.1702  0.4773 -0.7165
   24CHL1  H16A 1724   4.461   6.029   8.999 -1.4965 -3.2163 -1.0413
   24CHL1  H16B 1725   4.616   6.058   9.090 -0.0787  0.3533 -1.4133
   24CHL1   C17 1726   4.547   5.854   9.112 -0.5327 -0.4006  0.1597
   24CHL1   H17 1727   4.646   5.843   9.161  0.6102  0.1796 -1.9756
   24CHL1   C13 1728   4.454   5.813   9.229  0.0875 -0.4101 -0.2869
   24CHL1   C18 1729   4.311   5.786   9.169  0.2571 -0.2015 -0.2068
   24CHL1  H18A 1730   4.301   5.695   9.107 -1.7918  0.3619 -0.7633
   24CHL1  H18B 1731   4.234   5.775   9.249  0.4358 -4.2922 -0.5362
   24CHL1  H18C 1732   4.277   5.872   9.106 -3.3013  0.5197  2.5016
   24CHL1   C12 1733   4.485   5.691   9.314 -0.0395  0.3745 -0.0527
   24CHL1  H12A 1734   4.455   5.593   9.272 -0.4945  0.0144  1.0936
   24CHL1  H12B 1735   4.595   5.686   9.329  0.2110  1.7464 -1.3327
   24CHL1   C11 1736   4.412   5.702   9.455  0.0227  0.0850  0.1433
   24CHL1  H11A 1737   4.308   5.671   9.431  0.2416  0.0232 -0.7833
   24CHL1  H11B 1738   4.460   5.625   9.519  0.0233 -1.9385 -2.1763
   24CHL1    C9 1739   4.424   5.837   9.532 -1.1053 -0.0111  0.4086
   24CHL1    H9 1740   4.534   5.850   9.547 -1.2588  2.2000 -0.1392
   24CHL1   C10 1741   4.363   5.839   9.674 -0.3096  0.6060  0.0299
   24CHL1   C19 1742   4.220   5.771   9.683 -0.0052 -0.3252 -0.8364
   24CHL1  H19A 1743   4.143   5.838   9.640 -1.4469 -0.9632  0.7043
   24CHL1  H19B 1744   4.222   5.676   9.625 -2.5110 -0.2295 -1.1206
   24CHL1  H19C 1745   4.180   5.750   9.785 -1.2715  2.5255 -0.6889
   24CHL1    C1 1746   4.462   5.760   9.763  0.2302  0.2900 -0.2436
   24CHL1   H1A 1747   4.455   5.653   9.733  2.3150 -0.2182  0.9908
   24CHL1   H1B 1748   4.564   5.797   9.743 -0.7517  2.2669 -1.8085
   24CHL1    C2 1749   4.423   5.762   9.913 -0.4822 -0.7685 -0.1229
   24CHL1   H2A 1750   4.503   5.708   9.967  1.0716  0.6979 -0.8813
   24CHL1   H2B 1751   4.329   5.706   9.932 -0.6449 -0.5513 -0.2737
   24CHL1   C20 1752   4.548   5.766   8.991  0.0227  0.1615  0.2049
   24CHL1   H20 1753   4.453   5.774   8.935  1.0536 -0.4063 -1.6733
   24CHL1   C21 1754   4.562   5.617   9.025  0.5486  1.1750 -0.2339
   24CHL1  H21A 1755   4.579   5.556   8.934 -0.9249 -1.0487  0.9257
   24CHL1  H21B 1756   4.475   5.578   9.083  1.4441  0.4123  0.6189
   24CHL1  H21C 1757   4.658   5.607   9.080  0.9667  0.1469 -1.1371
   24CHL1   C22 1758   4.652   5.820   8.882 -0.3366 -0.4791  0.1355
   24CHL1  H22A 1759   4.653   5.931   8.878 -1.5157 -0.4025  1.5717
   24CHL1  H22B 1760   4.757   5.801   8.914 -0.1595 -1.2962 -0.9050
   24CHL1   C23 1761   4.639   5.760   8.743  0.3215 -0.6014  0.5745
   24CHL1  H23A 1762   4.651   5.650   8.755 -0.4379 -0.7905 -0.3194
   24CHL1  H23B 1763   4.533   5.779   8.716 -0.1976  0.8853  3.4712
   24CHL1   C24 1764   4.742   5.819   8.647  0.1309  0.1964  0.0199
   24CHL1  H24A 1765   4.704   5.922   8.631 -3.5392 -0.4820  3.5611
   24CHL1  H24B 1766   4.844   5.822   8.689  0.8015  2.3566 -1.6188
   24CHL1   C25 1767   4.732   5.754   8.511 -0.3447 -0.1278 -0.2672
   24CHL1   H25 1768   4.632   5.780   8.471 -0.3250 -1.1083 -0.9731
   24CHL1   C26 1769   4.837   5.816   8.407 -0.0724 -0.4509 -0.5063
   24CHL1  H26A 1770   4.818   5.779   8.305  3.0122  0.7199 -1.5749
   24CHL1  H26B 1771   4.818   5.926   8.407  2.3996  0.0248 -1.6453
   24CHL1  H26C 1772   4.942   5.797   8.439 -0.8031 -1.3649  1.4751
   24CHL1   C27 1773   4.744   5.601   8.516 -0.3726 -1.0512  0.3809
   24CHL1  H27A 1774   4.652   5.553   8.556 -1.6860  1.4782  0.5278
   24CHL1  H27B 1775   4.753   5.564   8.412 -1.4018  0.1889 -0.1644
   24CHL1  H27C 1776   4.822   5.575   8.591 -0.6693  0.4717  1.2495
   25CHL1    C3 1777   5.621   0.506  10.239  0.8104  0.2947  0.6315
   25CHL1    H3 1778   5.639   0.616  10.239 -0.5379  0.5479  2.3106
   25CHL1    O3 1779   5.562   0.465  10.363  0.6380  0.2010  0.1454
   25CHL1   H3' 1780   5.546   0.371  10.352  2.8193 -0.3388  1.1610
   25CHL1    C4 1781   5.508   0.475  10.132  0.1715 -0.0912  0.3621
   25CHL1   H4A 1782   5.486   0.367  10.135 -3.7851  0.6282 -0.2204
   25CHL1   H4B 1783   5.420   0.536  10.164  0.8238 -0.3106  2.6950
   25CHL1    C5 1784   5.548   0.510   9.989  0.7023  0.3763  1.2886
   25CHL1    C6 1785   5.483   0.602   9.919  0.0389 -0.2303 -0.3872
   25CHL1    H6 1786   5.392   0.649   9.959  0.5844  1.4935 -1.1299
   25CHL1    C7 1787   5.512   0.623   9.774 -0.5690 -0.2421  0.2306
   25CHL1   H7A 1788   5.418   0.611   9.716 -0.5057 -1.5240  0.3704
   25CHL1   H7B 1789   5.546   0.727   9.755  1.1089 -0.8278 -0.0311
   25CHL1    C8 1790   5.616   0.524   9.708 -0.1176  0.2913  0.0970
   25CHL1    H8 1791   5.554   0.433   9.693  0.3614 -0.2762  1.5111
   25CHL1   C14 1792   5.670   0.576   9.576  0.0553 -0.6830  0.4643
   25CHL1   H14 1793   5.722   0.670   9.604 -3.0244  1.1845  0.0625
   25CHL1   C15 1794   5.566   0.615   9.465  0.2852  0.1191 -0.3934
   25CHL1  H15A 1795   5.494   0.531   9.461 -1.5794  1.6240  0.6963
   25CHL1  H15B 1796   5.519   0.713   9.486 -1.2111 -0.9574  1.3785
   25CHL1   C16 1797   5.652   0.633   9.337 -0.4386  0.0820  1.3737
   25CHL1  H16A 1798   5.604   0.566   9.262  1.1034 -0.3073  0.7288
   25CHL1  H16B 1799   5.676   0.737   9.304 -4.8128  1.2345  1.4634
   25CHL1   C17 1800   5.796   0.572   9.376 -0.3291 -0.5860  0.3118
   25CHL1   H17 1801   5.855   0.663   9.401  0.3861 -0.5828 -1.3395
   25CHL1   C13 1802   5.772   0.492   9.502  0.1321 -0.3099  0.1497
   25CHL1   C18 1803   5.713   0.357   9.460  0.7847  0.0923 -0.2094
   25CHL1  H18A 1804   5.641   0.381   9.379  1.3931  0.5920 -0.6121
   25CHL1  H18B 1805   5.792   0.297   9.410  1.5235 -0.3529  1.4456
   25CHL1  H18C 1806   5.667   0.301   9.544 -1.3392 -0.1513 -1.5018
   25CHL1   C12 1807   5.894   0.466   9.599  0.5594  0.0477  0.1222
   25CHL1  H12A 1808   5.971   0.411   9.540  0.7757  0.3550  0.1153
   25CHL1  H12B 1809   5.934   0.567   9.618  1.3266  0.0225 -1.2488
   25CHL1   C11 1810   5.840   0.408   9.730  0.0144  0.8053  0.0271
   25CHL1  H11A 1811   5.801   0.305   9.717  0.4769  0.3432  2.0056
   25CHL1  H11B 1812   5.922   0.392   9.804  0.9449  0.5478 -1.0499
   25CHL1    C9 1813   5.733   0.497   9.801  0.2722  0.0397  0.0783
   25CHL1    H9 1814   5.791   0.592   9.810  0.4281  0.2121 -2.3701
   25CHL1   C10 1815   5.679   0.440   9.938  0.2720 -0.1180  0.1394
   25CHL1   C19 1816   5.644   0.289   9.924 -0.0846  0.0478  0.0171
   25CHL1  H19A 1817   5.613   0.245  10.021 -1.3747  2.0371  0.5326
   25CHL1  H19B 1818   5.571   0.267   9.843  0.7693 -0.6286 -0.5721
   25CHL1  H19C 1819   5.734   0.231   9.893 -2.0301 -1.6167 -2.7793
   25CHL1    C1 1820   5.787   0.458  10.057 -0.0092  0.2032  0.0995
   25CHL1   H1A 1821   5.874   0.401  10.018 -0.3327  2.1250 -3.7003
   25CHL1   H1B 1822   5.809   0.567  10.054 -2.1588  0.6674  0.2100
   25CHL1    C2 1823   5.742   0.421  10.199 -0.0688  0.2156  0.0775
   25CHL1   H2A 1824   5.833   0.435  10.263 -1.6761  0.9569  2.2661
   25CHL1   H2B 1825   5.720   0.312  10.209  1.4451 -0.1239 -0.1752
   25CHL1   C20 1826   5.863   0.516   9.246  0.8219  0.4776  0.4549
   25CHL1   H20 1827   5.784   0.449   9.207  1.5478 -0.5145  0.6719
   25CHL1   C21 1828   5.986   0.433   9.278  0.5029 -0.1987  0.4964
   25CHL1  H21A 1829   5.961   0.346   9.343 -0.1196 -1.4462 -1.3582
   25CHL1  H21B 1830   6.067   0.484   9.334 -0.4507  0.2257  1.5006
   25CHL1  H21C 1831   6.022   0.379   9.187 -2.5761 -0.7943 -0.4362
   25CHL1   C22 1832   5.914   0.630   9.148  0.1274  0.3655  0.4744
   25CHL1  H22A 1833   5.826   0.697   9.133  1.1114  1.4042 -0.7968
   25CHL1  H22B 1834   5.988   0.674   9.218  0.2426  0.0486  0.5537
   25CHL1   C23 1835   5.962   0.573   9.020  0.4312  0.0189 -0.1954
   25CHL1  H23A 1836   6.050   0.506   9.033 -0.3278 -0.8906  0.3330
   25CHL1  H23B 1837   5.875   0.520   8.976  1.1699 -0.2428 -1.3648
   25CHL1   C24 1838   6.001   0.697   8.928  1.0762  0.4424  0.0455
   25CHL1  H24A 1839   5.904   0.730   8.884  2.1109  1.3651 -1.6065
   25CHL1  H24B 1840   6.056   0.772   8.989  0.1352 -0.1800  1.6787
   25CHL1   C25 1841   6.080   0.660   8.804 -0.0616  0.0375 -0.2678
   25CHL1   H25 1842   6.060   0.554   8.776  1.5051 -0.8876  1.9288
   25CHL1   C26 1843   6.036   0.740   8.683  0.0383 -0.4632 -0.5043
   25CHL1  H26A 1844   6.077   0.843   8.690 -0.4002 -0.4688  2.8273
   25CHL1  H26B 1845   6.066   0.696   8.586  1.6729  1.0723 -0.7196
   25CHL1  H26C 1846   5.926   0.755   8.674  0.0410 -0.7911 -1.1231
   25CHL1   C27 1847   6.232   0.672   8.830 -0.4686  0.1297 -0.0065
   25CHL1  H27A 1848   6.289   0.638   8.741  0.8623 -1.3674  1.3827
   25CHL1  H27B 1849   6.250   0.778   8.858 -1.0172 -0.4481  2.6596
   25CHL1  H27C 1850   6.257   0.605   8.915 -1.5825  0.7471  0.8211
   26CHL1    C3 1851   6.383   3.802  10.205  0.5493  0.0482 -0.0751
   26CHL1    H3 1852   6.272   3.806  10.197  0.5500 -1.0601 -0.7657
   26CHL1    O3 1853   6.408   3.841  10.345  0.2146  0.1008 -0.0486
   26CHL1   H3' 1854   6.488   3.793  10.367  0.2431  0.2793  0.2373
   26CHL1    C4 1855   6.439   3.662  10.181 -0.2697  0.7995  0.0773
   26CHL1   H4A 1856   6.546   3.655  10.209  0.2483 -1.5917 -2.3043
   26CHL1   H4B 1857   6.382   3.599  10.253  0.7652 -0.7596 -0.4503
   26CHL1    C5 1858   6.414   3.617  10.039 -0.6738  0.5685  0.2816
   26CHL1    C6 1859   6.340   3.507  10.010 -0.0064  0.5642  0.4006
   26CHL1    H6 1860   6.309   3.447  10.097 -1.2328  0.2301 -0.2670
   26CHL1    C7 1861   6.322   3.440   9.878  0.0432  0.0903 -0.2797
   26CHL1   H7A 1862   6.350   3.335   9.900  0.0576  0.2496  0.4577
   26CHL1   H7B 1863   6.219   3.449   9.838  0.4321  0.4847 -1.2024
   26CHL1    C8 1864   6.420   3.500   9.773 -0.0372 -0.2821 -0.3803
   26CHL1    H8 1865   6.521   3.461   9.800 -0.3177  0.2659  1.5212
   26CHL1   C14 1866   6.382   3.456   9.634 -0.2627  0.3617  0.6913
   26CHL1   H14 1867   6.281   3.502   9.624  1.0554  3.2429 -0.2055
   26CHL1   C15 1868   6.369   3.301   9.616 -0.4287 -0.4924 -0.2069
   26CHL1  H15A 1869   6.468   3.262   9.646 -0.0924 -1.4608 -2.4475
   26CHL1  H15B 1870   6.282   3.251   9.663  0.9662 -1.4395  1.4010
   26CHL1   C16 1871   6.375   3.295   9.463  0.0707  0.4171  0.3783
   26CHL1  H16A 1872   6.451   3.222   9.430 -1.5910 -1.3246  0.2947
   26CHL1  H16B 1873   6.282   3.265   9.409  0.0102  0.1306  0.6407
   26CHL1   C17 1874   6.405   3.437   9.406 -0.0316 -0.3496  0.4616
   26CHL1   H17 1875   6.304   3.478   9.385 -0.2230 -1.0614 -0.0126
   26CHL1   C13 1876   6.469   3.513   9.520 -0.5185  0.1183 -1.1528
   26CHL1   C18 1877   6.618   3.471   9.534 -0.3881  0.0639 -0.0614
   26CHL1  H18A 1878   6.669   3.507   9.626 -1.3315  1.1310  0.0524
   26CHL1  H18B 1879   6.613   3.360   9.534  2.0246 -0.0733  0.5037
   26CHL1  H18C 1880   6.686   3.496   9.450 -0.1928  2.1333  0.6982
   26CHL1   C12 1881   6.444   3.666   9.520  0.2351  0.1192 -0.4433
   26CHL1  H12A 1882   6.510   3.708   9.441  1.3554 -2.4681 -0.9175
   26CHL1  H12B 1883   6.341   3.683   9.482  0.4604  0.0143 -1.1072
   26CHL1   C11 1884   6.489   3.727   9.655 -0.1792  0.6168 -0.4891
   26CHL1  H11A 1885   6.600   3.722   9.660 -0.2529  0.0440  0.7619
   26CHL1  H11B 1886   6.462   3.834   9.663  0.6001  0.7328  0.7715
   26CHL1    C9 1887   6.422   3.658   9.778  0.4581 -0.4131  0.2003
   26CHL1    H9 1888   6.316   3.689   9.788  0.7747  0.3239  1.3604
   26CHL1   C10 1889   6.476   3.705   9.924 -0.0163  0.5237  0.5066
   26CHL1   C19 1890   6.634   3.689   9.934 -0.0333 -0.0258  0.1124
   26CHL1  H19A 1891   6.694   3.740   9.855  1.5666 -0.4021  1.0530
   26CHL1  H19B 1892   6.667   3.723  10.034  3.1005 -0.9356 -0.5599
   26CHL1  H19C 1893   6.645   3.579   9.921  2.3309  0.1299  0.4646
   26CHL1    C1 1894   6.428   3.851   9.960  0.1976  0.5004 -0.1281
   26CHL1   H1A 1895   6.473   3.923   9.889 -1.7758  1.3887 -0.4959
   26CHL1   H1B 1896   6.320   3.865   9.938 -0.2541 -1.9449  0.3486
   26CHL1    C2 1897   6.447   3.900  10.111  0.1533 -0.0043  0.5465
   26CHL1   H2A 1898   6.424   4.007  10.123  0.8334 -0.0443  2.4722
   26CHL1   H2B 1899   6.557   3.897  10.132 -0.4987 -0.1473  4.3479
   26CHL1   C20 1900   6.486   3.438   9.278 -0.2618  0.5817  0.2045
   26CHL1   H20 1901   6.589   3.400   9.296 -0.1942  2.0242  3.0598
   26CHL1   C21 1902   6.484   3.580   9.223 -1.1115  0.4582 -0.3971
   26CHL1  H21A 1903   6.555   3.655   9.264 -0.5117 -0.3220  0.0025
   26CHL1  H21B 1904   6.386   3.625   9.247 -1.3362 -1.1613  1.8624
   26CHL1  H21C 1905   6.520   3.583   9.118  0.4998 -1.1238  0.0892
   26CHL1   C22 1906   6.427   3.343   9.162 -0.1185 -0.3594 -0.1233
   26CHL1  H22A 1907   6.400   3.250   9.216 -0.6354  0.5930  1.2737
   26CHL1  H22B 1908   6.331   3.389   9.129 -1.2287 -1.2433  1.8038
   26CHL1   C23 1909   6.527   3.314   9.050  0.8750 -0.1841 -0.6736
   26CHL1  H23A 1910   6.565   3.408   9.006  0.3353 -0.0598 -0.8817
   26CHL1  H23B 1911   6.619   3.266   9.091  1.4465 -0.7922 -2.6124
   26CHL1   C24 1912   6.457   3.222   8.946  0.4502 -0.2110 -0.3855
   26CHL1  H24A 1913   6.431   3.121   8.984  0.0294 -0.1521 -0.5187
   26CHL1  H24B 1914   6.371   3.280   8.907  1.0352  1.3887  0.6584
   26CHL1   C25 1915   6.539   3.196   8.821 -0.7214 -0.1073  0.4325
   26CHL1   H25 1916   6.577   3.297   8.794  3.7185 -1.5190  0.9363
   26CHL1   C26 1917   6.664   3.114   8.854  0.1165 -0.1088 -0.4936
   26CHL1  H26A 1918   6.644   3.005   8.860  0.9675 -0.4043 -2.6359
   26CHL1  H26B 1919   6.743   3.130   8.778  2.8423 -1.1302  2.0247
   26CHL1  H26C 1920   6.711   3.140   8.952 -1.4874 -0.9759  0.5332
   26CHL1   C27 1921   6.466   3.130   8.709  0.0507  0.1509 -0.0170
   26CHL1  H27A 1922   6.443   3.024   8.733 -0.1257  0.4385  1.1414
   26CHL1  H27B 1923   6.368   3.180   8.696 -0.9819 -1.9445 -0.6183
   26CHL1  H27C 1924   6.527   3.138   8.616  0.5107 -0.1107  0.2539
   27CHL1    C3 1925   6.323   0.825  10.226  0.1825  0.6761 -0.7188
   27CHL1    H3 1926   6.228   0.879  10.206 -0.9690 -0.6872  0.9961
   27CHL1    O3 1927   6.328   0.796  10.367 -0.0599  0.2949 -0.0797
   27CHL1   H3' 1928   6.388   0.859  10.408  0.2206  0.0893 -0.1775
   27CHL1    C4 1929   6.314   0.689  10.149  0.2347  0.5313  0.1603
   27CHL1   H4A 1930   6.393   0.623  10.191  0.4399  0.8213  0.2297
   27CHL1   H4B 1931   6.214   0.650  10.177 -0.0879  2.5334  1.9785
   27CHL1    C5 1932   6.321   0.709  10.008 -0.1121 -0.6779  0.7342
   27CHL1    C6 1933   6.224   0.659   9.928 -0.4284 -0.7812 -0.9611
   27CHL1    H6 1934   6.149   0.591   9.972 -1.2020 -0.0294 -1.1090
   27CHL1    C7 1935   6.229   0.662   9.775 -0.7968 -0.3353 -0.0620
   27CHL1   H7A 1936   6.207   0.559   9.739  0.1099  0.2376 -2.3269
   27CHL1   H7B 1937   6.151   0.730   9.733 -0.6654 -0.4380 -0.4742
   27CHL1    C8 1938   6.375   0.708   9.719  0.1501 -0.3315  0.7306
   27CHL1    H8 1939   6.440   0.619   9.728 -1.2083 -1.4938 -0.5798
   27CHL1   C14 1940   6.371   0.753   9.573 -0.3830 -1.0393 -0.1593
   27CHL1   H14 1941   6.310   0.845   9.579  1.3213  0.0823  0.3206
   27CHL1   C15 1942   6.298   0.656   9.474 -0.0659 -0.5337 -0.6473
   27CHL1  H15A 1943   6.330   0.550   9.474 -1.9413 -1.1331  0.7827
   27CHL1  H15B 1944   6.188   0.673   9.469  0.5546  3.5860 -2.0329
   27CHL1   C16 1945   6.352   0.713   9.337  0.0785  0.3615 -0.7225
   27CHL1  H16A 1946   6.404   0.633   9.282 -0.3091 -1.6955  1.8067
   27CHL1  H16B 1947   6.264   0.756   9.283 -2.0995 -1.2037  1.4566
   27CHL1   C17 1948   6.465   0.819   9.364  0.0285 -0.3107  0.5983
   27CHL1   H17 1949   6.406   0.913   9.368 -1.7090 -1.4575  2.4201
   27CHL1   C13 1950   6.505   0.799   9.512  0.3349 -0.1901  0.3619
   27CHL1   C18 1951   6.610   0.682   9.521  0.2061 -0.3308  0.1687
   27CHL1  H18A 1952   6.636   0.663   9.628 -1.0009 -0.4384  0.4449
   27CHL1  H18B 1953   6.558   0.591   9.485 -1.6363 -0.3662  2.7711
   27CHL1  H18C 1954   6.699   0.708   9.459  0.4974 -1.1695  0.2380
   27CHL1   C12 1955   6.554   0.921   9.596  0.2330 -0.6948  0.1996
   27CHL1  H12A 1956   6.645   0.957   9.545 -0.0458  0.5471  0.5553
   27CHL1  H12B 1957   6.480   1.003   9.580  0.4526 -1.0001 -2.5239
   27CHL1   C11 1958   6.566   0.900   9.747  0.0232  0.0606 -0.2391
   27CHL1  H11A 1959   6.658   0.841   9.762  0.8623  1.2146 -0.7798
   27CHL1  H11B 1960   6.593   0.993   9.802  0.4913 -0.3193  0.1708
   27CHL1    C9 1961   6.439   0.824   9.808 -0.1576 -0.5230 -0.9485
   27CHL1    H9 1962   6.366   0.908   9.797 -0.4669 -0.2643  2.3519
   27CHL1   C10 1963   6.445   0.789   9.958  0.0275  0.3730  0.4863
   27CHL1   C19 1964   6.574   0.698   9.988 -0.1030 -0.4048  0.1662
   27CHL1  H19A 1965   6.568   0.614   9.915 -3.4582 -2.5229  2.6729
   27CHL1  H19B 1966   6.670   0.748   9.966 -0.3162  1.0340  2.3540
   27CHL1  H19C 1967   6.570   0.638  10.082  1.3665 -1.6845 -0.5735
   27CHL1    C1 1968   6.454   0.925  10.037  0.3428  0.0716  0.2769
   27CHL1   H1A 1969   6.549   0.976  10.010  1.9468 -1.6346  2.6048
   27CHL1   H1B 1970   6.363   0.988  10.026  1.0902  1.1722  0.3450
   27CHL1    C2 1971   6.452   0.902  10.189 -0.0947 -0.3543 -0.6130
   27CHL1   H2A 1972   6.456   1.000  10.241 -1.3001  1.0348 -3.0607
   27CHL1   H2B 1973   6.545   0.844  10.211  0.4845  0.6933 -0.2819
   27CHL1   C20 1974   6.574   0.839   9.257  0.2318 -0.4069 -0.0463
   27CHL1   H20 1975   6.647   0.756   9.258  1.7126  0.8952  1.4762
   27CHL1   C21 1976   6.652   0.967   9.299  0.6471  0.3152 -0.4726
   27CHL1  H21A 1977   6.585   1.043   9.347 -0.4140 -0.8821 -0.0285
   27CHL1  H21B 1978   6.694   1.018   9.210  1.5304  0.0926 -0.1880
   27CHL1  H21C 1979   6.739   0.940   9.362  0.0086 -0.4620  0.0896
   27CHL1   C22 1980   6.510   0.849   9.116 -0.2362  0.0937  0.1358
   27CHL1  H22A 1981   6.444   0.764   9.090  3.8175 -2.8737 -0.8926
   27CHL1  H22B 1982   6.452   0.944   9.115 -3.2491 -1.6858 -0.9788
   27CHL1   C23 1983   6.616   0.848   9.007  0.4296 -0.0981 -0.1370
   27CHL1  H23A 1984   6.666   0.946   8.993  2.1251 -0.7046  1.4566
   27CHL1  H23B 1985   6.697   0.782   9.044  1.9969  1.6986 -0.3105
   27CHL1   C24 1986   6.575   0.792   8.869  0.0752  0.3563  0.3168
   27CHL1  H24A 1987   6.538   0.688   8.883  0.4418  0.2458  0.4754
   27CHL1  H24B 1988   6.491   0.853   8.829  0.0248  1.3316  1.8733
   27CHL1   C25 1989   6.683   0.792   8.770 -0.0679  0.1483  0.4897
   27CHL1   H25 1990   6.759   0.860   8.814  0.8860 -1.3232  1.1688
   27CHL1   C26 1991   6.762   0.663   8.752 -0.0719 -0.0415  0.0935
   27CHL1  H26A 1992   6.706   0.580   8.703  1.6815 -2.0127  1.3126
   27CHL1  H26B 1993   6.841   0.697   8.681 -1.3231  2.7096 -0.0288
   27CHL1  H26C 1994   6.804   0.627   8.848  0.1881  0.5142  0.1833
   27CHL1   C27 1995   6.643   0.853   8.633  0.2987 -0.1242  0.3949
   27CHL1  H27A 1996   6.558   0.802   8.583 -0.1329  0.1347  0.8520
   27CHL1  H27B 1997   6.609   0.958   8.653  1.4190 -0.0844  2.2439
   27CHL1  H27C 1998   6.729   0.854   8.563 -0.4452  1.4193 -0.5244
   28CHL1    C3 1999   5.950   5.698   9.939 -0.0810  0.2904 -0.1172
   28CHL1    H3 2000   6.058   5.677   9.929  0.0203  1.1771 -1.0244
   28CHL1    O3 2001   5.924   5.705  10.076  0.1961  0.1086  0.1766
   28CHL1   H3' 2002   5.941   5.796  10.104 -1.0465  0.2302  0.5676
   28CHL1    C4 2003   5.905   5.834   9.874  0.6344  0.1451  0.3325
   28CHL1   H4A 2004   5.803   5.849   9.916  0.9417  0.4178  0.9824
   28CHL1   H4B 2005   5.970   5.918   9.904 -1.3349  1.5791  0.6707
   28CHL1    C5 2006   5.917   5.826   9.720 -0.3225 -0.8922  0.3177
   28CHL1    C6 2007   5.987   5.919   9.652  0.2659 -0.2661  0.5833
   28CHL1    H6 2008   6.031   6.000   9.711  0.6244 -1.7344  2.3683
   28CHL1    C7 2009   5.996   5.923   9.507  0.1245  0.0345 -0.2008
   28CHL1   H7A 2010   5.976   6.022   9.459 -2.0897  0.9667  2.4593
   28CHL1   H7B 2011   6.102   5.901   9.485  0.3166  0.6309  0.1215
   28CHL1    C8 2012   5.914   5.821   9.427  0.0422  0.8130  0.2474
   28CHL1    H8 2013   5.811   5.862   9.425 -0.5509 -0.5893  1.2367
   28CHL1   C14 2014   5.975   5.805   9.286 -0.2551 -0.0434 -0.5611
   28CHL1   H14 2015   6.081   5.775   9.304 -0.2172  0.2308 -0.3332
   28CHL1   C15 2016   5.997   5.933   9.203 -0.5870  0.0019  0.1115
   28CHL1  H15A 2017   5.896   5.977   9.190 -1.1294 -1.3700 -0.4336
   28CHL1  H15B 2018   6.065   6.008   9.249 -1.5510  0.8644  0.1392
   28CHL1   C16 2019   6.037   5.873   9.069 -0.6036  0.7212  0.5861
   28CHL1  H16A 2020   5.980   5.925   8.989 -0.2365 -0.8076 -0.7086
   28CHL1  H16B 2021   6.144   5.878   9.039 -0.6803  0.1173  0.1958
   28CHL1   C17 2022   5.993   5.725   9.067 -0.1395  0.2691 -0.2599
   28CHL1   H17 2023   6.076   5.654   9.085 -0.2987 -0.0107 -0.6215
   28CHL1   C13 2024   5.907   5.707   9.198  0.0050 -0.1334  0.1466
   28CHL1   C18 2025   5.762   5.744   9.177 -0.1169  0.6739 -0.2467
   28CHL1  H18A 2026   5.705   5.755   9.271  0.0699  0.6125 -0.1266
   28CHL1  H18B 2027   5.748   5.837   9.118 -0.0590 -0.3949 -1.9913
   28CHL1  H18C 2028   5.719   5.654   9.127  1.9910 -0.1455 -0.6305
   28CHL1   C12 2029   5.919   5.574   9.277 -0.2968  0.0363  0.5879
   28CHL1  H12A 2030   5.893   5.482   9.220  1.0692  0.4499 -0.7578
   28CHL1  H12B 2031   6.029   5.568   9.288 -0.2286  3.4376  2.4092
   28CHL1   C11 2032   5.848   5.576   9.416 -0.6242  0.2525  0.1323
   28CHL1  H11A 2033   5.739   5.588   9.394 -0.4515 -0.7047 -1.3404
   28CHL1  H11B 2034   5.871   5.484   9.472 -0.7677  0.5920  0.7547
   28CHL1    C9 2035   5.908   5.688   9.504 -0.2396 -0.4032  0.1902
   28CHL1    H9 2036   6.016   5.665   9.513 -0.3820 -0.8690  0.7540
   28CHL1   C10 2037   5.853   5.705   9.650  0.0437  0.4560 -0.2029
   28CHL1   C19 2038   5.701   5.719   9.634  0.4535  0.3185 -0.1898
   28CHL1  H19A 2039   5.669   5.819   9.598 -0.3522 -0.6210 -2.1620
   28CHL1  H19B 2040   5.662   5.644   9.562 -1.1212 -0.4380  1.4175
   28CHL1  H19C 2041   5.641   5.709   9.727  1.4026  4.6484  0.9797
   28CHL1    C1 2042   5.892   5.572   9.727  1.0785 -0.7158  0.4409
   28CHL1   H1A 2043   5.837   5.487   9.682 -1.6893  1.6544 -0.8608
   28CHL1   H1B 2044   6.000   5.556   9.707  1.2944  0.4425  0.6151
   28CHL1    C2 2045   5.872   5.581   9.876  0.3757  0.0352  0.9109
   28CHL1   H2A 2046   5.902   5.483   9.918  0.1211 -1.4817 -2.2793
   28CHL1   H2B 2047   5.765   5.596   9.902  0.1682 -0.9248  0.6067
   28CHL1   C20 2048   5.937   5.677   8.934  0.5350  0.0225  0.1993
   28CHL1   H20 2049   5.835   5.720   8.924  0.0818 -1.4622 -1.9082
   28CHL1   C21 2050   5.924   5.526   8.921 -0.6886 -0.0730  0.6611
   28CHL1  H21A 2051   6.022   5.475   8.913 -0.5171  0.4733 -0.9614
   28CHL1  H21B 2052   5.870   5.488   8.832 -0.2900  0.8731  0.0085
   28CHL1  H21C 2053   5.885   5.481   9.015  0.5793 -1.4875  0.5332
   28CHL1   C22 2054   6.025   5.731   8.821 -0.5123  0.1425  0.8253
   28CHL1  H22A 2055   6.008   5.841   8.814  0.3456  0.1850 -0.9353
   28CHL1  H22B 2056   6.130   5.711   8.853 -1.2280 -3.1861  1.2931
   28CHL1   C23 2057   5.980   5.676   8.684 -0.0196 -0.2583  0.5473
   28CHL1  H23A 2058   6.024   5.575   8.671  1.9916  0.6167  0.4093
   28CHL1  H23B 2059   5.871   5.658   8.674  0.0499 -0.8233  0.8029
   28CHL1   C24 2060   6.022   5.771   8.570 -0.1336  0.1614 -0.1376
   28CHL1  H24A 2061   5.943   5.775   8.492  2.0542  1.5824 -2.3903
   28CHL1  H24B 2062   6.024   5.875   8.610  1.3950  0.5651 -1.2027
   28CHL1   C25 2063   6.156   5.751   8.501 -0.1567  0.4360  0.2584
   28CHL1   H25 2064   6.144   5.657   8.443  1.1449 -0.4207  1.3288
   28CHL1   C26 2065   6.189   5.869   8.412  0.1048  0.7116 -0.1509
   28CHL1  H26A 2066   6.114   5.885   8.332 -1.6197 -1.0680  1.0569
   28CHL1  H26B 2067   6.186   5.962   8.473  0.6735 -0.2094  1.3056
   28CHL1  H26C 2068   6.285   5.866   8.356 -0.3682 -1.2224 -0.8712
   28CHL1   C27 2069   6.281   5.724   8.596 -0.6808 -0.1177  0.2025
   28CHL1  H27A 2070   6.289   5.794   8.682 -0.1115  2.7850 -2.1319
   28CHL1  H27B 2071   6.292   5.621   8.635 -1.8470  0.6315  2.6440
   28CHL1  H27C 2072   6.373   5.734   8.535  0.9155 -0.2706  2.5264
   29CHL1    C3 2073   0.384   3.808   6.649  0.3694  0.3727  0.2858
   29CHL1    H3 2074   0.281   3.818   6.690  0.3784  0.7716  0.2196
   29CHL1    O3 2075   0.391   3.793   6.502 -0.2364  0.1448 -0.1627
   29CHL1   H3' 2076   0.339   3.867   6.469  0.1923  0.2067 -0.7109
   29CHL1    C4 2077   0.453   3.942   6.692 -0.4125  0.0593  0.5541
   29CHL1   H4A 2078   0.550   3.955   6.640 -0.0954 -0.4651  1.0085
   29CHL1   H4B 2079   0.384   4.013   6.643 -0.5402 -0.9872 -0.8221
   29CHL1    C5 2080   0.492   3.969   6.840  0.5518  0.0718  0.1932
   29CHL1    C6 2081   0.442   4.082   6.899  0.5218 -0.5586 -0.4146
   29CHL1    H6 2082   0.374   4.147   6.842 -0.6096 -0.9373  0.4883
   29CHL1    C7 2083   0.464   4.113   7.042 -0.1585 -0.5088 -0.4659
   29CHL1   H7A 2084   0.515   4.210   7.060 -0.9646 -0.2541  0.4340
   29CHL1   H7B 2085   0.366   4.114   7.093  0.8816 -0.6485  1.6035
   29CHL1    C8 2086   0.560   4.012   7.114  0.8692 -0.2094 -0.0881
   29CHL1    H8 2087   0.658   4.032   7.066 -1.0537 -0.7694 -4.5076
   29CHL1   C14 2088   0.552   4.017   7.271 -0.6871 -0.0661 -0.4142
   29CHL1   H14 2089   0.447   3.990   7.295 -0.9029  3.1078  2.4574
   29CHL1   C15 2090   0.570   4.154   7.341  0.9234  0.3033  0.5125
   29CHL1  H15A 2091   0.646   4.219   7.293  1.0195 -0.9323 -1.0125
   29CHL1  H15B 2092   0.472   4.206   7.336  0.5557 -0.3114  1.2027
   29CHL1   C16 2093   0.611   4.113   7.490  0.1247  0.1619 -0.7068
   29CHL1  H16A 2094   0.716   4.146   7.506  0.1702 -0.5606  0.4699
   29CHL1  H16B 2095   0.534   4.148   7.561 -1.3940 -2.1266 -1.1837
   29CHL1   C17 2096   0.619   3.962   7.490  0.2531  0.3612 -0.5672
   29CHL1   H17 2097   0.514   3.935   7.514 -0.6361  0.5534 -4.0728
   29CHL1   C13 2098   0.649   3.921   7.343 -0.1812  0.6819  0.8460
   29CHL1   C18 2099   0.802   3.962   7.317 -0.1073  0.4865  0.0631
   29CHL1  H18A 2100   0.852   3.868   7.349 -0.6510  0.4703  0.8653
   29CHL1  H18B 2101   0.830   3.973   7.210 -0.9338 -0.5997 -0.2692
   29CHL1  H18C 2102   0.835   4.053   7.372  3.0073 -1.2178  1.1344
   29CHL1   C12 2103   0.615   3.777   7.294  0.8265  0.4471  0.2936
   29CHL1  H12A 2104   0.687   3.703   7.335 -0.9915 -1.8537 -0.4977
   29CHL1  H12B 2105   0.510   3.753   7.323  0.9133 -0.8250 -0.3833
   29CHL1   C11 2106   0.633   3.766   7.143 -0.1893  0.2138 -0.2313
   29CHL1  H11A 2107   0.736   3.788   7.108 -0.6726  1.3037 -1.0167
   29CHL1  H11B 2108   0.594   3.666   7.113 -0.8515 -0.2427  2.0630
   29CHL1    C9 2109   0.542   3.863   7.066  0.0907  0.7368  0.3353
   29CHL1    H9 2110   0.439   3.839   7.102  0.1789 -0.2762 -0.0689
   29CHL1   C10 2111   0.550   3.847   6.912 -0.0476  0.7339  0.2950
   29CHL1   C19 2112   0.701   3.834   6.870  0.0937  0.0986  0.6234
   29CHL1  H19A 2113   0.755   3.750   6.918  1.1297  1.3584  1.7168
   29CHL1  H19B 2114   0.702   3.804   6.764 -2.3771  0.4286  0.4701
   29CHL1  H19C 2115   0.757   3.929   6.879  0.0780 -0.0358  2.4601
   29CHL1    C1 2116   0.469   3.714   6.872 -0.4035  0.2448  0.3111
   29CHL1   H1A 2117   0.517   3.627   6.921  0.8658  1.4850  1.3126
   29CHL1   H1B 2118   0.369   3.731   6.916 -0.5606 -1.1440  0.5160
   29CHL1    C2 2119   0.449   3.690   6.725 -0.1953  0.0742 -0.3625
   29CHL1   H2A 2120   0.392   3.599   6.696 -0.0296 -0.0149 -0.4102
   29CHL1   H2B 2121   0.545   3.679   6.670  0.4255 -1.6416  1.0038
   29CHL1   C20 2122   0.713   3.905   7.599  0.2013 -0.0690  0.3579
   29CHL1   H20 2123   0.816   3.905   7.557  0.0103 -0.2445 -0.1101
   29CHL1   C21 2124   0.684   3.763   7.632  0.5159  0.6070  0.9830
   29CHL1  H21A 2125   0.757   3.740   7.713  0.5531 -1.4197  0.4109
   29CHL1  H21B 2126   0.709   3.690   7.552 -0.2980  0.7553  0.5914
   29CHL1  H21C 2127   0.580   3.745   7.667 -0.6174  0.1785 -2.3915
   29CHL1   C22 2128   0.708   3.980   7.730  0.7346 -0.0669  0.2194
   29CHL1  H22A 2129   0.797   3.942   7.786  0.2057  0.4110  1.3818
   29CHL1  H22B 2130   0.730   4.085   7.702 -1.4262  0.4948  0.5390
   29CHL1   C23 2131   0.579   3.965   7.814 -0.2374  0.4207 -0.4140
   29CHL1  H23A 2132   0.489   4.003   7.762 -0.3511  0.2676 -0.3313
   29CHL1  H23B 2133   0.569   3.857   7.839 -1.8809  0.9885  1.5650
   29CHL1   C24 2134   0.590   4.046   7.942 -0.2697  0.0289 -0.4025
   29CHL1  H24A 2135   0.666   4.007   8.014 -1.6837  1.4814  1.9585
   29CHL1  H24B 2136   0.617   4.145   7.900  0.4511  0.2014  0.4416
   29CHL1   C25 2137   0.459   4.057   8.016 -0.2740 -0.1679 -0.9853
   29CHL1   H25 2138   0.388   4.110   7.948 -0.6133  0.1590 -0.3870
   29CHL1   C26 2139   0.406   3.925   8.065 -0.9655  0.3679  0.8935
   29CHL1  H26A 2140   0.483   3.872   8.125 -0.1447 -0.7637 -1.1329
   29CHL1  H26B 2141   0.305   3.935   8.111 -1.4983  0.4641 -0.2942
   29CHL1  H26C 2142   0.399   3.868   7.970  3.9007 -1.6422  1.5897
   29CHL1   C27 2143   0.482   4.149   8.130 -0.2174  0.0858 -0.4552
   29CHL1  H27A 2144   0.386   4.165   8.184 -1.5265 -4.0419 -1.4079
   29CHL1  H27B 2145   0.551   4.102   8.203  0.0819 -0.7268 -1.2681
   29CHL1  H27C 2146   0.511   4.252   8.098  1.0698 -0.6082 -1.5299
   30CHL1    C3 2147   5.454   3.396   7.224 -0.0028  0.0165 -0.9698
   30CHL1    H3 2148   5.387   3.481   7.201 -0.4707  0.1780  0.9270
   30CHL1    O3 2149   5.490   3.335   7.111 -0.6926  0.6858 -0.1508
   30CHL1   H3' 2150   5.496   3.404   7.045 -0.8012  0.6886 -0.1583
   30CHL1    C4 2151   5.586   3.453   7.293 -0.1006 -0.7824 -0.2101
   30CHL1   H4A 2152   5.666   3.376   7.304 -2.4823 -3.5026 -1.0781
   30CHL1   H4B 2153   5.628   3.528   7.223  0.5713  0.0404  1.0638
   30CHL1    C5 2154   5.560   3.504   7.429 -0.1451  0.3168  1.2379
   30CHL1    C6 2155   5.597   3.631   7.465 -0.1087  0.5183  0.2645
   30CHL1    H6 2156   5.648   3.691   7.389 -2.4768  0.2029 -1.6257
   30CHL1    C7 2157   5.570   3.700   7.595 -0.8491  0.4264  0.6703
   30CHL1   H7A 2158   5.655   3.759   7.634 -0.2946  1.7445 -2.3979
   30CHL1   H7B 2159   5.481   3.766   7.592 -0.0932  1.3871 -1.1646
   30CHL1    C8 2160   5.557   3.589   7.702  1.0825 -0.1484  0.2794
   30CHL1    H8 2161   5.657   3.542   7.708  1.8559  1.4465  0.1739
   30CHL1   C14 2162   5.513   3.647   7.840  0.3176 -0.1756  0.0935
   30CHL1   H14 2163   5.420   3.706   7.823  1.1775  0.9952 -0.6963
   30CHL1   C15 2164   5.614   3.753   7.897  0.1113 -0.1911  0.3885
   30CHL1  H15A 2165   5.714   3.704   7.894  0.2890  0.2372 -1.2284
   30CHL1  H15B 2166   5.619   3.850   7.844 -1.0213  0.5210  1.5672
   30CHL1   C16 2167   5.577   3.766   8.041 -0.0973  0.6030 -0.8013
   30CHL1  H16A 2168   5.654   3.738   8.117 -1.2184 -0.1033  0.0919
   30CHL1  H16B 2169   5.519   3.859   8.058  2.5495  2.2161 -0.1542
   30CHL1   C17 2170   5.464   3.653   8.070 -0.1217  0.5403  0.8629
   30CHL1   H17 2171   5.367   3.706   8.058  0.0602  0.7254  0.1392
   30CHL1   C13 2172   5.489   3.553   7.955  0.6410 -0.1621  0.2186
   30CHL1   C18 2173   5.614   3.463   7.985  0.2969 -0.1921 -0.1841
   30CHL1  H18A 2174   5.645   3.402   7.897 -0.4450  1.0911 -1.3671
   30CHL1  H18B 2175   5.706   3.515   8.019  0.5160  1.0321 -2.5498
   30CHL1  H18C 2176   5.581   3.386   8.058 -1.4700  0.5748 -0.1409
   30CHL1   C12 2177   5.371   3.464   7.905 -0.3792  0.0364 -0.2300
   30CHL1  H12A 2178   5.341   3.382   7.973 -0.1858 -0.4858 -0.7685
   30CHL1  H12B 2179   5.286   3.535   7.892 -0.6981 -0.2199  0.4817
   30CHL1   C11 2180   5.396   3.399   7.769  0.1571  0.8517  0.4688
   30CHL1  H11A 2181   5.462   3.312   7.789 -0.5517 -0.2107 -1.6984
   30CHL1  H11B 2182   5.294   3.360   7.745  0.1516 -0.0407  1.8672
   30CHL1    C9 2183   5.449   3.488   7.661 -0.2719  0.4192  0.1192
   30CHL1    H9 2184   5.361   3.552   7.639 -0.8398 -0.5445 -0.4643
   30CHL1   C10 2185   5.488   3.413   7.530 -0.1788  0.9680 -0.0093
   30CHL1   C19 2186   5.597   3.307   7.569  0.7275  0.3201  0.2849
   30CHL1  H19A 2187   5.676   3.360   7.626  1.3207  1.6441 -1.7417
   30CHL1  H19B 2188   5.551   3.220   7.622  0.5904  0.3952  0.2892
   30CHL1  H19C 2189   5.634   3.261   7.475 -1.0043  0.6101 -0.5592
   30CHL1    C1 2190   5.365   3.359   7.461  0.2494  0.0234 -0.8158
   30CHL1   H1A 2191   5.321   3.279   7.524 -1.2706  2.2423  0.9829
   30CHL1   H1B 2192   5.290   3.439   7.451 -1.6363 -1.6430 -0.2899
   30CHL1    C2 2193   5.384   3.294   7.324  0.6004  0.5863 -0.9775
   30CHL1   H2A 2194   5.285   3.267   7.282 -0.1966  2.1976 -0.1698
   30CHL1   H2B 2195   5.451   3.207   7.343  0.6338  0.5798 -1.1225
   30CHL1   C20 2196   5.459   3.613   8.216  0.6216 -0.3269 -0.1602
   30CHL1   H20 2197   5.561   3.575   8.238 -0.0894 -1.3001  1.5508
   30CHL1   C21 2198   5.359   3.501   8.244  0.2112  0.5056 -0.5553
   30CHL1  H21A 2199   5.376   3.409   8.185 -0.8178 -0.6435  0.8943
   30CHL1  H21B 2200   5.256   3.539   8.226 -1.2039 -3.4873 -1.3018
   30CHL1  H21C 2201   5.347   3.464   8.348  2.1170  0.6922 -0.2511
   30CHL1   C22 2202   5.415   3.737   8.303  0.5324 -0.1249  0.1092
   30CHL1  H22A 2203   5.496   3.812   8.293  1.4829 -1.1834 -0.1277
   30CHL1  H22B 2204   5.316   3.778   8.272  1.1595  0.7249 -0.7729
   30CHL1   C23 2205   5.410   3.704   8.449  0.1573  0.4751 -0.0994
   30CHL1  H23A 2206   5.321   3.639   8.463  0.0487  0.5711 -0.3296
   30CHL1  H23B 2207   5.502   3.653   8.484 -1.0667 -0.6667  1.4963
   30CHL1   C24 2208   5.392   3.834   8.524 -0.1153 -0.5966  0.1942
   30CHL1  H24A 2209   5.478   3.900   8.500  0.8286 -1.1690  1.8997
   30CHL1  H24B 2210   5.308   3.900   8.494 -0.1796 -1.3189 -1.2224
   30CHL1   C25 2211   5.371   3.821   8.674 -0.4613 -1.5052  0.1772
   30CHL1   H25 2212   5.285   3.752   8.675 -1.3084 -0.4669  2.5558
   30CHL1   C26 2213   5.489   3.750   8.741 -0.4575  0.6431  1.1785
   30CHL1  H26A 2214   5.574   3.821   8.731 -0.2044  0.4133  1.7008
   30CHL1  H26B 2215   5.464   3.728   8.847 -0.3173 -0.4830  0.9827
   30CHL1  H26C 2216   5.514   3.658   8.684  1.6589  2.8966 -1.7448
   30CHL1   C27 2217   5.342   3.948   8.749  0.5195  0.2134  0.3709
   30CHL1  H27A 2218   5.252   3.999   8.709  1.1586  0.8458 -0.2594
   30CHL1  H27B 2219   5.311   3.933   8.855  1.8946  1.6252  0.9984
   30CHL1  H27C 2220   5.428   4.018   8.741 -0.4028  1.3256  0.0797
   31CHL1    C3 2221   5.281   5.305   6.690  0.4605 -0.1141  0.1404
   31CHL1    H3 2222   5.385   5.268   6.700  0.8224  0.4531 -1.3422
   31CHL1    O3 2223   5.269   5.347   6.552  0.2303  0.5252 -0.1293
   31CHL1   H3' 2224   5.258   5.267   6.501 -0.3302  0.1815  0.5261
   31CHL1    C4 2225   5.169   5.196   6.720  0.1035 -0.0941  0.0363
   31CHL1   H4A 2226   5.081   5.258   6.691  2.1193  2.3726 -1.0104
   31CHL1   H4B 2227   5.192   5.116   6.647  0.5860  1.1083 -1.1418
   31CHL1    C5 2228   5.151   5.157   6.869  0.0033  0.0701  0.8207
   31CHL1    C6 2229   5.154   5.032   6.901 -0.4320 -1.2310 -0.0817
   31CHL1    H6 2230   5.154   4.961   6.818  0.0601 -1.3553  0.0209
   31CHL1    C7 2231   5.137   4.988   7.047 -0.0247 -0.3941 -0.5867
   31CHL1   H7A 2232   5.069   4.901   7.060  1.6021 -1.5740  0.2283
   31CHL1   H7B 2233   5.239   4.952   7.073  0.0091  1.8556  2.7383
   31CHL1    C8 2234   5.107   5.101   7.142 -0.1761  0.0113 -0.7394
   31CHL1    H8 2235   4.998   5.124   7.139 -0.0848  1.0372  2.4666
   31CHL1   C14 2236   5.147   5.057   7.287 -0.4017 -1.0471  0.0877
   31CHL1   H14 2237   5.257   5.059   7.276 -0.4407 -1.1191 -0.3432
   31CHL1   C15 2238   5.118   4.914   7.331 -1.1258 -0.2160 -0.3835
   31CHL1  H15A 2239   5.034   4.870   7.274 -0.2264 -0.4219 -1.5655
   31CHL1  H15B 2240   5.208   4.851   7.315 -1.1406 -0.1120 -0.8899
   31CHL1   C16 2241   5.110   4.921   7.480 -0.2932  0.3255  0.1042
   31CHL1  H16A 2242   5.007   4.894   7.511 -0.1771 -1.7840 -1.2384
   31CHL1  H16B 2243   5.168   4.846   7.538  0.8618  1.2418  0.1321
   31CHL1   C17 2244   5.137   5.066   7.515  0.3518  0.3674  0.0617
   31CHL1   H17 2245   5.248   5.073   7.505  0.4556 -0.9530  0.1455
   31CHL1   C13 2246   5.108   5.151   7.396  0.2414 -0.8334  0.7326
   31CHL1   C18 2247   4.955   5.180   7.395  0.0125 -0.0907  0.0029
   31CHL1  H18A 2248   4.925   5.239   7.306 -0.3905  0.8384  0.7491
   31CHL1  H18B 2249   4.899   5.084   7.398  1.0728 -0.7215  0.0821
   31CHL1  H18C 2250   4.937   5.232   7.491 -1.2605 -2.3695  1.0244
   31CHL1   C12 2251   5.193   5.283   7.373 -0.2625 -0.1033 -0.7224
   31CHL1  H12A 2252   5.159   5.366   7.438  0.2698 -3.2222  3.8197
   31CHL1  H12B 2253   5.296   5.256   7.404  0.3118 -0.4910 -2.8420
   31CHL1   C11 2254   5.174   5.335   7.230  0.1197 -0.6382  0.0457
   31CHL1  H11A 2255   5.077   5.388   7.221  0.4990 -0.0098 -0.4273
   31CHL1  H11B 2256   5.248   5.414   7.206  0.0943 -0.4206  0.6859
   31CHL1    C9 2257   5.185   5.230   7.113 -0.5135 -0.2897 -0.8152
   31CHL1    H9 2258   5.292   5.202   7.111 -0.4034 -0.0268  0.7289
   31CHL1   C10 2259   5.155   5.284   6.965 -0.1408 -0.0453 -0.2164
   31CHL1   C19 2260   5.014   5.351   6.956  0.0200  1.0348  0.4147
   31CHL1  H19A 2261   4.935   5.289   7.004  0.6699 -1.2048 -1.3062
   31CHL1  H19B 2262   5.013   5.449   7.008  1.5311  2.0583 -1.4220
   31CHL1  H19C 2263   4.976   5.367   6.852 -0.3660 -1.1750  0.1738
   31CHL1    C1 2264   5.266   5.386   6.922 -0.1272  0.1388 -0.5796
   31CHL1   H1A 2265   5.247   5.471   6.992 -0.0896 -1.7226  1.7611
   31CHL1   H1B 2266   5.367   5.348   6.951 -1.0584 -0.5506  1.8806
   31CHL1    C2 2267   5.262   5.423   6.776 -0.1248 -0.3967  0.1285
   31CHL1   H2A 2268   5.338   5.494   6.736  0.4422 -0.9756  0.1778
   31CHL1   H2B 2269   5.161   5.465   6.757  0.2996  0.1791 -0.9089
   31CHL1   C20 2270   5.089   5.111   7.653  0.0042 -0.2608 -0.4132
   31CHL1   H20 2271   4.979   5.118   7.665 -0.0528 -0.4311 -0.8454
   31CHL1   C21 2272   5.141   5.258   7.692  0.2032 -0.4920 -0.7161
   31CHL1  H21A 2273   5.089   5.322   7.617 -2.1278  0.4367  1.6266
   31CHL1  H21B 2274   5.252   5.261   7.683 -0.0028  0.0920 -3.4940
   31CHL1  H21C 2275   5.109   5.280   7.796  2.6025 -3.0613  0.6370
   31CHL1   C22 2276   5.134   5.003   7.762 -0.1083 -0.3694  0.1541
   31CHL1  H22A 2277   5.060   4.921   7.748 -1.2197  0.4000  1.3931
   31CHL1  H22B 2278   5.233   4.954   7.747  0.3094  0.8822 -1.2963
   31CHL1   C23 2279   5.131   5.058   7.910 -0.5049 -0.2478  0.5562
   31CHL1  H23A 2280   5.203   5.142   7.919 -2.8190  1.8362  0.1288
   31CHL1  H23B 2281   5.026   5.093   7.921 -0.6335  0.3748 -2.1867
   31CHL1   C24 2282   5.177   4.949   8.013 -0.2170 -0.1000 -0.1129
   31CHL1  H24A 2283   5.115   4.861   7.987 -1.4954  1.4224 -2.4249
   31CHL1  H24B 2284   5.282   4.917   7.999 -0.3474 -0.4951 -0.1824
   31CHL1   C25 2285   5.164   4.985   8.161 -0.0309 -0.8470  0.9027
   31CHL1   H25 2286   5.231   5.073   8.176 -1.1797 -0.0327  1.3545
   31CHL1   C26 2287   5.021   5.022   8.207 -0.2257  0.5836  0.3082
   31CHL1  H26A 2288   4.959   4.931   8.193  2.1254 -1.4674  2.6318
   31CHL1  H26B 2289   5.020   5.055   8.314 -1.0313 -0.5259  0.6540
   31CHL1  H26C 2290   4.968   5.106   8.158 -1.5711 -0.4365 -0.0193
   31CHL1   C27 2291   5.224   4.877   8.258  0.6308 -0.4070 -0.5671
   31CHL1  H27A 2292   5.183   4.780   8.224 -1.3407  1.1256 -2.7122
   31CHL1  H27B 2293   5.191   4.885   8.364 -1.8636 -1.0301 -1.2653
   31CHL1  H27C 2294   5.334   4.874   8.246  1.0020 -0.2914  2.4091
   32CHL1    C3 2295   5.871   3.237   6.942 -0.2018 -0.4042 -0.4635
   32CHL1    H3 2296   5.767   3.271   6.960 -0.2877 -0.3316 -1.0619
   32CHL1    O3 2297   5.893   3.240   6.803  0.5284 -0.1676  0.9457
   32CHL1   H3' 2298   5.988   3.232   6.794  0.4743  0.0088  0.1045
   32CHL1    C4 2299   5.967   3.346   7.002  0.0843 -0.8079 -0.7961
   32CHL1   H4A 2300   6.063   3.307   6.962 -0.0680 -1.8878 -0.1402
   32CHL1   H4B 2301   5.934   3.441   6.956  1.0844 -1.1123 -2.1671
   32CHL1    C5 2302   5.974   3.346   7.152  0.3081  0.5331 -0.6390
   32CHL1    C6 2303   5.949   3.457   7.220  0.4223  0.1964  0.0620
   32CHL1    H6 2304   5.939   3.552   7.166 -1.8716  1.4911  2.6740
   32CHL1    C7 2305   5.958   3.463   7.369 -0.3983  0.1570 -1.0288
   32CHL1   H7A 2306   6.014   3.556   7.394 -2.1901  0.7424  0.9730
   32CHL1   H7B 2307   5.859   3.483   7.415  0.5246  0.3209  0.9302
   32CHL1    C8 2308   6.020   3.331   7.436 -0.3332  0.0740  0.3528
   32CHL1    H8 2309   6.130   3.327   7.426 -0.3718  2.6733 -1.7572
   32CHL1   C14 2310   5.991   3.336   7.586 -0.0906  0.5860  0.5027
   32CHL1   H14 2311   5.881   3.335   7.602 -0.3932 -1.0072 -1.5977
   32CHL1   C15 2312   6.026   3.461   7.664  0.3984 -0.4187 -0.2362
   32CHL1  H15A 2313   6.131   3.491   7.649 -0.4381  1.6944 -2.2236
   32CHL1  H15B 2314   5.968   3.553   7.638  0.2312 -0.6022 -0.5134
   32CHL1   C16 2315   6.006   3.416   7.811 -0.0850  0.7250 -0.1657
   32CHL1  H16A 2316   6.099   3.436   7.868  0.8566 -1.3936 -0.9077
   32CHL1  H16B 2317   5.922   3.476   7.852  1.0210  2.4348 -0.3433
   32CHL1   C17 2318   5.984   3.259   7.801 -0.4105  0.0893 -0.6934
   32CHL1   H17 2319   5.875   3.241   7.785 -0.8846  2.2532  0.0301
   32CHL1   C13 2320   6.034   3.209   7.662 -0.3253  1.5532  0.3095
   32CHL1   C18 2321   6.190   3.197   7.668  0.1419 -0.0296  0.3957
   32CHL1  H18A 2322   6.221   3.104   7.720  0.8878  0.3174  0.5830
   32CHL1  H18B 2323   6.231   3.182   7.566  0.8205 -0.6213  0.7509
   32CHL1  H18C 2324   6.242   3.284   7.715 -0.3684  2.0953 -2.7633
   32CHL1   C12 2325   5.969   3.088   7.597 -0.4747 -0.1058 -0.3906
   32CHL1  H12A 2326   6.007   2.994   7.643 -2.0619 -0.2743  0.6195
   32CHL1  H12B 2327   5.858   3.086   7.608 -0.5123  2.5957 -0.0887
   32CHL1   C11 2328   6.001   3.077   7.450  0.2492  0.3684  0.7253
   32CHL1  H11A 2329   6.111   3.065   7.442  0.1635  0.5276 -1.0294
   32CHL1  H11B 2330   5.948   2.987   7.411 -0.0133  1.0168 -0.4538
   32CHL1    C9 2331   5.957   3.203   7.373  0.4022  0.0108  0.2568
   32CHL1    H9 2332   5.848   3.207   7.392  0.4379  0.8780  0.3129
   32CHL1   C10 2333   5.986   3.211   7.223 -0.0076  0.0202  0.1707
   32CHL1   C19 2334   6.142   3.180   7.211  0.5600 -0.0590  0.0715
   32CHL1  H19A 2335   6.176   3.176   7.106 -2.2687 -0.7175 -0.8485
   32CHL1  H19B 2336   6.205   3.244   7.276  1.5003  0.1516 -1.0382
   32CHL1  H19C 2337   6.163   3.078   7.250  0.6195  0.1464  0.5822
   32CHL1    C1 2338   5.897   3.107   7.153  0.5611  0.1831  0.3020
   32CHL1   H1A 2339   5.919   3.000   7.177  1.7181  0.1735 -0.7675
   32CHL1   H1B 2340   5.791   3.128   7.179  1.3593  1.7055  2.5068
   32CHL1    C2 2341   5.899   3.096   7.001  0.7952  0.4112  0.1442
   32CHL1   H2A 2342   5.818   3.027   6.968  1.9885 -0.7805 -0.3367
   32CHL1   H2B 2343   5.995   3.066   6.955 -0.6618 -0.1653 -2.6084
   32CHL1   C20 2344   6.028   3.180   7.927 -0.1670 -0.4200  0.7856
   32CHL1   H20 2345   6.137   3.159   7.917 -0.5158 -1.1610 -1.9361
   32CHL1   C21 2346   5.947   3.052   7.935 -0.4338  0.8090 -0.3229
   32CHL1  H21A 2347   5.858   3.066   7.999 -0.5470 -0.6390 -0.1585
   32CHL1  H21B 2348   6.007   2.987   8.002  0.4871  2.3059  0.3291
   32CHL1  H21C 2349   5.926   3.010   7.834 -1.2144  0.5515 -0.0594
   32CHL1   C22 2350   6.022   3.263   8.067  0.2653 -0.3248 -0.7825
   32CHL1  H22A 2351   6.087   3.353   8.061 -1.2715  0.7052 -2.4232
   32CHL1  H22B 2352   5.919   3.301   8.053  0.1191 -0.9912 -1.5932
   32CHL1   C23 2353   6.027   3.188   8.201 -0.2521 -0.1491 -0.1925
   32CHL1  H23A 2354   5.928   3.137   8.205 -0.3176  0.1446  2.5591
   32CHL1  H23B 2355   6.115   3.121   8.213  0.4994  0.7327 -0.7331
   32CHL1   C24 2356   6.012   3.272   8.327  0.5272 -1.2465 -0.3592
   32CHL1  H24A 2357   6.103   3.335   8.317 -0.4454  0.0662 -0.9422
   32CHL1  H24B 2358   5.924   3.339   8.317  1.6411  0.4321  0.7805
   32CHL1   C25 2359   6.005   3.199   8.462 -1.2224 -0.3657 -0.0063
   32CHL1   H25 2360   6.008   3.274   8.544 -0.2039  0.5062 -0.8212
   32CHL1   C26 2361   5.869   3.130   8.472  0.0899  0.2389 -0.0667
   32CHL1  H26A 2362   5.782   3.189   8.435  0.5397  2.2416  1.9877
   32CHL1  H26B 2363   5.889   3.042   8.408 -0.9178 -0.0858  0.0432
   32CHL1  H26C 2364   5.855   3.107   8.580 -1.3172 -1.0626 -0.4992
   32CHL1   C27 2365   6.126   3.109   8.495 -0.1832  0.3107 -0.1474
   32CHL1  H27A 2366   6.219   3.155   8.454 -0.7459  3.8381  2.2849
   32CHL1  H27B 2367   6.135   3.087   8.604  1.0112  2.1877  0.1518
   32CHL1  H27C 2368   6.102   3.012   8.446  1.6802  0.2535 -0.9920
   33CHL1    C3 2369   6.767   2.921   6.645 -0.3029  0.0078  0.2777
   33CHL1    H3 2370   6.669   2.974   6.638  0.0355  0.4188 -1.6507
   33CHL1    O3 2371   6.818   2.880   6.522 -0.4296  0.4858 -0.2472
   33CHL1   H3' 2372   6.899   2.836   6.549 -0.0189  1.5606  0.3241
   33CHL1    C4 2373   6.872   3.013   6.708  0.3755  0.1747  0.1302
   33CHL1   H4A 2374   6.976   2.976   6.714  0.6129  0.6360 -0.9600
   33CHL1   H4B 2375   6.884   3.098   6.638  1.1071  0.0195  0.0632
   33CHL1    C5 2376   6.823   3.053   6.850  0.3203  0.2522  0.4067
   33CHL1    C6 2377   6.801   3.185   6.876  0.3491  0.7810 -0.1445
   33CHL1    H6 2378   6.831   3.263   6.803  1.7580  1.1773  0.8401
   33CHL1    C7 2379   6.765   3.217   7.017  0.7780 -0.2167  0.2885
   33CHL1   H7A 2380   6.808   3.316   7.043 -0.9761  1.0393 -1.4068
   33CHL1   H7B 2381   6.655   3.229   7.019  0.9114  1.0176  0.5758
   33CHL1    C8 2382   6.794   3.114   7.126 -0.0023  0.0476 -0.9202
   33CHL1    H8 2383   6.903   3.096   7.137 -0.1529 -0.7868 -0.8085
   33CHL1   C14 2384   6.743   3.158   7.267 -0.0355  0.3254 -0.1168
   33CHL1   H14 2385   6.633   3.172   7.258 -0.2129 -1.4184 -0.9872
   33CHL1   C15 2386   6.801   3.283   7.335 -0.3740  0.1755  0.1097
   33CHL1  H15A 2387   6.912   3.282   7.334 -0.3728  0.7370 -0.0171
   33CHL1  H15B 2388   6.776   3.383   7.295 -2.0233  0.0941  0.8694
   33CHL1   C16 2389   6.763   3.263   7.484  0.1457 -0.4329  0.1081
   33CHL1  H16A 2390   6.857   3.266   7.544  0.8927 -2.6313 -0.9058
   33CHL1  H16B 2391   6.688   3.340   7.513 -1.7631 -2.6904  1.3175
   33CHL1   C17 2392   6.690   3.126   7.498 -0.0952  0.1701  0.1794
   33CHL1   H17 2393   6.582   3.138   7.473  0.0838 -1.0587 -1.2573
   33CHL1   C13 2394   6.744   3.050   7.376  0.0999 -0.2160 -0.2191
   33CHL1   C18 2395   6.890   3.002   7.409 -0.5606  0.1447  0.4538
   33CHL1  H18A 2396   6.893   2.929   7.493  0.0424  1.1931  1.3541
   33CHL1  H18B 2397   6.946   2.960   7.322 -0.0279  1.0681  0.3428
   33CHL1  H18C 2398   6.954   3.092   7.427 -2.4880  1.6918 -0.3064
   33CHL1   C12 2399   6.657   2.935   7.320 -0.0743  0.0300  0.6868
   33CHL1  H12A 2400   6.651   2.848   7.388 -0.7761  0.2912  0.9652
   33CHL1  H12B 2401   6.557   2.979   7.301  0.9920  2.4883  0.5975
   33CHL1   C11 2402   6.709   2.876   7.191 -0.1558 -0.0490  0.2077
   33CHL1  H11A 2403   6.804   2.822   7.212 -0.0916 -1.0294 -2.4303
   33CHL1  H11B 2404   6.647   2.790   7.157  0.2081 -0.8037  1.4030
   33CHL1    C9 2405   6.730   2.976   7.079  0.0984  0.4818 -0.0492
   33CHL1    H9 2406   6.626   3.009   7.056  0.2325  0.7732 -0.2413
   33CHL1   C10 2407   6.794   2.924   6.945 -0.0777  0.7614  0.0804
   33CHL1   C19 2408   6.930   2.855   6.986  0.2595  0.4826  0.4107
   33CHL1  H19A 2409   6.903   2.758   7.032  2.2694  0.3518  1.3487
   33CHL1  H19B 2410   6.985   2.837   6.891  2.0697  2.4357  1.0446
   33CHL1  H19C 2411   6.995   2.913   7.055 -0.1501 -1.1159  2.1687
   33CHL1    C1 2412   6.698   2.821   6.870  0.2302 -1.2689 -0.2537
   33CHL1   H1A 2413   6.688   2.730   6.933 -1.0614 -1.8501 -1.2488
   33CHL1   H1B 2414   6.606   2.885   6.872  1.0699 -0.0598  0.3003
   33CHL1    C2 2415   6.742   2.791   6.732  0.5995 -1.3038 -0.0862
   33CHL1   H2A 2416   6.663   2.722   6.693 -0.0614 -0.9573  0.6419
   33CHL1   H2B 2417   6.838   2.734   6.727  2.5248  1.6750  1.4617
   33CHL1   C20 2418   6.692   3.056   7.634  0.1930 -0.3472 -0.4371
   33CHL1   H20 2419   6.692   2.948   7.607 -0.6193 -0.8445  1.5008
   33CHL1   C21 2420   6.565   3.103   7.703 -0.2856  0.4818 -0.0404
   33CHL1  H21A 2421   6.547   3.055   7.802 -0.1141  1.1845  0.3349
   33CHL1  H21B 2422   6.473   3.076   7.647  0.8178 -2.5490 -0.5009
   33CHL1  H21C 2423   6.576   3.213   7.715  3.1008 -0.0032  2.1069
   33CHL1   C22 2424   6.814   3.091   7.732  0.6285 -0.4811  0.0230
   33CHL1  H22A 2425   6.905   3.065   7.674  0.9662  1.1192 -0.1847
   33CHL1  H22B 2426   6.819   3.202   7.737  0.1468 -0.4281 -0.6480
   33CHL1   C23 2427   6.821   3.029   7.875 -0.1793 -0.0828  0.0185
   33CHL1  H23A 2428   6.730   3.052   7.935  0.0697 -0.3922  0.5120
   33CHL1  H23B 2429   6.823   2.918   7.868 -2.6472 -0.4023  3.2136
   33CHL1   C24 2430   6.941   3.084   7.961 -0.4037 -0.4463 -0.1618
   33CHL1  H24A 2431   7.028   3.081   7.891  0.5691 -0.6760  1.0460
   33CHL1  H24B 2432   6.936   3.194   7.979  0.5708  0.2071 -3.4683
   33CHL1   C25 2433   6.973   3.006   8.089  0.3736  0.8693  0.1977
   33CHL1   H25 2434   7.000   2.902   8.060 -1.4763  0.9631 -1.9494
   33CHL1   C26 2435   7.107   3.058   8.147 -0.1806 -0.3117  0.0364
   33CHL1  H26A 2436   7.187   3.037   8.074 -1.7725  1.1482 -2.1651
   33CHL1  H26B 2437   7.089   3.161   8.184 -1.4512 -0.4841 -0.0902
   33CHL1  H26C 2438   7.130   2.992   8.234 -1.0067  0.0072  0.5123
   33CHL1   C27 2439   6.858   3.024   8.190  0.1039 -0.0054 -0.0224
   33CHL1  H27A 2440   6.764   3.029   8.131  1.1234  1.0876 -1.5652
   33CHL1  H27B 2441   6.870   2.933   8.252  0.5756 -1.2775 -1.9633
   33CHL1  H27C 2442   6.864   3.114   8.256  3.0582  1.0457 -1.6257
   34CHL1    C3 2443   1.107   1.601   7.141  0.2461  0.3442  0.7095
   34CHL1    H3 2444   0.998   1.582   7.129  0.8392 -1.3988 -2.2520
   34CHL1    O3 2445   1.162   1.639   7.016  0.2788  0.3555  0.9078
   34CHL1   H3' 2446   1.256   1.625   7.026 -0.1568 -2.9534  0.7136
   34CHL1    C4 2447   1.120   1.722   7.234  0.1646 -0.3029 -0.3372
   34CHL1   H4A 2448   1.225   1.759   7.233  1.0418 -2.6519 -0.6265
   34CHL1   H4B 2449   1.058   1.805   7.195 -1.4320 -0.1020  2.5018
   34CHL1    C5 2450   1.079   1.692   7.374 -0.2058 -0.4592  0.3128
   34CHL1    C6 2451   0.978   1.761   7.434  0.7523  0.0784 -0.0605
   34CHL1    H6 2452   0.924   1.846   7.390  0.1772  0.7564  1.9132
   34CHL1    C7 2453   0.942   1.744   7.577  0.3764  0.5773 -0.5670
   34CHL1   H7A 2454   0.943   1.846   7.623 -1.9138  1.0759 -1.5651
   34CHL1   H7B 2455   0.838   1.708   7.591  0.9703 -0.9904 -0.1218
   34CHL1    C8 2456   1.037   1.652   7.654 -0.2781 -1.1476  1.1006
   34CHL1    H8 2457   1.132   1.705   7.679 -0.2179 -1.2531  1.0955
   34CHL1   C14 2458   0.977   1.614   7.787 -0.2379 -0.7149  0.3917
   34CHL1   H14 2459   0.890   1.548   7.767  0.4231 -1.2216 -0.9226
   34CHL1   C15 2460   0.908   1.721   7.867 -0.1528  0.5187 -0.0576
   34CHL1  H15A 2461   0.967   1.815   7.870 -1.0307  1.0915 -0.6569
   34CHL1  H15B 2462   0.815   1.753   7.817 -1.0314 -1.5119  0.2239
   34CHL1   C16 2463   0.895   1.664   8.007  0.0481  0.3996  0.1892
   34CHL1  H16A 2464   0.969   1.712   8.075  1.8645 -1.3313 -0.5171
   34CHL1  H16B 2465   0.795   1.685   8.052 -0.2100 -0.7623  0.1745
   34CHL1   C17 2466   0.948   1.516   8.000 -0.0107 -0.1782  0.0017
   34CHL1   H17 2467   0.859   1.467   7.954  1.0590  0.7255 -3.1934
   34CHL1   C13 2468   1.061   1.518   7.877  0.6607 -1.1766 -0.6533
   34CHL1   C18 2469   1.193   1.581   7.931 -0.0902  0.1949 -0.1750
   34CHL1  H18A 2470   1.247   1.509   7.996  2.3272  1.1661 -1.0562
   34CHL1  H18B 2471   1.253   1.602   7.840  0.0625 -1.2950 -0.4429
   34CHL1  H18C 2472   1.177   1.672   7.992  1.9254 -0.2677  1.0683
   34CHL1   C12 2473   1.081   1.389   7.793 -0.0270 -0.6692 -0.2000
   34CHL1  H12A 2474   1.138   1.311   7.848  0.7640  0.0651  0.0267
   34CHL1  H12B 2475   0.982   1.340   7.780  0.1212 -0.9468 -0.2783
   34CHL1   C11 2476   1.145   1.422   7.659 -0.3764  0.1990  0.0932
   34CHL1  H11A 2477   1.249   1.452   7.685  0.0958 -2.2832  1.2308
   34CHL1  H11B 2478   1.144   1.325   7.604  0.1945 -0.7470  1.6861
   34CHL1    C9 2479   1.077   1.532   7.572  0.7485  0.6634 -0.3398
   34CHL1    H9 2480   0.984   1.481   7.538  1.2706 -1.0641  0.7429
   34CHL1   C10 2481   1.154   1.571   7.440  0.6541 -0.2666 -0.5627
   34CHL1   C19 2482   1.304   1.621   7.476 -0.0676 -0.0717 -0.0893
   34CHL1  H19A 2483   1.288   1.702   7.550 -2.6777  1.5427 -2.3176
   34CHL1  H19B 2484   1.368   1.546   7.526 -0.6308 -1.0614 -0.8294
   34CHL1  H19C 2485   1.356   1.650   7.382 -0.8924 -2.0174 -1.1762
   34CHL1    C1 2486   1.147   1.447   7.342  0.3708 -0.5314 -0.0519
   34CHL1   H1A 2487   1.213   1.372   7.391 -0.3494  0.3544  2.3689
   34CHL1   H1B 2488   1.043   1.407   7.337 -0.8986  2.1982  2.3871
   34CHL1    C2 2489   1.183   1.480   7.195 -0.2190  0.5244 -0.2573
   34CHL1   H2A 2490   1.165   1.389   7.133  2.3123 -0.9595  1.0853
   34CHL1   H2B 2491   1.293   1.493   7.196  0.3238 -3.4556  3.2969
   34CHL1   C20 2492   0.989   1.462   8.129 -0.0553  0.0791 -0.6479
   34CHL1   H20 2493   1.068   1.530   8.167  0.4694 -0.6628 -0.4138
   34CHL1   C21 2494   1.046   1.315   8.121 -0.1715 -0.0442 -0.6126
   34CHL1  H21A 2495   1.089   1.275   8.216  0.1622  0.8031 -0.4043
   34CHL1  H21B 2496   1.120   1.299   8.040  0.4576 -0.7921  0.0938
   34CHL1  H21C 2497   0.964   1.244   8.099 -0.3235  0.1298 -0.6019
   34CHL1   C22 2498   0.868   1.458   8.228  0.3900  0.0795  0.2566
   34CHL1  H22A 2499   0.817   1.556   8.228  3.3654  1.6781 -1.2995
   34CHL1  H22B 2500   0.813   1.364   8.206  1.7930 -0.7296  0.1208
   34CHL1   C23 2501   0.902   1.430   8.379  0.6244  0.4159  0.9240
   34CHL1  H23A 2502   0.972   1.343   8.377 -1.6902 -1.4735 -0.8333
   34CHL1  H23B 2503   0.948   1.522   8.420 -2.4723  3.3280 -1.8778
   34CHL1   C24 2504   0.773   1.398   8.463 -0.2258  0.5640  0.7901
   34CHL1  H24A 2505   0.726   1.312   8.410  1.5105 -0.3565  0.6780
   34CHL1  H24B 2506   0.797   1.346   8.558  1.9269  1.5968  0.8525
   34CHL1   C25 2507   0.667   1.500   8.501  0.1109 -0.1515  0.1231
   34CHL1   H25 2508   0.625   1.544   8.408 -1.5085 -1.5002  0.1979
   34CHL1   C26 2509   0.554   1.432   8.569 -0.0944  0.5898 -0.4210
   34CHL1  H26A 2510   0.457   1.486   8.562 -1.5219 -1.6239  1.3466
   34CHL1  H26B 2511   0.549   1.336   8.513  0.8384 -0.9205  1.9475
   34CHL1  H26C 2512   0.565   1.427   8.680  2.2754 -0.2784 -0.6683
   34CHL1   C27 2513   0.725   1.620   8.585 -0.4785 -0.2945  1.0621
   34CHL1  H27A 2514   0.649   1.699   8.598  1.1626  1.3736  0.8427
   34CHL1  H27B 2515   0.756   1.583   8.685 -2.2690 -2.7126  0.7587
   34CHL1  H27C 2516   0.814   1.657   8.529 -0.2314  0.3864  1.8849
   35CHL1    C3 2517   4.387   3.193   7.331 -0.2957 -0.5737  0.0248
   35CHL1    H3 2518   4.288   3.169   7.374 -0.0462  0.0937  0.9757
   35CHL1    O3 2519   4.366   3.251   7.205 -0.1692 -0.2244  0.0198
   35CHL1   H3' 2520   4.453   3.266   7.168 -0.7908  2.7854 -0.3500
   35CHL1    C4 2521   4.453   3.295   7.430 -0.1227  0.0307  0.3295
   35CHL1   H4A 2522   4.545   3.341   7.388 -1.9375  2.2727 -1.2748
   35CHL1   H4B 2523   4.386   3.381   7.446  0.9799  0.9342  0.1605
   35CHL1    C5 2524   4.487   3.239   7.564  0.1468  0.4931 -0.3682
   35CHL1    C6 2525   4.443   3.279   7.681 -0.3594 -0.0101 -0.0281
   35CHL1    H6 2526   4.373   3.364   7.686  3.1142  2.8778  2.0755
   35CHL1    C7 2527   4.471   3.233   7.816 -0.9301 -1.0502 -0.3913
   35CHL1   H7A 2528   4.497   3.315   7.886 -0.3358 -0.6646 -1.0545
   35CHL1   H7B 2529   4.387   3.175   7.861 -2.1581  0.5882 -0.5161
   35CHL1    C8 2530   4.593   3.138   7.814 -0.0495 -0.1909 -0.0162
   35CHL1    H8 2531   4.681   3.205   7.807  0.1722 -0.4019  0.7612
   35CHL1   C14 2532   4.611   3.070   7.948  0.0445  0.2184  0.3889
   35CHL1   H14 2533   4.519   3.009   7.959  1.0063 -0.7726  3.2142
   35CHL1   C15 2534   4.615   3.158   8.069  0.3953 -0.1657 -0.1065
   35CHL1  H15A 2535   4.665   3.256   8.055 -4.1656  2.2808  0.0381
   35CHL1  H15B 2536   4.513   3.177   8.108  1.0335  3.6713 -0.0868
   35CHL1   C16 2537   4.699   3.073   8.165 -0.1785 -0.7180  0.0333
   35CHL1  H16A 2538   4.789   3.136   8.176 -2.2435  2.1029  1.6401
   35CHL1  H16B 2539   4.669   3.064   8.272 -0.1268  1.5941  0.2597
   35CHL1   C17 2540   4.739   2.939   8.099 -0.0862  0.0810 -0.3322
   35CHL1   H17 2541   4.653   2.872   8.118  1.0158 -0.4133  3.1978
   35CHL1   C13 2542   4.734   2.971   7.947 -0.4080  0.5389  0.0204
   35CHL1   C18 2543   4.873   3.038   7.907 -0.3954  0.6501 -0.1285
   35CHL1  H18A 2544   4.850   3.086   7.810  0.1451  1.7312  0.2667
   35CHL1  H18B 2545   4.898   3.126   7.971  0.9308  0.3799 -0.2657
   35CHL1  H18C 2546   4.944   2.953   7.911  0.1936  1.1533  0.2791
   35CHL1   C12 2547   4.700   2.862   7.846 -1.0361  0.6856  0.6074
   35CHL1  H12A 2548   4.774   2.779   7.834 -2.5609 -0.2383 -2.9144
   35CHL1  H12B 2549   4.605   2.816   7.879 -0.4494 -0.2426  1.0436
   35CHL1   C11 2550   4.669   2.913   7.702 -0.1509 -0.0323 -0.0557
   35CHL1  H11A 2551   4.764   2.937   7.650 -0.2253 -0.0390 -0.1964
   35CHL1  H11B 2552   4.613   2.826   7.660  1.0992 -1.1802  0.6235
   35CHL1    C9 2553   4.574   3.035   7.700 -0.5918 -0.5288  0.3345
   35CHL1    H9 2554   4.471   2.996   7.717 -1.4892  1.3960 -0.5780
   35CHL1   C10 2555   4.574   3.105   7.558  0.0324  0.1422 -0.5928
   35CHL1   C19 2556   4.719   3.138   7.508 -0.3022  0.4997 -0.3690
   35CHL1  H19A 2557   4.763   3.044   7.469 -0.3111  0.5119 -0.4092
   35CHL1  H19B 2558   4.710   3.210   7.424 -2.0273 -0.4457 -1.0184
   35CHL1  H19C 2559   4.779   3.179   7.592  0.6884 -0.1113 -0.7633
   35CHL1    C1 2560   4.506   3.007   7.459  0.3092  0.9441 -0.4832
   35CHL1   H1A 2561   4.570   2.917   7.444 -0.9196 -0.1962  0.9456
   35CHL1   H1B 2562   4.415   2.971   7.511 -1.0202 -0.9090 -3.9839
   35CHL1    C2 2563   4.475   3.068   7.323 -0.4811  0.1650 -0.1563
   35CHL1   H2A 2564   4.424   2.980   7.276  2.4342 -2.3483  1.2116
   35CHL1   H2B 2565   4.564   3.087   7.261  0.1119  0.2576  0.7190
   35CHL1   C20 2566   4.868   2.879   8.157 -0.2652  0.4406  0.0923
   35CHL1   H20 2567   4.959   2.936   8.127  1.3508 -1.1423  1.8574
   35CHL1   C21 2568   4.885   2.735   8.095 -0.7823  0.0414  1.0246
   35CHL1  H21A 2569   4.916   2.744   7.988  0.7741  1.9151  1.5872
   35CHL1  H21B 2570   4.792   2.677   8.111 -1.5814  0.8054 -0.6746
   35CHL1  H21C 2571   4.959   2.679   8.156  0.9369 -0.6778 -1.6266
   35CHL1   C22 2572   4.864   2.867   8.310 -0.4044  0.0490 -0.3317
   35CHL1  H22A 2573   4.857   2.976   8.332  4.0526  0.0692  1.4262
   35CHL1  H22B 2574   4.774   2.822   8.356  1.1694 -0.4070  2.4512
   35CHL1   C23 2575   4.989   2.833   8.388  0.2711 -0.1346 -0.1821
   35CHL1  H23A 2576   4.993   2.722   8.399  1.1946 -0.2110 -1.1983
   35CHL1  H23B 2577   5.074   2.865   8.324 -0.1020  3.4148  0.9972
   35CHL1   C24 2578   4.993   2.890   8.533 -0.6996 -0.2500  0.6870
   35CHL1  H24A 2579   5.036   2.992   8.521  0.5729 -0.9213 -0.6862
   35CHL1  H24B 2580   4.891   2.884   8.575  0.7344 -0.7288  4.2244
   35CHL1   C25 2581   5.077   2.807   8.641 -0.2119 -0.0310 -0.5689
   35CHL1   H25 2582   5.016   2.719   8.668 -0.0289 -0.0780 -0.3136
   35CHL1   C26 2583   5.212   2.753   8.583 -0.1800 -0.6073 -0.2978
   35CHL1  H26A 2584   5.268   2.690   8.655 -0.0610 -1.1958 -0.9010
   35CHL1  H26B 2585   5.189   2.697   8.490 -1.0215 -0.3184 -0.2728
   35CHL1  H26C 2586   5.272   2.842   8.556  1.2813 -1.8575 -1.2807
   35CHL1   C27 2587   5.106   2.888   8.763  0.1779  0.4584 -0.5302
   35CHL1  H27A 2588   5.020   2.905   8.832 -0.5292 -1.9019 -0.7822
   35CHL1  H27B 2589   5.156   2.984   8.740 -0.1944  1.5390  2.8699
   35CHL1  H27C 2590   5.190   2.839   8.817 -0.0894 -0.9360 -1.3431
   36CHL1    C3 2591   5.192   2.403   6.922  0.6366 -0.3132 -0.6100
   36CHL1    H3 2592   5.237   2.301   6.919 -2.4415 -1.7885  0.5722
   36CHL1    O3 2593   5.189   2.442   6.785 -0.2109 -0.4884 -0.2672
   36CHL1   H3' 2594   5.256   2.386   6.746 -0.9428 -0.6627 -1.3028
   36CHL1    C4 2595   5.047   2.395   6.970  0.5438  0.4011  0.4536
   36CHL1   H4A 2596   5.003   2.496   6.954 -1.8598 -0.5410  0.8423
   36CHL1   H4B 2597   5.001   2.326   6.895  1.2480  1.6483 -1.1474
   36CHL1    C5 2598   5.047   2.362   7.122 -0.1215 -0.3462 -0.0491
   36CHL1    C6 2599   4.971   2.260   7.172 -0.1053 -0.6358 -0.7897
   36CHL1    H6 2600   4.909   2.192   7.112 -0.5124 -1.1803  0.2346
   36CHL1    C7 2601   4.975   2.204   7.313 -0.0206 -0.4038  1.1183
   36CHL1   H7A 2602   4.877   2.172   7.352 -0.7399  2.3626  1.7164
   36CHL1   H7B 2603   5.051   2.123   7.320  1.3542  0.8132  0.8399
   36CHL1    C8 2604   5.014   2.322   7.407 -0.2922  0.1105 -0.3530
   36CHL1    H8 2605   4.919   2.378   7.417  0.3298  1.0113  0.7372
   36CHL1   C14 2606   5.050   2.269   7.542 -0.3334 -0.0905 -0.1329
   36CHL1   H14 2607   5.150   2.221   7.538  0.0261  0.4308  2.1378
   36CHL1   C15 2608   4.948   2.172   7.601  0.0689 -0.0511  0.2525
   36CHL1  H15A 2609   4.844   2.210   7.597 -0.3160 -0.9932  1.1024
   36CHL1  H15B 2610   4.951   2.078   7.542  0.1402 -0.6474  1.1947
   36CHL1   C16 2611   4.977   2.171   7.754  0.4584  0.4040 -0.1145
   36CHL1  H16A 2612   4.888   2.191   7.817 -0.7672 -0.0649 -1.6650
   36CHL1  H16B 2613   5.014   2.069   7.780 -2.4077  0.1707  3.3303
   36CHL1   C17 2614   5.090   2.278   7.771 -0.1493 -0.1229 -1.2321
   36CHL1   H17 2615   5.185   2.226   7.746  1.5558  1.3038  1.9590
   36CHL1   C13 2616   5.075   2.378   7.651  0.5401  0.3608 -1.2278
   36CHL1   C18 2617   4.950   2.461   7.677  0.0651 -0.4654  0.1704
   36CHL1  H18A 2618   4.927   2.528   7.592 -0.7897  0.1836  0.9019
   36CHL1  H18B 2619   4.859   2.400   7.693 -0.0041 -0.3209  0.3192
   36CHL1  H18C 2620   4.967   2.532   7.760  1.9594 -0.8826  0.1596
   36CHL1   C12 2621   5.199   2.455   7.605 -0.6384  0.5009 -0.4159
   36CHL1  H12A 2622   5.226   2.539   7.672  1.8092  0.4880 -1.3362
   36CHL1  H12B 2623   5.277   2.375   7.613 -0.8438  0.5001  2.1102
   36CHL1   C11 2624   5.183   2.511   7.465 -0.0481  0.9503  0.3087
   36CHL1  H11A 2625   5.113   2.597   7.456  0.8462  1.7315  0.7032
   36CHL1  H11B 2626   5.277   2.549   7.420 -0.5484 -0.6396 -2.1877
   36CHL1    C9 2627   5.132   2.403   7.364 -0.8300 -0.5809 -0.0708
   36CHL1    H9 2628   5.211   2.325   7.370 -0.4940 -0.3779 -1.5784
   36CHL1   C10 2629   5.131   2.453   7.217 -0.7742 -0.2413  0.3486
   36CHL1   C19 2630   5.062   2.595   7.219  0.1891 -0.0871  0.2174
   36CHL1  H19A 2631   4.968   2.594   7.278 -0.1391  1.3810 -0.2496
   36CHL1  H19B 2632   5.118   2.678   7.267  0.6615 -0.1190 -0.2676
   36CHL1  H19C 2633   5.052   2.624   7.112 -0.0677 -2.9911 -0.5912
   36CHL1    C1 2634   5.273   2.466   7.150 -0.6791  0.1614 -0.4550
   36CHL1   H1A 2635   5.324   2.544   7.210 -0.2271 -0.0235 -0.5960
   36CHL1   H1B 2636   5.326   2.369   7.167 -0.4229  0.6938  2.0324
   36CHL1    C2 2637   5.279   2.501   7.003  0.0487  0.6719  0.0208
   36CHL1   H2A 2638   5.379   2.488   6.958  0.1136 -1.2103  0.6371
   36CHL1   H2B 2639   5.244   2.604   6.984 -1.8579 -0.2673 -1.7892
   36CHL1   C20 2640   5.104   2.339   7.918 -0.1660  0.3121  0.1462
   36CHL1   H20 2641   5.011   2.397   7.939 -0.2715  0.4017 -0.5592
   36CHL1   C21 2642   5.224   2.424   7.930 -0.6833 -0.3415 -0.4061
   36CHL1  H21A 2643   5.308   2.377   7.876 -0.1657  0.6732 -0.5062
   36CHL1  H21B 2644   5.247   2.449   8.036  0.5654 -0.1270 -0.7192
   36CHL1  H21C 2645   5.204   2.524   7.884 -0.1509  0.1422  0.3949
   36CHL1   C22 2646   5.108   2.230   8.025 -0.9048  0.8581  0.3604
   36CHL1  H22A 2647   5.058   2.136   7.992  1.5519 -0.5777  0.6344
   36CHL1  H22B 2648   5.214   2.204   8.044 -0.3658  1.3209 -1.8439
   36CHL1   C23 2649   5.044   2.271   8.157  0.1205  0.1743  0.4017
   36CHL1  H23A 2650   5.121   2.333   8.208  1.2312 -0.3274 -0.6420
   36CHL1  H23B 2651   4.969   2.354   8.152 -0.7823 -0.6308  0.4957
   36CHL1   C24 2652   5.016   2.161   8.252  0.3159 -1.4526  0.2445
   36CHL1  H24A 2653   4.957   2.077   8.209 -0.1439 -1.9402  1.7693
   36CHL1  H24B 2654   5.108   2.104   8.277  1.4771 -0.5731 -1.9173
   36CHL1   C25 2655   4.961   2.197   8.395 -0.1925  0.2590 -0.5598
   36CHL1   H25 2656   4.860   2.245   8.392  0.8146  2.3381 -2.8320
   36CHL1   C26 2657   4.953   2.070   8.483  0.0967 -0.0583 -0.3798
   36CHL1  H26A 2658   4.898   1.988   8.433  1.4747 -1.6450  0.6467
   36CHL1  H26B 2659   5.058   2.038   8.501  0.8321  1.1466 -2.3998
   36CHL1  H26C 2660   4.894   2.091   8.575 -0.6433 -1.2789 -0.5630
   36CHL1   C27 2661   5.047   2.298   8.463 -0.2627 -0.9787 -0.2057
   36CHL1  H27A 2662   5.036   2.394   8.408 -0.3278 -0.0965  1.2919
   36CHL1  H27B 2663   5.014   2.313   8.568 -1.8171  0.7323 -0.9173
   36CHL1  H27C 2664   5.154   2.265   8.463 -0.2533 -0.9513 -0.9593
   37CHL1    C3 2665   1.701   4.097   6.904  0.4032  0.3047  0.1375
   37CHL1    H3 2666   1.695   4.202   6.941  1.3024  0.7462 -0.9477
   37CHL1    O3 2667   1.671   4.086   6.764 -0.2516  0.4178  0.0005
   37CHL1   H3' 2668   1.662   3.992   6.745  1.2595  0.3176 -0.3095
   37CHL1    C4 2669   1.846   4.044   6.926  0.4629  0.0787  0.6323
   37CHL1   H4A 2670   1.853   3.946   6.873  1.6877 -0.0852  1.0757
   37CHL1   H4B 2671   1.918   4.108   6.872  0.1748 -1.1299 -1.2189
   37CHL1    C5 2672   1.874   4.029   7.075  0.2084  0.1350 -0.1979
   37CHL1    C6 2673   1.976   4.091   7.130 -0.0270 -0.0477  0.2212
   37CHL1    H6 2674   2.043   4.146   7.062  0.6825  0.1101  1.0476
   37CHL1    C7 2675   2.012   4.081   7.274 -0.2418  0.0025  0.6834
   37CHL1   H7A 2676   2.122   4.066   7.279  0.0618  1.9265  0.2680
   37CHL1   H7B 2677   1.994   4.178   7.324 -1.0243  0.6255 -0.7606
   37CHL1    C8 2678   1.944   3.966   7.356 -0.3435 -0.4128 -0.1784
   37CHL1    H8 2679   1.996   3.869   7.339  0.3734  0.4233 -3.0831
   37CHL1   C14 2680   1.952   4.001   7.502 -0.2872 -0.5625  0.7387
   37CHL1   H14 2681   1.902   4.101   7.499  0.0158 -0.4432 -0.9597
   37CHL1   C15 2682   2.089   4.019   7.568  0.0067 -0.9721  0.5943
   37CHL1  H15A 2683   2.148   3.927   7.551 -0.8721 -2.0574  3.2310
   37CHL1  H15B 2684   2.140   4.108   7.526  0.4297 -0.0977  2.9337
   37CHL1   C16 2685   2.053   4.032   7.717  0.4802 -1.0062 -0.0949
   37CHL1  H16A 2686   2.123   3.972   7.779 -0.4098  1.5534  3.4809
   37CHL1  H16B 2687   2.063   4.135   7.757  0.1665  0.6103 -3.8890
   37CHL1   C17 2688   1.897   3.993   7.736 -0.2508 -0.1649  0.1260
   37CHL1   H17 2689   1.846   4.092   7.733 -1.5911 -0.6426  4.2564
   37CHL1   C13 2690   1.864   3.925   7.601  0.7529  0.6513  0.1599
   37CHL1   C18 2691   1.906   3.775   7.603  0.8743  0.0263 -0.5127
   37CHL1  H18A 2692   1.916   3.736   7.499 -1.5167  1.5377 -1.3614
   37CHL1  H18B 2693   2.003   3.771   7.656  0.8995 -2.4466 -0.7299
   37CHL1  H18C 2694   1.823   3.731   7.661  0.4210  2.8431  1.0810
   37CHL1   C12 2695   1.714   3.929   7.556 -0.6434  0.0640 -0.4515
   37CHL1  H12A 2696   1.650   3.858   7.613 -0.0074 -1.5242 -1.7021
   37CHL1  H12B 2697   1.691   4.036   7.575  0.6362  0.6225 -1.9114
   37CHL1   C11 2698   1.699   3.895   7.407 -0.3013  0.9622  0.3247
   37CHL1  H11A 2699   1.720   3.787   7.396  2.5927  1.3057  2.0612
   37CHL1  H11B 2700   1.592   3.905   7.377  0.4651 -0.1458 -3.0151
   37CHL1    C9 2701   1.798   3.972   7.315  0.9019  0.0503 -0.8186
   37CHL1    H9 2702   1.773   4.078   7.337 -1.4754 -0.9695  1.7005
   37CHL1   C10 2703   1.767   3.950   7.163  0.4603  0.3196 -0.4039
   37CHL1   C19 2704   1.782   3.798   7.134  0.4487 -0.2049 -0.5526
   37CHL1  H19A 2705   1.789   3.769   7.027  0.1264  1.2074 -0.9719
   37CHL1  H19B 2706   1.873   3.758   7.184 -0.4386 -1.6593 -0.0831
   37CHL1  H19C 2707   1.689   3.753   7.176 -0.4498  1.4071 -0.7609
   37CHL1    C1 2708   1.626   3.989   7.126 -0.4971  0.4366  0.1999
   37CHL1   H1A 2709   1.553   3.910   7.153  0.2223 -0.5701 -0.7338
   37CHL1   H1B 2710   1.602   4.087   7.173  0.3462  1.0638 -0.6405
   37CHL1    C2 2711   1.596   4.009   6.969 -0.2674  0.1437 -0.5573
   37CHL1   H2A 2712   1.493   4.052   6.961  0.0683  0.6831 -2.2187
   37CHL1   H2B 2713   1.593   3.911   6.916  0.6850 -0.0653 -0.2171
   37CHL1   C20 2714   1.863   3.923   7.869  0.4176 -0.4341 -0.0782
   37CHL1   H20 2715   1.921   3.829   7.882  1.1105  0.1637  1.3754
   37CHL1   C21 2716   1.718   3.884   7.871 -0.5336  0.4465  0.1268
   37CHL1  H21A 2717   1.654   3.968   7.836 -0.7460  1.1689  2.1853
   37CHL1  H21B 2718   1.691   3.847   7.972 -1.4612  0.9128  0.0541
   37CHL1  H21C 2719   1.699   3.805   7.794 -0.7370  1.6134 -1.0327
   37CHL1   C22 2720   1.907   4.013   7.989  0.6623 -0.9200  0.0321
   37CHL1  H22A 2721   2.004   4.067   7.982  0.6377 -0.6794  1.4063
   37CHL1  H22B 2722   1.829   4.087   8.018 -2.1591 -3.6085 -0.4153
   37CHL1   C23 2723   1.933   3.927   8.119  0.0503 -0.1006  0.2075
   37CHL1  H23A 2724   1.842   3.863   8.131 -0.2151  0.6682  2.7091
   37CHL1  H23B 2725   2.028   3.870   8.119  0.9253  1.3556  0.6229
   37CHL1   C24 2726   1.936   4.024   8.234  0.6491  0.1116 -0.9455
   37CHL1  H24A 2727   2.038   4.067   8.235  1.1480 -1.0663 -0.6681
   37CHL1  H24B 2728   1.875   4.117   8.225  1.5102  0.7182 -0.5386
   37CHL1   C25 2729   1.905   3.971   8.368  0.6351  0.4073  0.1275
   37CHL1   H25 2730   1.949   3.869   8.372 -0.2761  0.0665  1.8623
   37CHL1   C26 2731   1.967   4.060   8.470 -0.3222 -0.0037  0.0764
   37CHL1  H26A 2732   1.938   4.164   8.448  2.9701  0.7458 -0.9482
   37CHL1  H26B 2733   1.932   4.030   8.571 -1.3920  1.2328  0.0834
   37CHL1  H26C 2734   2.075   4.051   8.494  0.0316  0.2063 -1.4317
   37CHL1   C27 2735   1.758   3.954   8.402  0.3280 -0.5743 -0.2828
   37CHL1  H27A 2736   1.702   3.891   8.330  1.4215 -0.3272 -1.3562
   37CHL1  H27B 2737   1.752   3.902   8.500 -1.5818  0.0983 -0.0161
   37CHL1  H27C 2738   1.708   4.052   8.420  0.8797 -0.5596  1.2119
   38CHL1    C3 2739   4.894   5.817   6.638  0.8080  0.1932 -0.6034
   38CHL1    H3 2740   4.976   5.891   6.633  0.7452  0.1655 -2.7669
   38CHL1    O3 2741   4.846   5.781   6.506 -0.0745 -0.0434 -0.4685
   38CHL1   H3' 2742   4.791   5.704   6.524  2.7549 -1.6992  1.4832
   38CHL1    C4 2743   4.939   5.688   6.710 -0.1744 -0.7243  0.1613
   38CHL1   H4A 2744   4.858   5.611   6.710 -1.4521  0.5473  3.6281
   38CHL1   H4B 2745   5.021   5.640   6.652 -1.3174  0.6692 -2.7436
   38CHL1    C5 2746   4.985   5.733   6.848 -0.5065 -0.4464 -0.3238
   38CHL1    C6 2747   5.106   5.710   6.894 -0.7394 -0.1467  0.7725
   38CHL1    H6 2748   5.178   5.666   6.823 -1.0052  0.5843  0.0350
   38CHL1    C7 2749   5.157   5.747   7.034 -0.6528 -0.2783 -0.0124
   38CHL1   H7A 2750   5.225   5.673   7.080  0.3706  0.8054  0.2419
   38CHL1   H7B 2751   5.214   5.843   7.028 -0.8677 -0.1353  0.2269
   38CHL1    C8 2752   5.036   5.766   7.131  0.3274 -0.2012  0.2724
   38CHL1    H8 2753   4.997   5.662   7.138 -2.1804  0.6962 -0.0046
   38CHL1   C14 2754   5.092   5.808   7.264 -0.3538  0.4225  0.1186
   38CHL1   H14 2755   5.148   5.902   7.243 -1.9597  1.4531  0.3248
   38CHL1   C15 2756   5.185   5.704   7.326  0.0552  0.4258  0.1636
   38CHL1  H15A 2757   5.126   5.609   7.328 -0.3470  0.6990  1.6785
   38CHL1  H15B 2758   5.290   5.687   7.295 -0.1646 -0.5087 -0.0986
   38CHL1   C16 2759   5.184   5.755   7.472  0.1403  0.0721  0.0944
   38CHL1  H16A 2760   5.148   5.679   7.545 -0.4657  0.7486  0.5045
   38CHL1  H16B 2761   5.284   5.795   7.500  0.6091 -1.1749  0.2175
   38CHL1   C17 2762   5.069   5.871   7.481  0.1688 -0.4776  0.4630
   38CHL1   H17 2763   5.122   5.965   7.454 -0.0218 -0.5362 -0.1219
   38CHL1   C13 2764   4.982   5.834   7.364 -0.4257  0.9207 -0.1277
   38CHL1   C18 2765   4.903   5.706   7.395  0.1788  0.1635  0.2656
   38CHL1  H18A 2766   4.868   5.649   7.306  4.1822  0.2145 -1.4384
   38CHL1  H18B 2767   4.954   5.627   7.453 -0.7258 -2.5856 -2.5300
   38CHL1  H18C 2768   4.812   5.742   7.449  1.1937  0.2333  1.9427
   38CHL1   C12 2769   4.893   5.946   7.300 -0.3142 -0.4536 -0.0188
   38CHL1  H12A 2770   4.820   5.992   7.369 -1.7078 -1.4637 -0.7984
   38CHL1  H12B 2771   4.958   6.033   7.275 -1.6146  0.0488 -1.7659
   38CHL1   C11 2772   4.822   5.889   7.176  0.2538  0.6890 -0.2395
   38CHL1  H11A 2773   4.753   5.808   7.208  0.2836  0.2315 -1.3044
   38CHL1  H11B 2774   4.751   5.965   7.139 -0.1690 -0.6241 -2.2249
   38CHL1    C9 2775   4.930   5.854   7.065 -0.7237  0.5310 -0.1668
   38CHL1    H9 2776   4.968   5.956   7.046 -2.7609  1.1293 -1.2518
   38CHL1   C10 2777   4.867   5.792   6.933  0.1057  0.1743  0.0284
   38CHL1   C19 2778   4.760   5.686   6.962 -0.5068 -0.5038  0.2256
   38CHL1  H19A 2779   4.682   5.719   7.033 -1.6325  0.1054 -1.2594
   38CHL1  H19B 2780   4.703   5.655   6.872 -1.8042  0.0246  0.8679
   38CHL1  H19C 2781   4.805   5.592   6.999  1.9509 -0.1148 -1.5718
   38CHL1    C1 2782   4.813   5.912   6.861 -0.3963 -0.2181  0.3619
   38CHL1   H1A 2783   4.733   5.951   6.926  0.2100  1.6432  0.0148
   38CHL1   H1B 2784   4.904   5.976   6.861  0.3596 -1.2468 -1.0476
   38CHL1    C2 2785   4.775   5.879   6.720  0.6494 -0.3526  0.2206
   38CHL1   H2A 2786   4.741   5.976   6.679  0.0492 -0.9013 -0.6040
   38CHL1   H2B 2787   4.686   5.812   6.711  0.8034 -0.3526 -1.6273
   38CHL1   C20 2788   4.999   5.885   7.615 -0.2663  0.6483 -0.7088
   38CHL1   H20 2789   4.919   5.809   7.628  0.6123 -0.0889  0.4036
   38CHL1   C21 2790   4.928   6.022   7.618 -0.9400 -0.5505  0.6076
   38CHL1  H21A 2791   4.975   6.086   7.695  0.8646 -0.8009 -0.2734
   38CHL1  H21B 2792   4.819   6.027   7.640 -1.4072  2.0101 -2.0906
   38CHL1  H21C 2793   4.943   6.077   7.523 -1.5699 -1.8732 -0.2766
   38CHL1   C22 2794   5.102   5.877   7.733  0.7099  0.5166 -0.0801
   38CHL1  H22A 2795   5.149   5.776   7.741  0.7080  0.3182 -2.1844
   38CHL1  H22B 2796   5.179   5.951   7.704 -0.0110  0.5279 -2.1006
   38CHL1   C23 2797   5.049   5.889   7.877 -0.2519  0.2491  0.3395
   38CHL1  H23A 2798   4.997   5.986   7.892  0.0395  0.0717  2.5667
   38CHL1  H23B 2799   4.980   5.807   7.904 -0.7393  0.1916 -1.0627
   38CHL1   C24 2800   5.173   5.887   7.972  0.2432  0.8811  0.1506
   38CHL1  H24A 2801   5.222   5.790   7.948 -0.9690  0.2559  0.1602
   38CHL1  H24B 2802   5.253   5.960   7.949 -0.1311  1.1514 -0.3188
   38CHL1   C25 2803   5.132   5.889   8.119  0.4648 -0.0761  0.5855
   38CHL1   H25 2804   5.058   5.809   8.141 -1.8422  1.1564 -2.3942
   38CHL1   C26 2805   5.254   5.851   8.195 -0.5372  0.4426 -0.2032
   38CHL1  H26A 2806   5.251   5.883   8.302 -0.0432 -1.2511  0.3260
   38CHL1  H26B 2807   5.269   5.742   8.186 -1.4743  0.2071  1.0124
   38CHL1  H26C 2808   5.343   5.894   8.144 -0.4267  1.8770  1.1383
   38CHL1   C27 2809   5.082   6.022   8.172 -0.1538  0.3996  0.2337
   38CHL1  H27A 2810   5.009   6.062   8.099  0.3024  0.8979  0.0452
   38CHL1  H27B 2811   5.033   6.014   8.271  0.5511  0.8239  0.6281
   38CHL1  H27C 2812   5.158   6.100   8.197 -1.3317  2.7953 -3.3578
   39CHL1    C3 2813   4.518   4.376   6.857 -0.0206  0.2215  0.4047
   39CHL1    H3 2814   4.624   4.409   6.849  0.4328 -1.0809  1.0643
   39CHL1    O3 2815   4.458   4.384   6.732  1.1087  0.0528 -0.1848
   39CHL1   H3' 2816   4.385   4.322   6.732 -0.3736  1.7612  0.0753
   39CHL1    C4 2817   4.502   4.231   6.908  0.0285  0.5767 -0.1389
   39CHL1   H4A 2818   4.396   4.197   6.904 -0.0288  0.6398  0.7394
   39CHL1   H4B 2819   4.559   4.160   6.845  1.4373  0.7195  0.9550
   39CHL1    C5 2820   4.562   4.218   7.048  0.2910 -0.6637 -0.0778
   39CHL1    C6 2821   4.665   4.135   7.075  0.0580 -0.4543  0.5043
   39CHL1    H6 2822   4.699   4.066   6.997  0.1061 -0.4453  0.5176
   39CHL1    C7 2823   4.719   4.117   7.213 -1.1295  0.3691 -0.1835
   39CHL1   H7A 2824   4.744   4.011   7.233 -2.1213 -0.0313 -0.9967
   39CHL1   H7B 2825   4.813   4.176   7.209  0.0089 -1.3329  1.1328
   39CHL1    C8 2826   4.628   4.171   7.327  0.2882 -0.0884 -0.2423
   39CHL1    H8 2827   4.548   4.095   7.330 -1.6154  1.8406 -1.0159
   39CHL1   C14 2828   4.701   4.183   7.463  0.2335  0.2016 -1.2172
   39CHL1   H14 2829   4.793   4.240   7.441  0.7497 -0.7918 -1.6510
   39CHL1   C15 2830   4.761   4.047   7.513  0.6946 -0.1792  0.9470
   39CHL1  H15A 2831   4.676   3.976   7.513  0.5158 -0.0126 -1.9333
   39CHL1  H15B 2832   4.840   4.003   7.449  0.8739  0.3210  0.8202
   39CHL1   C16 2833   4.818   4.093   7.655 -0.6628  0.2607  0.2369
   39CHL1  H16A 2834   4.804   4.015   7.732  2.0311 -0.6445 -0.1234
   39CHL1  H16B 2835   4.928   4.096   7.637 -0.0475  0.5170  3.7272
   39CHL1   C17 2836   4.738   4.224   7.685 -0.2540  0.4749  0.0717
   39CHL1   H17 2837   4.817   4.297   7.656  0.7334 -0.5376  0.1703
   39CHL1   C13 2838   4.630   4.237   7.580  0.3736 -0.2951  0.2541
   39CHL1   C18 2839   4.500   4.153   7.609  0.5470  0.6386  0.3481
   39CHL1  H18A 2840   4.434   4.149   7.520  2.6329  2.1449 -1.3530
   39CHL1  H18B 2841   4.543   4.055   7.639  1.5549  1.5978  2.1497
   39CHL1  H18C 2842   4.445   4.193   7.697  0.5309 -0.1652  0.7082
   39CHL1   C12 2843   4.584   4.386   7.540  0.8175  0.0260 -0.3669
   39CHL1  H12A 2844   4.541   4.444   7.624  1.2149  1.3814 -1.0926
   39CHL1  H12B 2845   4.674   4.445   7.514  0.8297  0.0385 -0.2966
   39CHL1   C11 2846   4.498   4.382   7.410  0.0992  0.5439  0.0847
   39CHL1  H11A 2847   4.401   4.331   7.431  0.0927  1.2580  1.9276
   39CHL1  H11B 2848   4.482   4.488   7.381 -0.4354  0.8438  1.3980
   39CHL1    C9 2849   4.571   4.310   7.292 -0.9447 -0.2381 -0.3774
   39CHL1    H9 2850   4.666   4.365   7.280 -0.3048 -1.5052 -1.1831
   39CHL1   C10 2851   4.503   4.318   7.149 -0.2433  0.4803 -0.3927
   39CHL1   C19 2852   4.357   4.275   7.180  0.5380  0.0960  0.1808
   39CHL1  H19A 2853   4.357   4.178   7.233 -2.9259  0.6679  1.3604
   39CHL1  H19B 2854   4.308   4.349   7.246 -0.5084 -0.0397 -0.4207
   39CHL1  H19C 2855   4.299   4.265   7.085 -1.0425 -0.4491  1.1929
   39CHL1    C1 2856   4.504   4.465   7.090 -0.0465  0.3473 -0.1836
   39CHL1   H1A 2857   4.467   4.539   7.164 -0.8968  1.3236 -1.5665
   39CHL1   H1B 2858   4.611   4.494   7.081 -0.2974  0.9554 -1.3627
   39CHL1    C2 2859   4.436   4.477   6.953 -0.3042  0.4457  0.1682
   39CHL1   H2A 2860   4.441   4.582   6.915 -0.0395  0.9583  1.5900
   39CHL1   H2B 2861   4.330   4.445   6.954  0.1034 -0.8883  1.3083
   39CHL1   C20 2862   4.695   4.261   7.824 -0.0556  0.2017  0.8021
   39CHL1   H20 2863   4.618   4.341   7.818 -2.4944 -2.2526 -4.6235
   39CHL1   C21 2864   4.812   4.335   7.893 -0.1138  0.4928  0.6077
   39CHL1  H21A 2865   4.851   4.414   7.825 -0.8579 -1.1619 -1.8463
   39CHL1  H21B 2866   4.896   4.264   7.908 -0.8716 -0.1153  2.0116
   39CHL1  H21C 2867   4.782   4.382   7.989 -2.8869 -1.2141  0.6454
   39CHL1   C22 2868   4.639   4.151   7.915 -0.7134 -0.1416  0.2271
   39CHL1  H22A 2869   4.564   4.094   7.856 -0.7563 -1.7085  1.7476
   39CHL1  H22B 2870   4.717   4.078   7.946  0.4021  1.9505  2.5962
   39CHL1   C23 2871   4.559   4.198   8.041  0.8507  0.1015 -0.3812
   39CHL1  H23A 2872   4.626   4.262   8.102 -0.0827  0.3296  0.4164
   39CHL1  H23B 2873   4.477   4.258   7.997  0.5949 -1.2727 -1.8455
   39CHL1   C24 2874   4.494   4.086   8.125  0.8854  1.2384 -0.1123
   39CHL1  H24A 2875   4.469   3.995   8.066  2.8778  0.0753  0.7927
   39CHL1  H24B 2876   4.577   4.052   8.190  1.3170  0.7842 -0.8872
   39CHL1   C25 2877   4.378   4.126   8.212  0.1789  0.0826 -0.2664
   39CHL1   H25 2878   4.350   4.029   8.259  2.9981 -0.1877  0.9811
   39CHL1   C26 2879   4.422   4.221   8.319 -0.2685  0.3223 -0.2375
   39CHL1  H26A 2880   4.425   4.328   8.288  0.7483  0.0034 -1.2681
   39CHL1  H26B 2881   4.352   4.237   8.404 -0.0388 -1.8499  0.3778
   39CHL1  H26C 2882   4.526   4.194   8.347 -0.4081 -0.5526 -0.5586
   39CHL1   C27 2883   4.244   4.176   8.160 -0.5348 -0.3315  0.0107
   39CHL1  H27A 2884   4.164   4.182   8.236 -2.0214  3.3609 -1.7347
   39CHL1  H27B 2885   4.264   4.277   8.118  0.0285 -0.7525 -0.7477
   39CHL1  H27C 2886   4.220   4.111   8.074 -2.0241 -0.9551  0.8706
   40CHL1    C3 2887   0.404   3.302   6.997  0.5100 -0.4332  0.7415
   40CHL1    H3 2888   0.298   3.322   7.022 -0.4648 -2.7773 -1.3206
   40CHL1    O3 2889   0.421   3.351   6.863  0.2876  0.1641  0.2477
   40CHL1   H3' 2890   0.500   3.306   6.833 -0.1115  0.4812 -1.3254
   40CHL1    C4 2891   0.496   3.383   7.088 -0.3165 -0.5140 -0.0070
   40CHL1   H4A 2892   0.598   3.387   7.047 -1.5771  0.5427 -3.1598
   40CHL1   H4B 2893   0.458   3.487   7.083  1.2865  0.2089  2.1940
   40CHL1    C5 2894   0.489   3.322   7.232  0.4501  0.2291  0.1419
   40CHL1    C6 2895   0.460   3.388   7.340  0.8248  0.3389 -0.3553
   40CHL1    H6 2896   0.436   3.495   7.336  0.1047  0.2082  0.4001
   40CHL1    C7 2897   0.485   3.340   7.476  0.3911 -0.6510  0.2041
   40CHL1   H7A 2898   0.552   3.411   7.530  2.1932 -2.5248  0.5049
   40CHL1   H7B 2899   0.391   3.337   7.535  1.1774 -2.1346  1.4327
   40CHL1    C8 2900   0.549   3.204   7.482 -0.2221 -0.4055 -0.4604
   40CHL1    H8 2901   0.657   3.222   7.461 -0.0970  1.1407  1.3712
   40CHL1   C14 2902   0.539   3.141   7.613  0.3122 -0.1860 -0.0035
   40CHL1   H14 2903   0.430   3.135   7.630  0.1228  0.6574 -0.9300
   40CHL1   C15 2904   0.594   3.221   7.741 -0.6795 -0.2070 -0.1783
   40CHL1  H15A 2905   0.688   3.273   7.715  0.4857 -1.5547  1.2387
   40CHL1  H15B 2906   0.505   3.283   7.766  0.4990  1.1163  0.7705
   40CHL1   C16 2907   0.623   3.110   7.850 -0.6900 -0.0486 -0.4766
   40CHL1  H16A 2908   0.732   3.115   7.868 -0.8859  0.3399  0.6192
   40CHL1  H16B 2909   0.569   3.135   7.944 -0.6030  0.6156 -0.6072
   40CHL1   C17 2910   0.575   2.983   7.784 -0.0127  0.1179 -0.3244
   40CHL1   H17 2911   0.468   2.971   7.811 -0.3811 -0.3488 -1.9352
   40CHL1   C13 2912   0.597   3.003   7.634  0.0785  0.0709 -0.7968
   40CHL1   C18 2913   0.751   3.025   7.605  0.0849  0.9992 -1.2809
   40CHL1  H18A 2914   0.807   2.929   7.609 -3.1523 -1.0172 -2.5784
   40CHL1  H18B 2915   0.764   3.054   7.499  2.8164  1.2418 -0.9224
   40CHL1  H18C 2916   0.800   3.101   7.670 -0.9726  0.2081  0.4829
   40CHL1   C12 2917   0.528   2.909   7.536 -0.4805 -0.0105 -0.2615
   40CHL1  H12A 2918   0.580   2.811   7.543  0.6355  0.7427  3.0147
   40CHL1  H12B 2919   0.423   2.883   7.561 -0.8777  0.3908 -1.4915
   40CHL1   C11 2920   0.523   2.960   7.392 -0.5010  0.8999 -0.2667
   40CHL1  H11A 2921   0.624   2.942   7.349 -0.3852  0.9375 -0.0060
   40CHL1  H11B 2922   0.441   2.906   7.340 -1.1656 -0.2383  1.8967
   40CHL1    C9 2923   0.496   3.110   7.371 -0.5473  0.5582  0.6709
   40CHL1    H9 2924   0.388   3.107   7.397 -0.5907  0.8030  0.5147
   40CHL1   C10 2925   0.520   3.167   7.235 -0.1952 -0.5438  1.0875
   40CHL1   C19 2926   0.666   3.152   7.199 -0.8725  0.2940  0.0392
   40CHL1  H19A 2927   0.696   3.189   7.099  0.0109 -0.5874 -0.0308
   40CHL1  H19B 2928   0.728   3.212   7.269 -0.2109 -0.3787  0.0422
   40CHL1  H19C 2929   0.707   3.048   7.202 -1.3947  0.0324 -1.5432
   40CHL1    C1 2930   0.432   3.084   7.133 -0.0129 -0.0017  0.7361
   40CHL1   H1A 2931   0.474   2.982   7.118 -0.9692  0.0187 -2.4503
   40CHL1   H1B 2932   0.327   3.079   7.167  0.1684  0.7310  1.3901
   40CHL1    C2 2933   0.415   3.151   6.990  0.1532  0.7093  0.8438
   40CHL1   H2A 2934   0.333   3.101   6.934  2.8347 -1.0951 -1.6236
   40CHL1   H2B 2935   0.508   3.116   6.941 -0.1591  1.3240 -0.1933
   40CHL1   C20 2936   0.630   2.847   7.841 -0.2525  0.6469 -0.5019
   40CHL1   H20 2937   0.709   2.809   7.774 -0.7752  0.2046 -0.8687
   40CHL1   C21 2938   0.527   2.726   7.830 -0.0484  0.9147 -0.4593
   40CHL1  H21A 2939   0.444   2.741   7.903 -0.3836 -2.4551 -0.0839
   40CHL1  H21B 2940   0.565   2.625   7.855  1.5067  0.7150 -3.4200
   40CHL1  H21C 2941   0.476   2.733   7.732 -0.6881 -0.1145 -0.2021
   40CHL1   C22 2942   0.694   2.864   7.983 -0.3040  0.5943 -0.4182
   40CHL1  H22A 2943   0.790   2.912   7.955  1.0447 -1.6323  0.2740
   40CHL1  H22B 2944   0.643   2.943   8.042 -0.5224  1.7335 -2.0789
   40CHL1   C23 2945   0.709   2.732   8.064  0.6251 -0.3734  0.1512
   40CHL1  H23A 2946   0.614   2.693   8.104  1.4481 -1.6853  0.8567
   40CHL1  H23B 2947   0.759   2.655   8.001  1.6950  1.4403 -1.2970
   40CHL1   C24 2948   0.795   2.755   8.193 -0.7090  0.5215 -0.2057
   40CHL1  H24A 2949   0.819   2.656   8.237 -0.6275  1.6191  2.2960
   40CHL1  H24B 2950   0.892   2.794   8.156 -0.3148 -0.7785 -0.5859
   40CHL1   C25 2951   0.719   2.841   8.299 -0.3334  0.8949 -0.1727
   40CHL1   H25 2952   0.688   2.940   8.262  2.0819  1.7310 -0.0277
   40CHL1   C26 2953   0.587   2.771   8.354 -0.9772  0.0130  0.5631
   40CHL1  H26A 2954   0.513   2.772   8.272 -2.3217 -1.8248  1.7149
   40CHL1  H26B 2955   0.608   2.672   8.400  3.0827  0.9519  0.9959
   40CHL1  H26C 2956   0.541   2.827   8.438 -2.1010  0.3034 -0.2445
   40CHL1   C27 2957   0.820   2.870   8.408 -0.8301 -0.4530  0.3632
   40CHL1  H27A 2958   0.851   2.771   8.449 -0.6537 -0.0078  1.3150
   40CHL1  H27B 2959   0.908   2.920   8.362 -1.1404  0.1755  0.4409
   40CHL1  H27C 2960   0.777   2.932   8.489  0.0608 -2.5927  2.5471
   41CHL1    C3 2961   1.421   3.567   6.877  0.3033 -0.6956  0.1419
   41CHL1    H3 2962   1.482   3.660   6.890 -1.8022  0.5785  1.2843
   41CHL1    O3 2963   1.385   3.561   6.741 -0.1021  0.5437  0.0800
   41CHL1   H3' 2964   1.325   3.634   6.726 -0.2563  0.3632 -0.1709
   41CHL1    C4 2965   1.496   3.441   6.920 -0.8235  1.0830 -0.1162
   41CHL1   H4A 2966   1.433   3.352   6.897  0.2720  0.7238 -1.7788
   41CHL1   H4B 2967   1.586   3.419   6.859  1.1691  0.1390  3.0221
   41CHL1    C5 2968   1.535   3.438   7.064  0.5274 -0.1769  0.1882
   41CHL1    C6 2969   1.659   3.419   7.107  0.0638  0.2246  0.2823
   41CHL1    H6 2970   1.727   3.413   7.021 -3.0515 -2.0033 -2.1281
   41CHL1    C7 2971   1.718   3.418   7.243  0.5664 -0.3851  0.1099
   41CHL1   H7A 2972   1.788   3.333   7.261  2.3342  1.1344  0.6711
   41CHL1   H7B 2973   1.760   3.516   7.274 -0.3544  1.3084 -3.7809
   41CHL1    C8 2974   1.597   3.412   7.345 -0.1852 -0.6494 -0.0155
   41CHL1    H8 2975   1.553   3.310   7.349  0.8938 -1.0158  3.4271
   41CHL1   C14 2976   1.637   3.448   7.484  0.4692  0.1201  0.1203
   41CHL1   H14 2977   1.666   3.555   7.472  1.3807 -0.3721 -2.3833
   41CHL1   C15 2978   1.762   3.368   7.538  0.6538  0.0237 -0.2689
   41CHL1  H15A 2979   1.761   3.272   7.482  2.3359 -0.2417  0.1268
   41CHL1  H15B 2980   1.862   3.412   7.522  0.2991  0.8422 -0.2772
   41CHL1   C16 2981   1.729   3.345   7.685  0.2263  0.5816 -0.2326
   41CHL1  H16A 2982   1.692   3.241   7.698 -1.9215  1.5225  1.4069
   41CHL1  H16B 2983   1.825   3.346   7.742 -0.1374 -0.7099  0.4349
   41CHL1   C17 2984   1.621   3.448   7.720 -0.7863  0.2123  0.1715
   41CHL1   H17 2985   1.674   3.546   7.716 -0.2579 -0.0653  0.4627
   41CHL1   C13 2986   1.529   3.446   7.593  0.4468  0.2673 -0.0830
   41CHL1   C18 2987   1.452   3.314   7.602  0.1499  0.2092  0.4980
   41CHL1  H18A 2988   1.414   3.306   7.705  0.7044  0.7729  0.7516
   41CHL1  H18B 2989   1.372   3.294   7.528 -0.3122 -0.1792  1.1061
   41CHL1  H18C 2990   1.522   3.228   7.600 -0.1853 -0.0647  0.7508
   41CHL1   C12 2991   1.431   3.567   7.559  0.2935  0.4788  0.0803
   41CHL1  H12A 2992   1.346   3.561   7.630 -0.0201 -0.4190 -0.3667
   41CHL1  H12B 2993   1.489   3.661   7.570  0.5491  0.3358 -0.0404
   41CHL1   C11 2994   1.380   3.550   7.415 -0.4055 -0.3432 -0.0758
   41CHL1  H11A 2995   1.301   3.472   7.424 -2.9798  2.2617  0.6372
   41CHL1  H11B 2996   1.326   3.640   7.379  0.2067 -0.2520 -0.7761
   41CHL1    C9 2997   1.492   3.511   7.300 -0.1405 -0.3431 -0.2447
   41CHL1    H9 2998   1.543   3.608   7.284 -0.1401  0.1899  2.6842
   41CHL1   C10 2999   1.426   3.482   7.161 -0.2747  0.0373 -0.8320
   41CHL1   C19 3000   1.328   3.366   7.185 -0.3699  0.7370  0.6543
   41CHL1  H19A 3001   1.290   3.318   7.092 -0.9830  0.1009  1.2246
   41CHL1  H19B 3002   1.382   3.278   7.227  3.1415  1.6977 -1.5989
   41CHL1  H19C 3003   1.239   3.392   7.246 -0.2026 -0.8138  1.5874
   41CHL1    C1 3004   1.339   3.608   7.113  0.3877 -1.2314  0.2826
   41CHL1   H1A 3005   1.244   3.611   7.170  0.0149  2.4605 -0.4037
   41CHL1   H1B 3006   1.395   3.702   7.137  0.4069 -1.1908  0.0748
   41CHL1    C2 3007   1.296   3.590   6.967 -0.7316  0.3601 -0.5031
   41CHL1   H2A 3008   1.249   3.687   6.943 -1.2645  0.2384  0.0495
   41CHL1   H2B 3009   1.217   3.514   6.952 -2.6422  2.0146  1.0249
   41CHL1   C20 3010   1.556   3.436   7.865  0.4294 -0.2042 -0.2541
   41CHL1   H20 3011   1.480   3.356   7.868  0.5745 -0.3322  0.0628
   41CHL1   C21 3012   1.482   3.568   7.906  0.2268 -0.6092 -0.1971
   41CHL1  H21A 3013   1.427   3.552   8.002  1.6543 -1.3490  0.5201
   41CHL1  H21B 3014   1.413   3.602   7.827  1.9817  2.0380 -0.6682
   41CHL1  H21C 3015   1.553   3.651   7.925  1.2395 -1.4185 -0.3816
   41CHL1   C22 3016   1.665   3.400   7.967  0.0035 -0.7206 -0.4025
   41CHL1  H22A 3017   1.728   3.313   7.940  3.0869  1.1462  0.4559
   41CHL1  H22B 3018   1.726   3.493   7.978 -0.3856 -0.3535 -1.3205
   41CHL1   C23 3019   1.595   3.369   8.107  0.9387 -0.5574 -0.1101
   41CHL1  H23A 3020   1.524   3.450   8.133 -0.9077 -1.8061 -1.1342
   41CHL1  H23B 3021   1.538   3.274   8.097  0.5534 -0.4588  1.0516
   41CHL1   C24 3022   1.705   3.356   8.213 -0.2829 -0.6083  0.1041
   41CHL1  H24A 3023   1.767   3.268   8.186  1.2565 -0.4128  2.8046
   41CHL1  H24B 3024   1.777   3.441   8.221 -1.4821  0.3284  1.1546
   41CHL1   C25 3025   1.642   3.330   8.354 -0.3208  0.4098 -0.1585
   41CHL1   H25 3026   1.558   3.401   8.364 -2.8183 -2.4870 -0.0246
   41CHL1   C26 3027   1.606   3.175   8.372 -0.0185 -0.6276  0.5871
   41CHL1  H26A 3028   1.551   3.138   8.282  0.6874 -0.8670  0.2492
   41CHL1  H26B 3029   1.703   3.122   8.380  0.5511  0.0163 -1.5766
   41CHL1  H26C 3030   1.545   3.159   8.463 -0.3600 -1.1696  0.2696
   41CHL1   C27 3031   1.738   3.350   8.473  0.1746  0.4480  0.3603
   41CHL1  H27A 3032   1.700   3.318   8.573 -0.3830  3.1762  1.0810
   41CHL1  H27B 3033   1.827   3.288   8.451  0.4068  0.0841  2.1997
   41CHL1  H27C 3034   1.759   3.459   8.482  0.9800  0.3437 -0.1931
   42CHL1    C3 3035   1.764   0.192   6.983 -0.8732 -0.4733 -0.8054
   42CHL1    H3 3036   1.740   0.094   7.028  2.8988 -0.1633  2.1238
   42CHL1    O3 3037   1.742   0.202   6.841 -0.3000 -0.0009 -0.1426
   42CHL1   H3' 3038   1.708   0.117   6.812 -0.6406 -0.3723  1.3117
   42CHL1    C4 3039   1.673   0.294   7.052 -0.5017  0.4084 -0.3517
   42CHL1   H4A 3040   1.712   0.390   7.014 -1.9879  1.7596  1.4509
   42CHL1   H4B 3041   1.570   0.283   7.013  0.5425 -1.3771 -2.7268
   42CHL1    C5 3042   1.685   0.299   7.201  0.2378  0.6789  0.5738
   42CHL1    C6 3043   1.580   0.276   7.275  0.3382  0.7354  0.4355
   42CHL1    H6 3044   1.488   0.256   7.218  0.3942 -3.2690  1.6112
   42CHL1    C7 3045   1.585   0.270   7.426 -0.4947 -0.0212  0.3440
   42CHL1   H7A 3046   1.522   0.343   7.479  2.0648  0.6261  2.5884
   42CHL1   H7B 3047   1.552   0.170   7.461 -0.2078 -1.3650 -2.9922
   42CHL1    C8 3048   1.729   0.308   7.491 -0.5321 -0.6298 -0.8040
   42CHL1    H8 3049   1.733   0.419   7.485  0.0985 -0.3811  2.6920
   42CHL1   C14 3050   1.746   0.268   7.637  0.1241  0.2299  0.4195
   42CHL1   H14 3051   1.741   0.158   7.630  0.5420  0.0347  2.7544
   42CHL1   C15 3052   1.634   0.313   7.735  0.3074 -1.2028 -0.0745
   42CHL1  H15A 3053   1.608   0.417   7.708  0.3857 -0.2245  3.3595
   42CHL1  H15B 3054   1.541   0.253   7.736 -0.7481  0.4280 -0.0125
   42CHL1   C16 3055   1.703   0.309   7.866  0.6155  0.2034  0.3614
   42CHL1  H16A 3056   1.709   0.409   7.914  0.9479  1.1648 -1.6319
   42CHL1  H16B 3057   1.651   0.248   7.943 -2.1938  0.9160 -0.8994
   42CHL1   C17 3058   1.854   0.267   7.844  0.5512 -0.0916  1.3550
   42CHL1   H17 3059   1.858   0.157   7.862  0.4422 -0.0187  1.8258
   42CHL1   C13 3060   1.874   0.311   7.698 -1.0994 -0.2617  0.3246
   42CHL1   C18 3061   1.888   0.465   7.698  0.0060 -0.7857  0.0188
   42CHL1  H18A 3062   1.810   0.524   7.750 -0.9747  0.4380 -2.7482
   42CHL1  H18B 3063   1.991   0.493   7.730  0.0991 -1.6993  0.5379
   42CHL1  H18C 3064   1.874   0.506   7.596  0.1047  0.9057  0.6727
   42CHL1   C12 3065   1.983   0.228   7.617  0.4446 -0.0207 -0.2541
   42CHL1  H12A 3066   2.079   0.254   7.667  0.6592  0.5653 -0.9638
   42CHL1  H12B 3067   1.964   0.119   7.627 -1.7675  0.3809  0.2376
   42CHL1   C11 3068   1.981   0.263   7.468  0.2258  0.0430  0.6326
   42CHL1  H11A 3069   2.014   0.368   7.458  1.6832 -0.5469 -1.1642
   42CHL1  H11B 3070   2.060   0.201   7.420  1.9559  1.5023  1.5361
   42CHL1    C9 3071   1.842   0.247   7.405 -0.2196  0.2360  0.1184
   42CHL1    H9 3072   1.814   0.139   7.407 -0.7213  0.3494 -0.5605
   42CHL1   C10 3073   1.830   0.297   7.260  0.1569  0.1318  0.0069
   42CHL1   C19 3074   1.884   0.443   7.244 -0.2526 -0.6013 -0.1648
   42CHL1  H19A 3075   1.994   0.439   7.255 -0.3529 -1.3557  0.5606
   42CHL1  H19B 3076   1.862   0.495   7.148 -1.1503  0.4964  0.6115
   42CHL1  H19C 3077   1.841   0.525   7.306  2.8946  0.2870  0.9348
   42CHL1    C1 3078   1.922   0.200   7.180 -0.0588 -0.0057  0.0456
   42CHL1   H1A 3079   2.027   0.209   7.216 -0.4975 -2.8495  2.1980
   42CHL1   H1B 3080   1.887   0.099   7.209  1.5803 -0.6614 -0.1543
   42CHL1    C2 3081   1.903   0.220   7.027 -0.3732 -0.0184  0.2876
   42CHL1   H2A 3082   1.968   0.149   6.972  0.6945  2.6604 -2.0075
   42CHL1   H2B 3083   1.941   0.322   7.004  0.6001  0.1563  2.5925
   42CHL1   C20 3084   1.956   0.325   7.944  0.0900 -0.1070  1.1967
   42CHL1   H20 3085   1.974   0.434   7.934 -0.4140  0.1462  2.8030
   42CHL1   C21 3086   2.092   0.252   7.932 -0.3854  0.1689  0.8866
   42CHL1  H21A 3087   2.085   0.145   7.901 -0.8007  0.2088  0.8323
   42CHL1  H21B 3088   2.157   0.257   8.022  0.6023 -0.3578  0.2063
   42CHL1  H21C 3089   2.166   0.288   7.858 -0.0153 -0.5885  0.8902
   42CHL1   C22 3090   1.913   0.312   8.090  0.0453 -0.2227 -0.4503
   42CHL1  H22A 3091   1.812   0.358   8.090  0.9553  1.8908 -2.0889
   42CHL1  H22B 3092   1.905   0.201   8.100 -1.0720  0.0504  2.0873
   42CHL1   C23 3093   1.998   0.366   8.207  0.3522 -1.0893 -0.0130
   42CHL1  H23A 3094   1.944   0.348   8.303 -1.2808 -0.0739 -0.7217
   42CHL1  H23B 3095   2.089   0.302   8.210  1.6374  0.6184 -1.4719
   42CHL1   C24 3096   2.021   0.519   8.202 -0.3406 -0.2069 -0.5737
   42CHL1  H24A 3097   2.052   0.552   8.100 -1.6264 -0.6161 -1.1145
   42CHL1  H24B 3098   1.927   0.572   8.228 -0.0280  1.0316 -1.8748
   42CHL1   C25 3099   2.114   0.575   8.319 -0.2925 -0.1514  0.2976
   42CHL1   H25 3100   2.209   0.518   8.319 -0.7179 -0.8648 -0.5776
   42CHL1   C26 3101   2.145   0.718   8.294  0.7314  1.0788  0.1086
   42CHL1  H26A 3102   2.225   0.758   8.228  0.2353  1.4623 -0.2663
   42CHL1  H26B 3103   2.050   0.770   8.268  0.5132  1.1026  0.9229
   42CHL1  H26C 3104   2.166   0.751   8.399 -0.1384 -0.7319  0.8581
   42CHL1   C27 3105   2.043   0.571   8.462 -0.0300 -0.4841  0.2269
   42CHL1  H27A 3106   2.106   0.604   8.547 -0.1920  0.6958 -0.0936
   42CHL1  H27B 3107   1.999   0.472   8.486 -0.8930 -0.4328 -1.1083
   42CHL1  H27C 3108   1.950   0.632   8.460 -1.9679 -3.3894 -1.0149
   43CHL1    C3 3109   2.455   4.409   6.814  0.4567  0.0468 -0.5735
   43CHL1    H3 3110   2.532   4.489   6.808  0.8530 -0.3936 -1.5135
   43CHL1    O3 3111   2.443   4.352   6.682 -0.3130  0.4451  0.2310
   43CHL1   H3' 3112   2.501   4.275   6.680 -1.8213 -0.8266  2.7060
   43CHL1    C4 3113   2.511   4.307   6.923 -0.1278 -0.8275  0.3597
   43CHL1   H4A 3114   2.438   4.223   6.930  0.1885 -1.1891 -0.6099
   43CHL1   H4B 3115   2.601   4.252   6.887  1.2702  0.7124  1.4242
   43CHL1    C5 3116   2.526   4.372   7.053  0.1289  0.5702  0.2510
   43CHL1    C6 3117   2.642   4.374   7.134  0.0402 -0.6286  0.1051
   43CHL1    H6 3118   2.735   4.334   7.090  0.1517  1.4948 -1.6593
   43CHL1    C7 3119   2.656   4.426   7.276  0.6805 -0.2478 -0.4900
   43CHL1   H7A 3120   2.728   4.372   7.341 -1.0984 -2.9721 -0.6662
   43CHL1   H7B 3121   2.683   4.533   7.271 -2.8241  0.6648 -1.1769
   43CHL1    C8 3122   2.513   4.436   7.338 -0.1383  0.4094 -0.2165
   43CHL1    H8 3123   2.475   4.337   7.371  1.0409 -0.3177 -1.0152
   43CHL1   C14 3124   2.523   4.526   7.465  1.0403 -0.2743  0.7741
   43CHL1   H14 3125   2.552   4.627   7.429 -0.9651  0.2950  0.6819
   43CHL1   C15 3126   2.625   4.477   7.577 -0.2593  0.3810 -0.6912
   43CHL1  H15A 3127   2.621   4.368   7.596 -2.7593  0.4606 -0.5946
   43CHL1  H15B 3128   2.727   4.510   7.548 -0.6637  1.5730 -0.7971
   43CHL1   C16 3129   2.581   4.537   7.711 -0.1579 -0.5660  0.6696
   43CHL1  H16A 3130   2.566   4.467   7.796  2.2547 -1.2873  0.5569
   43CHL1  H16B 3131   2.652   4.619   7.735  0.1645 -0.6874  0.1476
   43CHL1   C17 3132   2.452   4.617   7.668  0.1267 -0.3810 -0.1547
   43CHL1   H17 3133   2.484   4.714   7.624 -0.5271 -2.1355 -4.9137
   43CHL1   C13 3134   2.394   4.551   7.545 -0.0594  0.3724 -1.3082
   43CHL1   C18 3135   2.324   4.424   7.592 -1.3274  0.2009  0.6750
   43CHL1  H18A 3136   2.312   4.351   7.508  0.7848 -1.2236  1.5511
   43CHL1  H18B 3137   2.393   4.376   7.665  0.4967 -0.4741 -1.4205
   43CHL1  H18C 3138   2.224   4.449   7.631  0.0203  2.2568  2.9398
   43CHL1   C12 3139   2.306   4.627   7.446  0.0743 -0.4884 -0.5229
   43CHL1  H12A 3140   2.203   4.645   7.484  0.4525  0.2034  0.1945
   43CHL1  H12B 3141   2.357   4.722   7.419  1.9804 -1.4655 -0.4265
   43CHL1   C11 3142   2.278   4.540   7.317  0.7069 -0.2186  0.0274
   43CHL1  H11A 3143   2.219   4.452   7.347 -0.0454  1.1260  2.6309
   43CHL1  H11B 3144   2.212   4.589   7.242 -1.2312 -1.4347  0.9245
   43CHL1    C9 3145   2.407   4.504   7.243  0.3669 -0.2860 -0.1058
   43CHL1    H9 3146   2.459   4.600   7.222 -1.0891  0.1933 -1.6325
   43CHL1   C10 3147   2.394   4.432   7.104 -0.1329  0.0914 -0.6489
   43CHL1   C19 3148   2.301   4.323   7.128  0.6667  0.1124 -0.3081
   43CHL1  H19A 3149   2.333   4.250   7.205 -2.5989  0.4116  1.3885
   43CHL1  H19B 3150   2.205   4.366   7.162 -1.0608 -3.5258 -0.3450
   43CHL1  H19C 3151   2.273   4.262   7.039  0.1387 -1.8374  1.1665
   43CHL1    C1 3152   2.329   4.530   7.001  0.2746  0.4557  0.0136
   43CHL1   H1A 3153   2.231   4.564   7.039 -0.2619 -2.3201  1.1837
   43CHL1   H1B 3154   2.397   4.617   6.984 -0.4935  1.2708  1.0921
   43CHL1    C2 3155   2.315   4.466   6.861  0.2280  0.0854 -0.2686
   43CHL1   H2A 3156   2.291   4.543   6.786  2.5128  1.8446  0.7522
   43CHL1   H2B 3157   2.232   4.393   6.866  0.3294 -0.1764 -2.0299
   43CHL1   C20 3158   2.360   4.635   7.794  0.3521 -0.0437  0.5361
   43CHL1   H20 3159   2.344   4.533   7.834 -1.6660  0.0095 -0.0652
   43CHL1   C21 3160   2.221   4.697   7.765 -0.0260  0.5659  0.5504
   43CHL1  H21A 3161   2.153   4.632   7.705  1.3136  3.4850 -4.4021
   43CHL1  H21B 3162   2.220   4.794   7.711  0.4313  0.5179  0.4578
   43CHL1  H21C 3163   2.169   4.720   7.861 -2.4981 -3.0294  0.1654
   43CHL1   C22 3164   2.428   4.726   7.901  0.5608 -0.2805  0.2788
   43CHL1  H22A 3165   2.537   4.705   7.899  0.8790  1.2817  0.6384
   43CHL1  H22B 3166   2.422   4.833   7.870  1.1039 -0.0984  0.7801
   43CHL1   C23 3167   2.373   4.717   8.038 -0.4518  0.1449 -0.3472
   43CHL1  H23A 3168   2.267   4.749   8.043 -0.0750  1.1953  1.3252
   43CHL1  H23B 3169   2.386   4.612   8.070  1.4422  0.6949  0.7706
   43CHL1   C24 3170   2.450   4.815   8.133  0.3687 -0.0091  0.0689
   43CHL1  H24A 3171   2.556   4.794   8.107 -0.5951 -1.2974 -3.0594
   43CHL1  H24B 3172   2.431   4.921   8.106 -1.1007  0.1610  1.6807
   43CHL1   C25 3173   2.432   4.789   8.281 -1.1234 -0.2978 -0.7048
   43CHL1   H25 3174   2.474   4.690   8.309 -0.8969 -0.0465 -0.1556
   43CHL1   C26 3175   2.496   4.893   8.377 -0.1374 -0.0311 -0.4194
   43CHL1  H26A 3176   2.451   4.884   8.477  0.9843 -0.2702  0.0771
   43CHL1  H26B 3177   2.606   4.877   8.373 -0.1699 -0.7770  1.4328
   43CHL1  H26C 3178   2.476   4.993   8.332  1.9105  0.9720  0.8221
   43CHL1   C27 3179   2.289   4.766   8.314  0.0014  0.0013 -0.3734
   43CHL1  H27A 3180   2.238   4.860   8.284 -1.6896 -0.7583  0.0273
   43CHL1  H27B 3181   2.242   4.679   8.264  0.7074 -0.7275  0.2076
   43CHL1  H27C 3182   2.274   4.737   8.420  1.6490  2.3027  0.5496
   44CHL1    C3 3183   1.988   3.068   6.767  0.1105  0.1454  0.4401
   44CHL1    H3 3184   2.086   3.020   6.789  0.5284  1.0386  0.5492
   44CHL1    O3 3185   1.993   3.098   6.632  0.0463 -0.0828 -0.4834
   44CHL1   H3' 3186   2.035   3.181   6.610 -1.1582  0.7008  0.0943
   44CHL1    C4 3187   1.869   2.972   6.801 -0.5374  0.1863  0.6791
   44CHL1   H4A 3188   1.776   3.021   6.765  0.3446  0.1178 -1.8441
   44CHL1   H4B 3189   1.870   2.882   6.735  0.3242  0.9906 -0.4257
   44CHL1    C5 3190   1.883   2.930   6.945 -0.8557 -0.4226  0.7861
   44CHL1    C6 3191   1.904   2.802   6.981  0.5334 -1.2926 -0.1050
   44CHL1    H6 3192   1.905   2.728   6.900  0.2432 -2.6548  1.1128
   44CHL1    C7 3193   1.920   2.745   7.124  0.5089  0.0338 -0.2471
   44CHL1   H7A 3194   1.856   2.658   7.151  1.5063 -0.1031  1.7926
   44CHL1   H7B 3195   2.024   2.709   7.140  0.6046 -0.7335 -2.5290
   44CHL1    C8 3196   1.884   2.854   7.229  0.1919 -0.3050 -0.3003
   44CHL1    H8 3197   1.774   2.856   7.220  0.2371 -0.1608 -0.8364
   44CHL1   C14 3198   1.941   2.818   7.365  0.2123 -0.4200 -0.0134
   44CHL1   H14 3199   2.051   2.833   7.363 -0.0532  1.6383 -1.8477
   44CHL1   C15 3200   1.913   2.675   7.417 -0.0376  0.1929  0.1240
   44CHL1  H15A 3201   1.805   2.652   7.409  0.2305 -1.6448  1.3920
   44CHL1  H15B 3202   1.965   2.594   7.361 -0.1652 -0.5659  1.0853
   44CHL1   C16 3203   1.960   2.685   7.562  0.2079 -0.1467  0.0642
   44CHL1  H16A 3204   1.889   2.630   7.628 -0.6677  0.9669  0.0452
   44CHL1  H16B 3205   2.057   2.631   7.577  0.2779  0.3764  1.5326
   44CHL1   C17 3206   1.967   2.839   7.602 -0.1349  0.2124 -0.7276
   44CHL1   H17 3207   2.074   2.866   7.595 -0.3091  0.3109 -3.5691
   44CHL1   C13 3208   1.903   2.914   7.483  0.2110  0.4420 -0.0603
   44CHL1   C18 3209   1.753   2.910   7.501  0.1879  0.0965  0.3317
   44CHL1  H18A 3210   1.716   2.812   7.539 -0.8477 -0.0380 -0.9705
   44CHL1  H18B 3211   1.719   2.987   7.573 -0.2118 -0.6030  0.9013
   44CHL1  H18C 3212   1.703   2.939   7.405 -1.4229 -2.6982  0.2765
   44CHL1   C12 3213   1.946   3.052   7.447  0.2192 -0.6238  0.1990
   44CHL1  H12A 3214   1.900   3.112   7.529  0.0650 -1.0905  0.4605
   44CHL1  H12B 3215   2.054   3.059   7.471  0.7767 -0.6094 -2.2020
   44CHL1   C11 3216   1.904   3.098   7.310 -0.1814  0.2933  0.1099
   44CHL1  H11A 3217   1.796   3.121   7.320 -0.0483  1.5092 -1.1374
   44CHL1  H11B 3218   1.962   3.190   7.288 -0.7461  0.2116 -1.7708
   44CHL1    C9 3219   1.930   2.997   7.195 -0.6205 -0.2650  0.2624
   44CHL1    H9 3220   2.040   2.986   7.199 -0.1906  1.5448 -4.1657
   44CHL1   C10 3221   1.877   3.044   7.051 -0.5602  0.1266 -0.4558
   44CHL1   C19 3222   1.731   3.082   7.061  0.2827 -0.2364  0.6213
   44CHL1  H19A 3223   1.697   3.127   6.965 -0.4007 -1.2229  0.3838
   44CHL1  H19B 3224   1.668   2.998   7.097  0.2818  0.3489  1.9937
   44CHL1  H19C 3225   1.723   3.172   7.125 -1.2822  0.6585 -0.8104
   44CHL1    C1 3226   1.970   3.162   7.014 -0.2438  0.5612 -0.2639
   44CHL1   H1A 3227   1.937   3.255   7.065 -2.6537 -0.9715  1.0144
   44CHL1   H1B 3228   2.072   3.139   7.052 -0.5120 -0.6067 -0.2304
   44CHL1    C2 3229   1.974   3.193   6.859 -0.7122 -0.6873  0.6589
   44CHL1   H2A 3230   2.057   3.260   6.828 -1.4353  0.3573  0.9511
   44CHL1   H2B 3231   1.880   3.248   6.837  0.7054  1.1265 -1.1017
   44CHL1   C20 3232   1.917   2.869   7.746 -0.5383  0.1313 -0.2638
   44CHL1   H20 3233   1.820   2.821   7.771 -0.6672  0.7108  0.3748
   44CHL1   C21 3234   1.921   3.023   7.777  0.3425  0.6068  0.0875
   44CHL1  H21A 3235   2.025   3.062   7.774  1.3367 -1.9711 -0.2338
   44CHL1  H21B 3236   1.860   3.041   7.868  1.8024 -3.0095  1.8940
   44CHL1  H21C 3237   1.858   3.080   7.705  0.8913  1.3301  0.1720
   44CHL1   C22 3238   2.029   2.804   7.841  0.1589 -0.1159 -1.0568
   44CHL1  H22A 3239   2.038   2.695   7.818 -0.7419 -0.1944 -1.0599
   44CHL1  H22B 3240   2.123   2.852   7.808  0.0881  1.9163  1.5085
   44CHL1   C23 3241   2.017   2.830   8.000 -0.0725 -0.0158  0.8681
   44CHL1  H23A 3242   2.109   2.796   8.053 -0.3391 -3.4901 -0.7519
   44CHL1  H23B 3243   2.012   2.939   8.020  2.4812  0.3660 -0.4521
   44CHL1   C24 3244   1.908   2.736   8.063  0.3332 -0.9960  0.1458
   44CHL1  H24A 3245   1.829   2.736   7.985  1.1863  3.3431 -0.8213
   44CHL1  H24B 3246   1.948   2.634   8.082 -2.0220 -2.5025 -2.6691
   44CHL1   C25 3247   1.851   2.801   8.193  0.5627  0.0299 -0.0423
   44CHL1   H25 3248   1.825   2.908   8.176 -2.9779 -0.7316  0.1283
   44CHL1   C26 3249   1.725   2.725   8.229 -0.1929  0.2778  0.1454
   44CHL1  H26A 3250   1.643   2.741   8.156  1.2884 -1.4264 -1.9755
   44CHL1  H26B 3251   1.756   2.618   8.233  0.4624  0.3793 -1.5827
   44CHL1  H26C 3252   1.693   2.741   8.334 -0.5306  0.0280  0.0776
   44CHL1   C27 3253   1.947   2.800   8.309  0.0396 -0.0189 -0.5319
   44CHL1  H27A 3254   1.909   2.815   8.412 -0.3085 -3.0722 -0.1499
   44CHL1  H27B 3255   1.985   2.696   8.321 -0.9339 -0.5863 -2.1121
   44CHL1  H27C 3256   2.029   2.871   8.286 -1.4425  1.3392 -1.7189
   45CHL1    C3 3257   3.140   1.303   6.585  0.8701 -0.2006 -0.1784
   45CHL1    H3 3258   3.173   1.197   6.579 -1.3496 -0.8320 -2.3338
   45CHL1    O3 3259   3.115   1.346   6.451  0.0899  0.1569 -0.0416
   45CHL1   H3' 3260   3.191   1.398   6.423 -1.3023  2.8643  1.0654
   45CHL1    C4 3261   3.009   1.308   6.669  0.0035  0.1163 -0.0324
   45CHL1   H4A 3262   2.962   1.409   6.671  0.1948  0.1710  1.6860
   45CHL1   H4B 3263   2.935   1.246   6.613  0.6369 -0.6964  0.0233
   45CHL1    C5 3264   3.027   1.258   6.814  0.0010  0.4899  0.9318
   45CHL1    C6 3265   2.956   1.156   6.862  0.3583  0.5755  0.1053
   45CHL1    H6 3266   2.886   1.108   6.792  0.9418  1.5349 -1.1704
   45CHL1    C7 3267   2.973   1.104   6.998 -0.5456 -0.6954  0.5091
   45CHL1   H7A 3268   2.872   1.081   7.040 -0.1793  1.7559  2.8608
   45CHL1   H7B 3269   3.033   1.011   6.990 -0.1603 -0.3013 -1.3299
   45CHL1    C8 3270   3.050   1.202   7.087  0.2165 -0.5251  0.2706
   45CHL1    H8 3271   2.985   1.289   7.107  0.5491  0.1649 -1.5679
   45CHL1   C14 3272   3.080   1.139   7.219 -0.5402  0.2702 -0.5779
   45CHL1   H14 3273   3.131   1.041   7.212 -0.7968  0.0738  0.2303
   45CHL1   C15 3274   2.959   1.108   7.309 -0.0681 -0.6273 -0.0665
   45CHL1  H15A 3275   2.892   1.197   7.309  0.7192 -0.0257 -0.0796
   45CHL1  H15B 3276   2.902   1.022   7.269  0.2643  0.4653 -3.0146
   45CHL1   C16 3277   3.012   1.089   7.453  0.2707 -0.0232  0.1055
   45CHL1  H16A 3278   2.947   1.149   7.520  0.2680  0.4080 -0.2835
   45CHL1  H16B 3279   3.010   0.984   7.489 -1.6901  0.0100  0.1394
   45CHL1   C17 3280   3.163   1.137   7.439  0.4009 -0.4432  0.1732
   45CHL1   H17 3281   3.227   1.048   7.422 -0.2254 -0.5694 -1.5694
   45CHL1   C13 3282   3.170   1.229   7.316 -1.3889  0.5049  0.4522
   45CHL1   C18 3283   3.102   1.365   7.352  0.2845  0.9004 -0.2615
   45CHL1  H18A 3284   3.175   1.444   7.379 -0.8598  1.9851 -0.3170
   45CHL1  H18B 3285   3.041   1.412   7.271  1.1415  0.8196 -0.9618
   45CHL1  H18C 3286   3.035   1.356   7.440  1.3366  1.0875  0.5681
   45CHL1   C12 3287   3.304   1.251   7.247  0.6041  0.3753  0.0379
   45CHL1  H12A 3288   3.376   1.308   7.310 -0.7102 -0.4732  2.3583
   45CHL1  H12B 3289   3.345   1.152   7.219  0.9006  0.7502 -0.8963
   45CHL1   C11 3290   3.279   1.320   7.109 -0.1799 -0.4757 -1.2861
   45CHL1  H11A 3291   3.238   1.417   7.145 -1.4060 -0.7453 -1.9358
   45CHL1  H11B 3292   3.371   1.339   7.050  0.8393 -2.3137 -0.3397
   45CHL1    C9 3293   3.180   1.248   7.014  0.7908  0.0086  0.5732
   45CHL1    H9 3294   3.233   1.156   6.982  0.2535  0.5711 -2.1389
   45CHL1   C10 3295   3.146   1.326   6.889 -0.2004  0.3471  0.7493
   45CHL1   C19 3296   3.109   1.475   6.928  0.5686  0.2649 -0.7228
   45CHL1  H19A 3297   3.198   1.538   6.953  0.4523  0.8636 -1.7703
   45CHL1  H19B 3298   3.057   1.523   6.843 -1.6967  0.6855  0.8601
   45CHL1  H19C 3299   3.048   1.473   7.021 -0.7102  0.6502 -1.5509
   45CHL1    C1 3300   3.265   1.334   6.792  0.6057  0.0025  0.6271
   45CHL1   H1A 3301   3.344   1.395   6.841  0.5283  0.8359 -0.2919
   45CHL1   H1B 3302   3.297   1.228   6.780 -0.7976 -0.3826  0.2322
   45CHL1    C2 3303   3.243   1.396   6.655  0.1225 -0.5275  0.0519
   45CHL1   H2A 3304   3.340   1.397   6.602  0.7100  0.1574  1.1344
   45CHL1   H2B 3305   3.203   1.500   6.651  0.3697 -0.5075 -4.6857
   45CHL1   C20 3306   3.205   1.185   7.578 -0.0672  0.3468 -0.8694
   45CHL1   H20 3307   3.128   1.252   7.622  0.0271 -0.9291  1.2988
   45CHL1   C21 3308   3.346   1.259   7.567  0.2572 -0.6615 -0.4058
   45CHL1  H21A 3309   3.414   1.204   7.498  0.7608  0.4917 -0.8450
   45CHL1  H21B 3310   3.404   1.260   7.662  0.1855 -0.0498 -0.3700
   45CHL1  H21C 3311   3.326   1.365   7.541 -0.1097 -0.4016  0.9192
   45CHL1   C22 3312   3.219   1.069   7.681 -0.4995  0.8034 -0.9974
   45CHL1  H22A 3313   3.118   1.024   7.687 -0.2381  0.1469 -1.4950
   45CHL1  H22B 3314   3.296   0.995   7.651 -1.8804 -1.7750  1.5621
   45CHL1   C23 3315   3.244   1.116   7.832 -0.6434  0.0819  0.6632
   45CHL1  H23A 3316   3.342   1.169   7.832 -1.1919  1.0946  0.0487
   45CHL1  H23B 3317   3.172   1.196   7.859 -1.5743 -0.4946 -0.1348
   45CHL1   C24 3318   3.245   0.998   7.938 -0.9257  0.7189  0.0487
   45CHL1  H24A 3319   3.142   0.960   7.954  0.2232 -1.6159  2.2779
   45CHL1  H24B 3320   3.317   0.920   7.907  1.0967  1.6787  2.1952
   45CHL1   C25 3321   3.306   1.038   8.081  0.9964 -0.9075 -0.2891
   45CHL1   H25 3322   3.252   1.124   8.127  0.6597 -1.1763 -0.1768
   45CHL1   C26 3323   3.279   0.924   8.179 -0.5155  0.4102 -0.1611
   45CHL1  H26A 3324   3.343   0.940   8.269  2.8698  4.2636 -3.0676
   45CHL1  H26B 3325   3.172   0.927   8.209 -0.3664  2.0800  0.2593
   45CHL1  H26C 3326   3.288   0.825   8.129 -2.8498 -0.7559  1.5975
   45CHL1   C27 3327   3.456   1.067   8.080  0.4540 -0.4306 -0.0951
   45CHL1  H27A 3328   3.491   1.102   8.180 -0.3588  0.2842 -0.0540
   45CHL1  H27B 3329   3.514   0.977   8.051  1.9195  0.5455 -0.2506
   45CHL1  H27C 3330   3.489   1.154   8.019  1.2936  0.0038  0.9603
   46CHL1    C3 3331   3.057   2.531   7.030  0.0765 -0.4763 -0.6947
   46CHL1    H3 3332   3.005   2.630   7.029  1.7291  0.4012 -1.1287
   46CHL1    O3 3333   3.072   2.475   6.900 -0.1971  0.0052 -0.4598
   46CHL1   H3' 3334   3.104   2.385   6.914 -1.4977 -0.3815  0.1181
   46CHL1    C4 3335   3.184   2.574   7.089 -0.6394 -1.1045  0.2097
   46CHL1   H4A 3336   3.248   2.483   7.085  0.1289 -0.5536 -0.0454
   46CHL1   H4B 3337   3.222   2.653   7.022 -4.2275  1.3627  0.9298
   46CHL1    C5 3338   3.179   2.622   7.234 -0.2541  0.6364 -1.2666
   46CHL1    C6 3339   3.225   2.741   7.270  0.1475 -0.1105  0.2774
   46CHL1    H6 3340   3.286   2.797   7.197  0.8121 -2.0933 -0.7156
   46CHL1    C7 3341   3.217   2.795   7.410  0.0105 -0.3096  0.1709
   46CHL1   H7A 3342   3.311   2.845   7.440  0.0563 -0.5696  0.4566
   46CHL1   H7B 3343   3.133   2.868   7.415 -0.5469 -0.8427 -1.0081
   46CHL1    C8 3344   3.196   2.688   7.518  0.5205  0.5381  0.8306
   46CHL1    H8 3345   3.279   2.615   7.525 -0.4303 -0.6218  0.3000
   46CHL1   C14 3346   3.161   2.747   7.651 -0.2963 -0.1928  0.3878
   46CHL1   H14 3347   3.072   2.811   7.633  0.2722  0.3419 -0.5750
   46CHL1   C15 3348   3.264   2.842   7.710  0.0778 -0.2335 -0.0427
   46CHL1  H15A 3349   3.368   2.805   7.698  1.6717  4.4013 -1.4638
   46CHL1  H15B 3350   3.257   2.945   7.669  2.7068  0.5993  1.5112
   46CHL1   C16 3351   3.226   2.853   7.861  0.5860 -0.4212 -0.6340
   46CHL1  H16A 3352   3.320   2.833   7.917  0.8266 -0.4662 -1.0561
   46CHL1  H16B 3353   3.210   2.962   7.874 -0.4705 -0.7666  1.1471
   46CHL1   C17 3354   3.109   2.761   7.881  0.2845  0.5740 -0.3456
   46CHL1   H17 3355   3.017   2.820   7.860 -2.7859 -3.1971  1.8677
   46CHL1   C13 3356   3.118   2.654   7.765  0.1593  0.1261 -0.7097
   46CHL1   C18 3357   3.224   2.549   7.798 -0.2333 -0.4467 -0.0317
   46CHL1  H18A 3358   3.199   2.471   7.873  1.4323 -0.1935  0.8188
   46CHL1  H18B 3359   3.243   2.497   7.702 -2.5009 -0.9227 -0.2346
   46CHL1  H18C 3360   3.317   2.601   7.831  1.3071 -2.4443 -1.1152
   46CHL1   C12 3361   2.987   2.578   7.718 -0.5696  0.1422 -0.8677
   46CHL1  H12A 3362   2.964   2.501   7.795 -3.8276  1.3262 -0.5927
   46CHL1  H12B 3363   2.905   2.653   7.721  0.3264  1.1291 -0.3332
   46CHL1   C11 3364   3.013   2.516   7.573  0.2909  0.6003  0.2547
   46CHL1  H11A 3365   3.081   2.430   7.586  2.0569  2.1245  1.4143
   46CHL1  H11B 3366   2.911   2.481   7.546  1.2975 -1.6555 -0.6962
   46CHL1    C9 3367   3.076   2.607   7.464  0.5823  0.3238  0.1016
   46CHL1    H9 3368   2.998   2.681   7.439  1.3756  1.1767  0.1316
   46CHL1   C10 3369   3.099   2.536   7.326 -0.5933  0.2543  0.1473
   46CHL1   C19 3370   3.179   2.410   7.358  0.3590  0.1888 -0.3452
   46CHL1  H19A 3371   3.227   2.377   7.264 -0.4442  0.9165 -1.0174
   46CHL1  H19B 3372   3.263   2.422   7.430 -0.0286  0.3905  0.0698
   46CHL1  H19C 3373   3.118   2.324   7.392 -0.3856 -0.0503 -2.2304
   46CHL1    C1 3374   2.969   2.484   7.267 -0.0650 -1.2201  0.6511
   46CHL1   H1A 3375   2.923   2.414   7.339 -1.2951 -0.8401  0.2422
   46CHL1   H1B 3376   2.905   2.575   7.259  2.0877  0.3993  1.2044
   46CHL1    C2 3377   2.985   2.432   7.121  0.4853 -0.3497 -1.2515
   46CHL1   H2A 3378   2.882   2.403   7.090  0.2819 -1.5142  0.3929
   46CHL1   H2B 3379   3.038   2.334   7.131  0.3725 -0.3139 -0.1355
   46CHL1   C20 3380   3.087   2.708   8.026 -0.0924  0.1768  0.3676
   46CHL1   H20 3381   3.181   2.656   8.053  0.7287  1.4846  0.0851
   46CHL1   C21 3382   2.974   2.598   8.033 -0.0762 -0.1040  0.5119
   46CHL1  H21A 3383   3.007   2.503   7.986 -0.9760 -0.0832 -0.1844
   46CHL1  H21B 3384   2.883   2.653   7.999 -2.6148 -1.9444  4.0037
   46CHL1  H21C 3385   2.942   2.574   8.136 -1.5953 -1.3176 -0.2177
   46CHL1   C22 3386   3.076   2.821   8.129 -0.8689  1.1700  0.8261
   46CHL1  H22A 3387   3.171   2.876   8.112  0.2465 -0.9462  0.0694
   46CHL1  H22B 3388   2.991   2.886   8.099  0.0529  1.3630 -1.3949
   46CHL1   C23 3389   3.062   2.792   8.274  0.1065  0.5772 -0.2580
   46CHL1  H23A 3390   2.958   2.759   8.294  1.5973 -3.2138  1.4887
   46CHL1  H23B 3391   3.134   2.715   8.309 -1.4096 -1.4752 -1.5224
   46CHL1   C24 3392   3.100   2.917   8.355 -0.4343  0.4646 -0.8128
   46CHL1  H24A 3393   3.206   2.945   8.338 -0.8076  2.3406 -0.1133
   46CHL1  H24B 3394   3.036   2.996   8.311 -3.0327 -0.2218  1.5590
   46CHL1   C25 3395   3.065   2.905   8.504  0.0309 -0.3278 -0.1799
   46CHL1   H25 3396   2.973   2.843   8.514 -0.9724  0.8681 -1.7136
   46CHL1   C26 3397   3.176   2.839   8.584 -0.4027  0.3844 -0.2395
   46CHL1  H26A 3398   3.276   2.887   8.588  0.7058 -1.8579 -0.2933
   46CHL1  H26B 3399   3.136   2.837   8.687 -2.0736 -2.7154 -0.8995
   46CHL1  H26C 3400   3.186   2.736   8.542 -1.2592 -0.0050  0.5098
   46CHL1   C27 3401   3.025   3.050   8.549  0.0801  0.6677 -0.5962
   46CHL1  H27A 3402   2.939   3.082   8.486 -0.1253 -1.2092 -1.2772
   46CHL1  H27B 3403   2.988   3.034   8.652 -1.5214 -0.8652 -1.3773
   46CHL1  H27C 3404   3.113   3.117   8.537 -1.6573  2.7121 -2.4599
   47CHL1    C3 3405   2.427   2.551   6.676 -0.0103  0.1791 -0.3934
   47CHL1    H3 3406   2.524   2.604   6.690  0.3933 -1.0945  1.9473
   47CHL1    O3 3407   2.399   2.538   6.535  0.1023  0.3794 -0.1691
   47CHL1   H3' 3408   2.327   2.475   6.532 -2.3016  2.8991  2.1621
   47CHL1    C4 3409   2.442   2.412   6.751  0.2461  0.2110  0.4199
   47CHL1   H4A 3410   2.341   2.367   6.741  0.5487  0.1148 -2.8462
   47CHL1   H4B 3411   2.518   2.348   6.701  0.1635  0.3812  0.0748
   47CHL1    C5 3412   2.464   2.436   6.904 -0.0738 -0.3683  0.6129
   47CHL1    C6 3413   2.577   2.396   6.957 -0.1349 -0.3764  0.2184
   47CHL1    H6 3414   2.655   2.347   6.897  1.6293 -0.3140  2.3987
   47CHL1    C7 3415   2.615   2.419   7.097 -0.1595  0.2776 -0.6810
   47CHL1   H7A 3416   2.683   2.342   7.141 -1.8014 -0.0553  1.3757
   47CHL1   H7B 3417   2.676   2.512   7.091 -0.7889  0.9014  2.0297
   47CHL1    C8 3418   2.490   2.449   7.181  0.1493  0.9781  0.3360
   47CHL1    H8 3419   2.432   2.354   7.180  0.8706  0.5249 -1.7769
   47CHL1   C14 3420   2.531   2.487   7.319 -0.1320  0.9373  0.0585
   47CHL1   H14 3421   2.596   2.576   7.308 -0.8356  1.6215  1.3480
   47CHL1   C15 3422   2.612   2.387   7.408 -0.0255 -0.6385  0.4575
   47CHL1  H15A 3423   2.547   2.297   7.401 -2.5144  1.1886 -1.0420
   47CHL1  H15B 3424   2.715   2.372   7.370 -1.0629 -0.9948 -2.2984
   47CHL1   C16 3425   2.590   2.442   7.552  0.0837  0.5868  0.3703
   47CHL1  H16A 3426   2.548   2.355   7.606  0.5736 -0.1817 -0.4809
   47CHL1  H16B 3427   2.687   2.468   7.598  0.2415  1.3365 -0.3716
   47CHL1   C17 3428   2.488   2.562   7.539 -0.3533  0.2558  0.4543
   47CHL1   H17 3429   2.550   2.654   7.533  1.0378 -0.2815  5.0524
   47CHL1   C13 3430   2.414   2.540   7.403  0.2349  0.6634  0.9043
   47CHL1   C18 3431   2.310   2.428   7.414 -0.4436  0.3631 -0.6347
   47CHL1  H18A 3432   2.361   2.343   7.465  0.4452  0.9240 -0.5881
   47CHL1  H18B 3433   2.225   2.457   7.480  0.9076 -0.0291  1.3309
   47CHL1  H18C 3434   2.275   2.395   7.314 -2.1926  3.1670 -1.0008
   47CHL1   C12 3435   2.344   2.662   7.343 -0.4469  0.8757 -0.2600
   47CHL1  H12A 3436   2.255   2.687   7.404 -0.0108  2.8667 -0.4049
   47CHL1  H12B 3437   2.425   2.737   7.353  0.1594  0.1202  0.5050
   47CHL1   C11 3438   2.301   2.640   7.200  0.0644  0.3414  0.9226
   47CHL1  H11A 3439   2.219   2.565   7.195  2.7054 -2.7392  1.8997
   47CHL1  H11B 3440   2.287   2.739   7.152 -0.7933 -0.4883 -0.5741
   47CHL1    C9 3441   2.404   2.562   7.115  0.3436 -0.4839  0.0623
   47CHL1    H9 3442   2.477   2.645   7.103  0.1405 -0.1029  1.3759
   47CHL1   C10 3443   2.355   2.518   6.974  0.7033 -0.6613  0.3628
   47CHL1   C19 3444   2.224   2.433   6.984  0.1223  0.2053 -0.1598
   47CHL1  H19A 3445   2.131   2.483   7.019  0.2858 -0.2607  0.9709
   47CHL1  H19B 3446   2.197   2.375   6.893 -0.5189  1.7529 -0.9742
   47CHL1  H19C 3447   2.240   2.346   7.052 -0.5141 -0.3398 -0.6946
   47CHL1    C1 3448   2.320   2.644   6.888  0.2077 -0.0296  0.2771
   47CHL1   H1A 3449   2.224   2.685   6.925 -0.5580 -0.7017 -0.9474
   47CHL1   H1B 3450   2.401   2.721   6.889  0.7163 -0.5714  2.1464
   47CHL1    C2 3451   2.303   2.625   6.740  0.4238  0.7528  0.8427
   47CHL1   H2A 3452   2.279   2.714   6.679  1.1361 -0.5772 -1.4612
   47CHL1   H2B 3453   2.209   2.566   6.734  0.2696  1.1748 -1.5571
   47CHL1   C20 3454   2.407   2.595   7.672 -1.0188 -0.0248  0.6979
   47CHL1   H20 3455   2.321   2.526   7.685 -0.9041 -0.0420  1.3801
   47CHL1   C21 3456   2.345   2.731   7.673  0.4252  0.4065  0.5071
   47CHL1  H21A 3457   2.270   2.741   7.591  0.1791 -1.0689  0.5285
   47CHL1  H21B 3458   2.428   2.803   7.657  2.4837 -2.1573 -0.8406
   47CHL1  H21C 3459   2.290   2.739   7.769 -2.7820 -1.8420 -1.0226
   47CHL1   C22 3460   2.496   2.587   7.802 -0.2061 -0.1662  0.3077
   47CHL1  H22A 3461   2.546   2.488   7.810 -0.7007 -0.3338  1.4113
   47CHL1  H22B 3462   2.575   2.663   7.783  1.1551 -1.2540  1.5463
   47CHL1   C23 3463   2.427   2.595   7.942 -0.5428  0.2220 -0.5225
   47CHL1  H23A 3464   2.342   2.666   7.940 -0.5154  0.2409 -1.5275
   47CHL1  H23B 3465   2.376   2.499   7.967  1.6339 -0.5097  1.2673
   47CHL1   C24 3466   2.515   2.638   8.065  0.2617 -0.1774 -0.3002
   47CHL1  H24A 3467   2.617   2.595   8.052  0.3341  0.6220 -2.7405
   47CHL1  H24B 3468   2.522   2.748   8.054  1.1571 -0.3149 -1.2114
   47CHL1   C25 3469   2.446   2.608   8.204 -0.3584 -0.0114 -0.0582
   47CHL1   H25 3470   2.412   2.502   8.198  1.2565 -0.3668 -4.3938
   47CHL1   C26 3471   2.547   2.618   8.318  0.0321 -0.9094 -0.5868
   47CHL1  H26A 3472   2.516   2.575   8.415 -0.4528  0.6910 -0.0118
   47CHL1  H26B 3473   2.629   2.549   8.287  0.1630 -1.5448  1.1460
   47CHL1  H26C 3474   2.571   2.725   8.338  0.0711 -0.9911 -0.1989
   47CHL1   C27 3475   2.315   2.699   8.239 -0.4887 -0.3172 -0.3520
   47CHL1  H27A 3476   2.305   2.703   8.350  0.9370 -0.4410 -0.2036
   47CHL1  H27B 3477   2.332   2.801   8.197  0.7636 -0.6420 -0.6619
   47CHL1  H27C 3478   2.223   2.650   8.203 -0.0342 -1.3047 -0.1869
   48CHL1    C3 3479   6.156   4.895   6.444  1.0135 -0.0152  0.5503
   48CHL1    H3 3480   6.163   4.788   6.470  3.1801  0.0103  0.1773
   48CHL1    O3 3481   6.123   4.905   6.304  0.3477 -0.4371  0.4705
   48CHL1   H3' 3482   6.178   4.978   6.274 -3.8017  2.5499 -0.2891
   48CHL1    C4 3483   6.058   4.974   6.526 -0.1501 -0.2464 -0.2020
   48CHL1   H4A 3484   6.071   5.077   6.486 -1.0462 -0.6090 -1.4473
   48CHL1   H4B 3485   5.953   4.946   6.504 -0.2993  0.8879 -0.9420
   48CHL1    C5 3486   6.080   4.967   6.677  0.2577  0.4183 -0.3474
   48CHL1    C6 3487   5.987   4.930   6.764 -0.2578 -0.1961  0.8563
   48CHL1    H6 3488   5.887   4.897   6.730 -1.5294  0.4877  3.8286
   48CHL1    C7 3489   6.006   4.921   6.915 -0.8364 -0.2081  0.7067
   48CHL1   H7A 3490   5.940   4.989   6.973 -0.0105  1.1838  0.0508
   48CHL1   H7B 3491   5.990   4.816   6.946  1.1775 -0.1530  2.0769
   48CHL1    C8 3492   6.142   4.984   6.948  0.0858 -0.1636 -0.0939
   48CHL1    H8 3493   6.136   5.095   6.948  2.3545  0.0035 -1.1933
   48CHL1   C14 3494   6.179   4.948   7.087  0.8671 -0.6072  0.1721
   48CHL1   H14 3495   6.163   4.839   7.094 -2.5243 -0.2293 -0.7810
   48CHL1   C15 3496   6.076   4.988   7.191  0.1085 -0.2448 -0.4515
   48CHL1  H15A 3497   6.059   5.096   7.171  1.5206  0.1995  0.6416
   48CHL1  H15B 3498   5.979   4.933   7.191 -0.1673  0.1978  1.3843
   48CHL1   C16 3499   6.152   4.973   7.330  0.9748  0.4516 -0.3120
   48CHL1  H16A 3500   6.129   5.068   7.382  0.7555  0.6135 -0.7072
   48CHL1  H16B 3501   6.114   4.880   7.378  1.3603  0.2674 -0.3602
   48CHL1   C17 3502   6.300   4.955   7.288  0.0206  0.4551 -0.4066
   48CHL1   H17 3503   6.320   4.846   7.289  0.4529  0.5334 -0.1029
   48CHL1   C13 3504   6.314   4.992   7.143  0.0906 -0.2707  1.3853
   48CHL1   C18 3505   6.323   5.152   7.125  0.4114  0.3638 -0.3673
   48CHL1  H18A 3506   6.259   5.209   7.197 -0.4807  2.2259 -2.5736
   48CHL1  H18B 3507   6.429   5.175   7.149  0.6273  0.0300 -0.9842
   48CHL1  H18C 3508   6.308   5.182   7.019  0.9768  0.5763 -0.3881
   48CHL1   C12 3509   6.419   4.916   7.052  0.3901 -0.1481  0.5190
   48CHL1  H12A 3510   6.520   4.952   7.081  0.2051  0.9770 -0.1937
   48CHL1  H12B 3511   6.410   4.807   7.072 -0.1555  0.0410  1.3229
   48CHL1   C11 3512   6.407   4.959   6.904  0.0606  0.3970  0.0700
   48CHL1  H11A 3513   6.442   5.064   6.898  2.8852 -0.3040  2.7957
   48CHL1  H11B 3514   6.463   4.898   6.829  2.4779 -0.2144  2.3191
   48CHL1    C9 3515   6.259   4.938   6.856 -0.1193  0.0062  0.1655
   48CHL1    H9 3516   6.243   4.829   6.857 -1.7272  0.2387  0.3872
   48CHL1   C10 3517   6.232   4.989   6.712 -0.5096  0.4049  0.5016
   48CHL1   C19 3518   6.265   5.139   6.713  0.2566 -0.0568 -0.0386
   48CHL1  H19A 3519   6.265   5.181   6.610 -1.3990 -1.1174 -0.4866
   48CHL1  H19B 3520   6.184   5.190   6.769  0.0178 -1.6511  1.0864
   48CHL1  H19C 3521   6.370   5.153   6.746  0.3680 -2.1986  0.5795
   48CHL1    C1 3522   6.336   4.927   6.611  0.2177 -0.3917 -0.7593
   48CHL1   H1A 3523   6.431   4.980   6.631 -0.4772  0.8475 -0.6558
   48CHL1   H1B 3524   6.344   4.819   6.633 -1.1851 -0.9122 -2.6550
   48CHL1    C2 3525   6.294   4.950   6.460 -0.0615  0.1074 -0.0432
   48CHL1   H2A 3526   6.357   4.885   6.395  0.8523  0.3180  0.6294
   48CHL1   H2B 3527   6.304   5.057   6.432  2.2552 -0.3016 -0.9410
   48CHL1   C20 3528   6.410   5.019   7.390 -0.3358 -0.4801  0.1907
   48CHL1   H20 3529   6.400   5.130   7.387  0.6676 -0.3931 -0.2894
   48CHL1   C21 3530   6.546   4.974   7.342  0.6289 -0.4550  0.3023
   48CHL1  H21A 3531   6.545   4.865   7.321 -1.9783 -0.3194 -0.4650
   48CHL1  H21B 3532   6.619   4.992   7.423 -1.4519  0.1944  2.1044
   48CHL1  H21C 3533   6.583   5.030   7.254 -1.1347  1.8751  0.9808
   48CHL1   C22 3534   6.391   4.986   7.537 -0.9616 -0.1976 -0.8394
   48CHL1  H22A 3535   6.286   4.996   7.572 -0.8986  1.0471 -0.9808
   48CHL1  H22B 3536   6.414   4.879   7.556 -0.5952  0.2845  1.6843
   48CHL1   C23 3537   6.481   5.059   7.642 -0.6073 -0.8130  0.4328
   48CHL1  H23A 3538   6.589   5.055   7.615 -0.7258 -0.2729 -0.1477
   48CHL1  H23B 3539   6.465   5.169   7.650  0.6577 -0.5147 -0.9014
   48CHL1   C24 3540   6.470   4.992   7.780 -0.9634  0.1521 -0.2513
   48CHL1  H24A 3541   6.364   4.996   7.812 -0.0287  3.5175  2.7444
   48CHL1  H24B 3542   6.504   4.888   7.764 -0.3725 -0.1738  2.8373
   48CHL1   C25 3543   6.554   5.053   7.900 -0.7117 -0.0046  0.7075
   48CHL1   H25 3544   6.660   5.067   7.871 -0.7074  1.7315  1.4780
   48CHL1   C26 3545   6.503   5.191   7.952 -0.0418  0.0065  0.6288
   48CHL1  H26A 3546   6.534   5.274   7.884  0.4848  0.4798  1.4456
   48CHL1  H26B 3547   6.396   5.192   7.983  0.1908 -2.3494  1.6030
   48CHL1  H26C 3548   6.566   5.220   8.038 -1.8979  1.3146  1.5933
   48CHL1   C27 3549   6.545   4.957   8.022 -0.3001  0.2597 -0.2073
   48CHL1  H27A 3550   6.441   4.942   8.058 -0.2968  0.7214  0.0033
   48CHL1  H27B 3551   6.590   4.861   7.988 -1.6327 -0.9019  1.2799
   48CHL1  H27C 3552   6.597   5.020   8.097  0.9863  1.8082 -2.3417
   49CHL1    C3 3553   4.547   6.290   6.850  0.0920 -0.0270  0.4436
   49CHL1    H3 3554   4.480   6.205   6.875 -0.1474 -0.2867 -1.0321
   49CHL1    O3 3555   4.551   6.301   6.708 -0.4394 -0.1089  0.3316
   49CHL1   H3' 3556   4.605   6.380   6.702 -1.4220  0.4573 -1.4684
   49CHL1    C4 3557   4.493   6.421   6.914  0.3036  0.5149  0.0774
   49CHL1   H4A 3558   4.552   6.506   6.874  1.0611 -1.6685 -3.7074
   49CHL1   H4B 3559   4.385   6.426   6.887  0.2944 -0.3736 -0.0749
   49CHL1    C5 3560   4.506   6.423   7.063 -0.4271  0.2975 -0.2612
   49CHL1    C6 3561   4.403   6.460   7.144  0.0985  0.4597  0.3318
   49CHL1    H6 3562   4.301   6.484   7.112  0.0108  1.9116  1.6357
   49CHL1    C7 3563   4.408   6.483   7.289 -0.7864  0.2944 -0.2289
   49CHL1   H7A 3564   4.372   6.585   7.315 -0.8992  0.4482 -0.9785
   49CHL1   H7B 3565   4.358   6.400   7.342 -0.3450  0.7336  0.8983
   49CHL1    C8 3566   4.560   6.475   7.338 -0.5609 -0.8596 -0.4435
   49CHL1    H8 3567   4.621   6.567   7.325 -1.5468 -0.1144  0.0228
   49CHL1   C14 3568   4.559   6.445   7.490  0.4449  0.0060  0.4024
   49CHL1   H14 3569   4.511   6.347   7.509 -1.4047  0.8748  0.3074
   49CHL1   C15 3570   4.482   6.547   7.576  0.1084 -0.5810  0.1711
   49CHL1  H15A 3571   4.508   6.651   7.546  0.4147 -0.7684 -0.2246
   49CHL1  H15B 3572   4.372   6.541   7.563 -0.0901  1.7643  0.6094
   49CHL1   C16 3573   4.530   6.516   7.722  0.1490 -0.1404 -0.2736
   49CHL1  H16A 3574   4.561   6.613   7.767  1.4661 -1.3813  1.5544
   49CHL1  H16B 3575   4.447   6.477   7.784  0.0186 -0.8386 -0.8755
   49CHL1   C17 3576   4.645   6.411   7.707  0.5165 -1.0818 -1.0793
   49CHL1   H17 3577   4.591   6.316   7.722 -1.2868  0.0915 -0.0044
   49CHL1   C13 3578   4.697   6.437   7.557 -0.3176  0.3510  0.2342
   49CHL1   C18 3579   4.779   6.566   7.542 -0.3391 -0.6353  0.2011
   49CHL1  H18A 3580   4.789   6.584   7.433  0.7858 -2.6356 -0.0639
   49CHL1  H18B 3581   4.732   6.654   7.590  0.8776 -1.0597  2.2468
   49CHL1  H18C 3582   4.887   6.551   7.565  0.4730 -0.7314 -3.3607
   49CHL1   C12 3583   4.778   6.315   7.490 -0.3614  0.1962  0.4886
   49CHL1  H12A 3584   4.886   6.319   7.515 -0.3615  0.6250  0.4351
   49CHL1  H12B 3585   4.737   6.218   7.524  0.7389 -0.1196  0.9431
   49CHL1   C11 3586   4.774   6.315   7.334  0.2723 -0.4298 -0.4433
   49CHL1  H11A 3587   4.846   6.393   7.301  0.0805 -0.6546 -1.3867
   49CHL1  H11B 3588   4.811   6.217   7.298  0.3055 -0.2270 -0.9639
   49CHL1    C9 3589   4.634   6.357   7.274  0.3516 -0.0485 -0.1153
   49CHL1    H9 3590   4.565   6.275   7.305 -0.2194 -0.3063 -1.9972
   49CHL1   C10 3591   4.645   6.375   7.119 -0.0417 -0.2919  0.3760
   49CHL1   C19 3592   4.725   6.496   7.080 -0.5206  0.0481 -0.1902
   49CHL1  H19A 3593   4.673   6.589   7.113 -0.7763  0.3618 -1.4504
   49CHL1  H19B 3594   4.822   6.500   7.134  0.0558  1.0443 -1.2859
   49CHL1  H19C 3595   4.751   6.503   6.972  0.8890 -0.3108  0.1183
   49CHL1    C1 3596   4.690   6.243   7.051  0.1477  0.0797 -0.2727
   49CHL1   H1A 3597   4.797   6.223   7.077 -0.6680 -2.6353  1.1994
   49CHL1   H1B 3598   4.621   6.161   7.079 -0.6305  0.5990 -0.6571
   49CHL1    C2 3599   4.686   6.259   6.901 -0.3106  0.4227  0.4106
   49CHL1   H2A 3600   4.721   6.167   6.849  2.7599  1.8475 -0.1335
   49CHL1   H2B 3601   4.748   6.341   6.861 -0.0079  0.1441  0.3095
   49CHL1   C20 3602   4.760   6.406   7.811  0.2723 -0.0216  0.4089
   49CHL1   H20 3603   4.848   6.373   7.752 -0.5826 -0.2382 -0.7508
   49CHL1   C21 3604   4.731   6.307   7.921  0.0686  0.5303  0.6165
   49CHL1  H21A 3605   4.628   6.336   7.951  0.2294 -1.4968  3.2748
   49CHL1  H21B 3606   4.801   6.321   8.005  3.0120 -0.4117 -1.5922
   49CHL1  H21C 3607   4.732   6.205   7.876 -1.4399  0.6868  0.1839
   49CHL1   C22 3608   4.800   6.542   7.859  0.9295  0.3837  0.0533
   49CHL1  H22A 3609   4.818   6.613   7.775 -0.9824  0.0512 -0.6447
   49CHL1  H22B 3610   4.718   6.594   7.912  1.2576  0.6702  0.2860
   49CHL1   C23 3611   4.925   6.539   7.942  0.1164  0.2709  0.3465
   49CHL1  H23A 3612   4.924   6.459   8.018  0.5796 -0.0187  0.0507
   49CHL1  H23B 3613   5.009   6.500   7.880  0.6267  1.8808 -0.0073
   49CHL1   C24 3614   4.949   6.670   8.004 -0.1530 -0.7468  0.8803
   49CHL1  H24A 3615   5.051   6.674   8.048  0.1079 -0.2277  0.2461
   49CHL1  H24B 3616   4.940   6.748   7.924 -1.4002 -1.6446  0.1301
   49CHL1   C25 3617   4.857   6.696   8.128 -0.2280 -0.1567  0.4126
   49CHL1   H25 3618   4.760   6.644   8.112  0.0369 -0.9784  1.3725
   49CHL1   C26 3619   4.920   6.642   8.259 -0.0464  0.6107  0.1423
   49CHL1  H26A 3620   5.027   6.670   8.270  0.8739 -2.0623 -1.6824
   49CHL1  H26B 3621   4.853   6.683   8.337  0.2684  0.2168  0.6208
   49CHL1  H26C 3622   4.914   6.532   8.265 -0.6042  0.6940  1.1047
   49CHL1   C27 3623   4.826   6.844   8.150  0.2427  0.1226 -0.5088
   49CHL1  H27A 3624   4.766   6.886   8.067 -0.7363 -0.1366  0.0566
   49CHL1  H27B 3625   4.761   6.856   8.239  2.3124  1.2188  0.8904
   49CHL1  H27C 3626   4.920   6.901   8.168  1.1523 -1.3269 -0.5688
   50CHL1    C3 3627   5.047   0.724   6.782  0.5427  0.9643  0.0913
   50CHL1    H3 3628   4.944   0.758   6.806 -0.5854 -2.2655 -0.0170
   50CHL1    O3 3629   5.056   0.721   6.637  0.1862 -0.3143  0.1029
   50CHL1   H3' 3630   5.131   0.775   6.610 -0.2689  1.1696  1.7624
   50CHL1    C4 3631   5.151   0.818   6.827 -0.2630  0.8644  0.5886
   50CHL1   H4A 3632   5.254   0.798   6.790 -1.1217 -1.4079 -0.6259
   50CHL1   H4B 3633   5.123   0.917   6.786 -1.5964  0.5890  0.8099
   50CHL1    C5 3634   5.150   0.834   6.973  0.2706  0.8581  0.6547
   50CHL1    C6 3635   5.128   0.953   7.027  0.5288 -0.3572 -0.7060
   50CHL1    H6 3636   5.124   1.038   6.958 -0.2857  0.1042 -0.0955
   50CHL1    C7 3637   5.131   0.974   7.177  0.2687  0.2054  0.2872
   50CHL1   H7A 3638   5.187   1.068   7.199  1.6517 -0.2692 -1.0933
   50CHL1   H7B 3639   5.030   0.988   7.220 -0.2532  0.0324 -0.8601
   50CHL1    C8 3640   5.196   0.857   7.255  0.1630  0.9682  0.4191
   50CHL1    H8 3641   5.302   0.867   7.221 -0.8117  3.2569 -2.1293
   50CHL1   C14 3642   5.174   0.880   7.403  0.1916  0.1256 -0.1996
   50CHL1   H14 3643   5.064   0.881   7.419  0.0199 -1.4256 -1.1410
   50CHL1   C15 3644   5.232   1.013   7.464 -0.2597 -0.0225 -0.5418
   50CHL1  H15A 3645   5.334   1.030   7.424  0.4513  0.5593  1.5087
   50CHL1  H15B 3646   5.170   1.097   7.425 -1.0974  0.2363  1.3175
   50CHL1   C16 3647   5.225   0.986   7.614 -0.0169 -0.2755  0.6206
   50CHL1  H16A 3648   5.313   1.025   7.670 -1.4657  1.8722  1.4486
   50CHL1  H16B 3649   5.134   1.041   7.644  0.8098  2.6898 -2.0444
   50CHL1   C17 3650   5.202   0.834   7.632 -0.2223 -0.3732 -0.1287
   50CHL1   H17 3651   5.093   0.811   7.636 -0.4446  0.3181 -1.7642
   50CHL1   C13 3652   5.228   0.769   7.490 -0.3238 -0.4945  0.2960
   50CHL1   C18 3653   5.383   0.743   7.477 -0.3988 -0.6927  0.3182
   50CHL1  H18A 3654   5.409   0.729   7.371  1.8204  0.4528  0.6842
   50CHL1  H18B 3655   5.452   0.826   7.504 -1.6403  0.5637 -0.2836
   50CHL1  H18C 3656   5.407   0.649   7.531 -1.8426 -1.4621 -0.3771
   50CHL1   C12 3657   5.144   0.646   7.451 -0.5386 -0.3959 -0.7117
   50CHL1  H12A 3658   5.184   0.553   7.497  3.0592  0.7519 -1.3570
   50CHL1  H12B 3659   5.040   0.663   7.486  0.1240  2.0533  0.1392
   50CHL1   C11 3660   5.154   0.606   7.296 -0.2246 -0.6919 -0.6879
   50CHL1  H11A 3661   5.256   0.563   7.288 -0.0544 -0.4906  0.3377
   50CHL1  H11B 3662   5.078   0.526   7.281  2.0105 -3.1524  0.6717
   50CHL1    C9 3663   5.130   0.728   7.202  0.0515  0.2359 -0.3919
   50CHL1    H9 3664   5.021   0.751   7.211  0.2483  1.6447 -1.6372
   50CHL1   C10 3665   5.161   0.705   7.056  0.8227 -0.0486 -0.2649
   50CHL1   C19 3666   5.306   0.664   7.044 -0.4509 -0.3206 -0.2865
   50CHL1  H19A 3667   5.373   0.737   7.095  0.1279 -2.0898  1.5459
   50CHL1  H19B 3668   5.317   0.566   7.094 -2.1238 -1.0640 -1.3389
   50CHL1  H19C 3669   5.344   0.662   6.940  1.1855 -0.0755  0.2959
   50CHL1    C1 3670   5.064   0.604   6.993  0.0981  0.8091 -0.3326
   50CHL1   H1A 3671   5.068   0.506   7.045  1.2044  0.4919 -1.0264
   50CHL1   H1B 3672   4.962   0.639   7.023 -0.7914 -2.8118  1.1773
   50CHL1    C2 3673   5.067   0.581   6.842 -0.3720 -0.0284 -0.3639
   50CHL1   H2A 3674   4.991   0.511   6.800 -1.9707  1.1155  0.5660
   50CHL1   H2B 3675   5.166   0.534   6.826  0.0044  1.6573 -3.2658
   50CHL1   C20 3676   5.260   0.781   7.762 -0.2002 -1.1458  0.8917
   50CHL1   H20 3677   5.371   0.779   7.754 -0.3435 -0.3637 -1.4574
   50CHL1   C21 3678   5.208   0.634   7.788 -0.2856  1.0229  0.2455
   50CHL1  H21A 3679   5.249   0.567   7.710  0.5106  1.4606  0.2822
   50CHL1  H21B 3680   5.097   0.632   7.798 -0.2847  0.8477  0.2174
   50CHL1  H21C 3681   5.246   0.596   7.885  3.1110  1.1884 -0.9645
   50CHL1   C22 3682   5.217   0.874   7.886  0.2338 -0.0717  0.4887
   50CHL1  H22A 3683   5.246   0.821   7.979 -1.4600 -0.1867  0.9744
   50CHL1  H22B 3684   5.277   0.968   7.883  0.7125 -0.4004 -0.7868
   50CHL1   C23 3685   5.059   0.899   7.895 -0.1825 -0.5403  0.3273
   50CHL1  H23A 3686   5.029   0.985   7.832  0.8430  0.6461  1.4329
   50CHL1  H23B 3687   5.004   0.814   7.849 -2.1103  1.4646 -1.1396
   50CHL1   C24 3688   5.016   0.917   8.033 -0.0355  0.2885 -0.2501
   50CHL1  H24A 3689   5.043   0.825   8.090  2.2166  1.0452 -0.0158
   50CHL1  H24B 3690   5.076   1.000   8.076  0.0861 -0.2178  0.5699
   50CHL1   C25 3691   4.867   0.960   8.058 -0.0224  0.4957 -0.2609
   50CHL1   H25 3692   4.813   0.868   8.028  1.1972 -0.3625  0.1034
   50CHL1   C26 3693   4.837   0.980   8.208  0.0018  0.7754 -0.3279
   50CHL1  H26A 3694   4.901   1.062   8.245  0.5844  0.0310  0.3217
   50CHL1  H26B 3695   4.730   1.005   8.227 -1.5605 -4.5603 -1.3144
   50CHL1  H26C 3696   4.865   0.891   8.268  1.0553  1.5345  0.3110
   50CHL1   C27 3697   4.831   1.085   7.983 -0.2235  0.4435 -0.1898
   50CHL1  H27A 3698   4.721   1.093   7.994 -0.1434  0.5900  0.5259
   50CHL1  H27B 3699   4.883   1.175   8.023 -1.2987  1.4687 -1.0459
   50CHL1  H27C 3700   4.857   1.079   7.875  1.7875 -0.8206  0.3309
   51CHL1    C3 3701   4.526   0.187   6.872  0.3269  0.0383  0.1261
   51CHL1    H3 3702   4.546   0.295   6.861  0.7031  0.1564  1.7292
   51CHL1    O3 3703   4.502   0.132   6.745 -0.5245 -0.8646 -0.4143
   51CHL1   H3' 3704   4.590   0.112   6.713 -0.5665 -1.7547  0.0007
   51CHL1    C4 3705   4.658   0.125   6.924 -0.5853  0.8315  0.4091
   51CHL1   H4A 3706   4.654   0.014   6.930  1.1315  0.7352 -0.1020
   51CHL1   H4B 3707   4.737   0.151   6.851 -0.3268 -0.3907  0.2512
   51CHL1    C5 3708   4.693   0.178   7.065  0.2905 -0.3669  0.1064
   51CHL1    C6 3709   4.814   0.237   7.092  0.2433  0.4634  0.1230
   51CHL1    H6 3710   4.888   0.247   7.010 -0.7765  0.4130 -0.8199
   51CHL1    C7 3711   4.851   0.305   7.224  0.4339  0.9428 -0.4571
   51CHL1   H7A 3712   4.953   0.271   7.254  0.0413 -0.0349 -0.2030
   51CHL1   H7B 3713   4.838   0.414   7.207 -2.2545  0.7204  0.0092
   51CHL1    C8 3714   4.755   0.255   7.341  0.1067 -0.0511  0.2492
   51CHL1    H8 3715   4.778   0.149   7.361 -0.4974 -0.7819 -2.6320
   51CHL1   C14 3716   4.780   0.346   7.461 -0.2791 -0.0301  0.5461
   51CHL1   H14 3717   4.756   0.447   7.421  0.2890 -0.7218 -1.6492
   51CHL1   C15 3718   4.919   0.358   7.512 -0.1360  0.3396 -0.8304
   51CHL1  H15A 3719   4.968   0.260   7.531 -0.9795 -0.3743 -2.2115
   51CHL1  H15B 3720   4.987   0.411   7.441  1.1740  0.0073  0.1603
   51CHL1   C16 3721   4.897   0.436   7.644  0.5584  0.6882 -0.0400
   51CHL1  H16A 3722   4.959   0.381   7.718  1.4715 -0.5285 -1.6851
   51CHL1  H16B 3723   4.930   0.542   7.637  2.5473  0.1903  1.3962
   51CHL1   C17 3724   4.748   0.431   7.677  0.9005 -0.1688 -0.7517
   51CHL1   H17 3725   4.706   0.526   7.640 -1.7270 -0.1062  2.1316
   51CHL1   C13 3726   4.691   0.323   7.585  0.1519  0.5403  0.4910
   51CHL1   C18 3727   4.709   0.184   7.647 -0.2067  0.2566  0.6351
   51CHL1  H18A 3728   4.632   0.154   7.721 -1.2709  1.4911  0.0459
   51CHL1  H18B 3729   4.711   0.111   7.563 -1.7015  2.1536 -1.1011
   51CHL1  H18C 3730   4.806   0.163   7.697  0.6616 -0.8887 -1.4336
   51CHL1   C12 3731   4.543   0.349   7.534 -0.0031 -0.2920  0.2498
   51CHL1  H12A 3732   4.459   0.332   7.604  0.7683 -1.0966  0.9854
   51CHL1  H12B 3733   4.525   0.454   7.503  0.2135 -0.4046 -0.2789
   51CHL1   C11 3734   4.505   0.265   7.412 -0.7556  0.4948 -0.2599
   51CHL1  H11A 3735   4.500   0.162   7.452  0.7810  0.5681  0.1174
   51CHL1  H11B 3736   4.405   0.300   7.376 -0.7296  1.3114  0.4542
   51CHL1    C9 3737   4.609   0.278   7.295 -0.5263  0.1143 -0.3431
   51CHL1    H9 3738   4.602   0.385   7.266 -1.7479  0.4695  1.2115
   51CHL1   C10 3739   4.578   0.189   7.173 -0.4043 -0.3652  0.3091
   51CHL1   C19 3740   4.555   0.046   7.221  0.1286  1.0981 -0.3087
   51CHL1  H19A 3741   4.551  -0.026   7.136 -0.8508  0.7698  0.0042
   51CHL1  H19B 3742   4.637   0.003   7.282  1.5932  0.2010 -2.8260
   51CHL1  H19C 3743   4.456   0.048   7.270 -0.0417 -0.0726 -0.5940
   51CHL1    C1 3744   4.444   0.237   7.096 -0.1805 -0.3380  0.3238
   51CHL1   H1A 3745   4.365   0.216   7.171 -0.0462 -0.2775  0.4829
   51CHL1   H1B 3746   4.449   0.347   7.080 -2.3100 -0.4046 -0.8866
   51CHL1    C2 3747   4.419   0.155   6.970  0.9375 -0.3003  0.0612
   51CHL1   H2A 3748   4.324   0.197   6.930  1.2250  0.3640  0.0725
   51CHL1   H2B 3749   4.404   0.048   6.995 -3.1791  0.5675  1.7363
   51CHL1   C20 3750   4.730   0.418   7.828 -0.5101  0.1652 -0.4795
   51CHL1   H20 3751   4.767   0.318   7.858 -3.4379 -0.3590  1.5924
   51CHL1   C21 3752   4.578   0.421   7.865 -0.1213  0.0256  0.1274
   51CHL1  H21A 3753   4.586   0.400   7.974  3.6210  0.8806  0.1058
   51CHL1  H21B 3754   4.511   0.350   7.812 -0.4861 -0.2758  0.9947
   51CHL1  H21C 3755   4.531   0.521   7.855 -2.1838 -0.9701 -0.3969
   51CHL1   C22 3756   4.795   0.518   7.918  0.1238  0.1997 -0.6999
   51CHL1  H22A 3757   4.903   0.519   7.891 -0.0378 -2.3334 -1.6173
   51CHL1  H22B 3758   4.749   0.617   7.896 -0.2669 -0.2091 -1.7441
   51CHL1   C23 3759   4.791   0.489   8.070 -0.1875  0.2651 -0.4740
   51CHL1  H23A 3760   4.688   0.499   8.109  0.6978 -0.2122  2.1059
   51CHL1  H23B 3761   4.834   0.391   8.099  1.4730  1.5206  1.4909
   51CHL1   C24 3762   4.876   0.581   8.150  0.2047  0.4061  0.0049
   51CHL1  H24A 3763   4.978   0.574   8.107  0.9093 -1.7509  1.8910
   51CHL1  H24B 3764   4.843   0.687   8.143 -0.9915  0.0670  0.3972
   51CHL1   C25 3765   4.884   0.547   8.304  0.4477 -0.6588 -0.2313
   51CHL1   H25 3766   4.890   0.436   8.313 -2.9689 -0.9073 -0.2224
   51CHL1   C26 3767   5.011   0.605   8.367  0.0889 -1.0056 -0.0114
   51CHL1  H26A 3768   5.019   0.579   8.474  2.4736 -0.8573 -0.1208
   51CHL1  H26B 3769   5.108   0.566   8.329  0.8364 -0.3498  1.2040
   51CHL1  H26C 3770   5.011   0.715   8.351  0.8678 -1.4215 -3.1929
   51CHL1   C27 3771   4.763   0.592   8.381 -0.1185  0.3918  0.1065
   51CHL1  H27A 3772   4.773   0.551   8.484 -1.9786 -0.4618 -0.0466
   51CHL1  H27B 3773   4.758   0.703   8.375  0.4244  0.4808  1.1791
   51CHL1  H27C 3774   4.670   0.553   8.336 -0.2829  1.9103 -0.9149
   52CHL1    C3 3775   0.251   1.154   6.906 -0.1724 -0.0666 -0.7528
   52CHL1    H3 3776   0.165   1.223   6.914  1.3139  1.6538  0.9147
   52CHL1    O3 3777   0.298   1.139   6.770  0.0296 -0.0036 -0.4948
   52CHL1   H3' 3778   0.247   1.069   6.728  0.1468 -1.3149  1.4840
   52CHL1    C4 3779   0.367   1.209   6.989  0.7467  0.5142 -0.2401
   52CHL1   H4A 3780   0.457   1.145   6.975 -0.8120 -1.8638  0.3048
   52CHL1   H4B 3781   0.400   1.308   6.949 -1.4949  1.1087 -0.6859
   52CHL1    C5 3782   0.331   1.230   7.133  0.8630  0.6960  0.1882
   52CHL1    C6 3783   0.321   1.346   7.198 -0.1596 -0.3231  0.5211
   52CHL1    H6 3784   0.368   1.427   7.139 -0.6721 -1.7917 -1.9711
   52CHL1    C7 3785   0.283   1.365   7.338  0.1916 -0.0679  0.5769
   52CHL1   H7A 3786   0.361   1.432   7.379 -0.0251  0.7520 -0.3422
   52CHL1   H7B 3787   0.186   1.419   7.340 -0.2607 -0.8160 -0.3956
   52CHL1    C8 3788   0.274   1.235   7.417 -0.3206  0.1780 -0.6327
   52CHL1    H8 3789   0.379   1.201   7.422 -0.7446 -1.1061 -0.2563
   52CHL1   C14 3790   0.203   1.251   7.542 -0.7144  0.3381  0.0530
   52CHL1   H14 3791   0.103   1.281   7.504  0.1336  1.5138 -1.3068
   52CHL1   C15 3792   0.240   1.364   7.633  0.2863  0.1141  0.0842
   52CHL1  H15A 3793   0.347   1.373   7.660  0.0035 -1.3788  1.8357
   52CHL1  H15B 3794   0.204   1.465   7.603  0.7249 -0.0173 -0.8798
   52CHL1   C16 3795   0.164   1.325   7.763 -0.5258 -0.1434 -0.1828
   52CHL1  H16A 3796   0.231   1.321   7.851 -3.8644 -0.8765  2.4338
   52CHL1  H16B 3797   0.088   1.401   7.793  0.8514  1.2548 -0.2088
   52CHL1   C17 3798   0.108   1.184   7.742  0.3112 -0.5150 -0.1894
   52CHL1   H17 3799   0.006   1.208   7.704 -0.0162 -0.9347  0.4168
   52CHL1   C13 3800   0.189   1.126   7.629 -0.1416 -0.5224 -0.9211
   52CHL1   C18 3801   0.334   1.077   7.671 -0.3554 -0.6709  0.2976
   52CHL1  H18A 3802   0.307   0.972   7.698 -0.8394 -1.3120 -2.5085
   52CHL1  H18B 3803   0.397   1.078   7.580  1.1419 -1.1628  1.3048
   52CHL1  H18C 3804   0.384   1.133   7.753 -0.2925  2.1621 -1.6180
   52CHL1   C12 3805   0.114   1.016   7.546 -0.3005  0.3273 -0.0733
   52CHL1  H12A 3806   0.085   0.923   7.601  1.2438  0.3068  0.7491
   52CHL1  H12B 3807   0.015   1.064   7.531  0.0542  2.3415  3.4757
   52CHL1   C11 3808   0.179   0.984   7.414 -0.3075 -0.1761  0.6878
   52CHL1  H11A 3809   0.275   0.934   7.439  0.0092 -0.0795 -0.2871
   52CHL1  H11B 3810   0.114   0.924   7.347 -2.5178  0.5219  2.1498
   52CHL1    C9 3811   0.206   1.118   7.335  0.5798 -0.1335  1.0792
   52CHL1    H9 3812   0.105   1.160   7.313  0.6320 -0.8026 -0.4560
   52CHL1   C10 3813   0.271   1.102   7.197 -0.5453  0.1693 -0.2462
   52CHL1   C19 3814   0.394   1.008   7.206 -0.5635 -0.0808  0.9713
   52CHL1  H19A 3815   0.379   0.914   7.263  4.1848 -1.4584  0.1113
   52CHL1  H19B 3816   0.440   0.983   7.108  2.0026  0.4794  1.9934
   52CHL1  H19C 3817   0.472   1.058   7.266  1.7007 -1.5779 -0.6634
   52CHL1    C1 3818   0.169   1.031   7.110  0.7697  0.0109 -0.1286
   52CHL1   H1A 3819   0.141   0.931   7.150  0.4556  0.9498  2.0431
   52CHL1   H1B 3820   0.069   1.079   7.106 -0.2563 -2.0037  0.6126
   52CHL1    C2 3821   0.215   1.017   6.965  0.5213  0.3329  0.6374
   52CHL1   H2A 3822   0.134   0.988   6.895  1.0657  0.2173  0.0475
   52CHL1   H2B 3823   0.294   0.939   6.952  0.0573  0.1196 -0.9602
   52CHL1   C20 3824   0.094   1.099   7.874 -0.4729  0.0813  0.3023
   52CHL1   H20 3825   0.189   1.054   7.910  0.2681  2.9626  2.0861
   52CHL1   C21 3826   0.002   0.976   7.849  0.9537  0.1666 -0.5272
   52CHL1  H21A 3827  -0.082   1.009   7.784 -0.3987 -1.9497  0.0974
   52CHL1  H21B 3828  -0.043   0.925   7.937  0.8479  2.8566  1.0501
   52CHL1  H21C 3829   0.069   0.901   7.803  1.6561  0.3342  0.2021
   52CHL1   C22 3830   0.048   1.184   7.997 -0.4070 -0.7330 -0.5319
   52CHL1  H22A 3831   0.125   1.258   8.029  2.2151 -3.1570 -0.9978
   52CHL1  H22B 3832  -0.036   1.244   7.956  0.0229  1.0360  1.1087
   52CHL1   C23 3833   0.006   1.097   8.117  0.6672  0.8409  0.3385
   52CHL1  H23A 3834  -0.076   1.029   8.087  0.3488  1.9377 -1.3758
   52CHL1  H23B 3835   0.101   1.048   8.149  0.5248 -0.1385 -0.7068
   52CHL1   C24 3836  -0.067   1.190   8.219 -0.8586  0.0148 -0.1301
   52CHL1  H24A 3837   0.003   1.266   8.261 -0.6716 -0.6093  0.7079
   52CHL1  H24B 3838  -0.149   1.247   8.170 -0.6291  1.4942  1.1378
   52CHL1   C25 3839  -0.132   1.114   8.336 -0.3064 -0.3303  0.4222
   52CHL1   H25 3840  -0.066   1.031   8.368  0.2068 -0.0475  0.1075
   52CHL1   C26 3841  -0.144   1.202   8.461 -0.9316 -0.2983 -0.0113
   52CHL1  H26A 3842  -0.044   1.229   8.501 -1.8495  0.6892  1.6708
   52CHL1  H26B 3843  -0.210   1.289   8.440  0.1458  0.7174  0.7959
   52CHL1  H26C 3844  -0.182   1.142   8.546  0.6480  1.9927  2.3714
   52CHL1   C27 3845  -0.276   1.054   8.305 -0.3448  0.7070 -0.0973
   52CHL1  H27A 3846  -0.268   0.973   8.230 -0.2002  0.2231  0.4408
   52CHL1  H27B 3847  -0.337   1.005   8.384  1.7808 -0.1686  1.0394
   52CHL1  H27C 3848  -0.337   1.134   8.258 -1.6036 -0.7638 -1.0001
   53CHL1    C3 3849   3.529   4.100   6.992  0.3828 -0.3164 -0.5402
   53CHL1    H3 3850   3.584   4.003   6.997  2.2174  0.6936 -0.6267
   53CHL1    O3 3851   3.506   4.132   6.858  0.6301 -0.2359 -0.3075
   53CHL1   H3' 3852   3.453   4.212   6.857 -3.6666 -2.8535  0.7614
   53CHL1    C4 3853   3.391   4.087   7.058  0.0863 -0.4046  0.2515
   53CHL1   H4A 3854   3.338   4.180   7.027 -1.6559 -1.3957  0.1797
   53CHL1   H4B 3855   3.339   4.003   7.007  1.8342 -2.1192  1.2428
   53CHL1    C5 3856   3.401   4.084   7.204 -0.5643  0.5669 -0.5754
   53CHL1    C6 3857   3.353   3.988   7.275 -0.0947  0.0996 -0.3941
   53CHL1    H6 3858   3.299   3.906   7.225 -0.1468 -0.0934 -0.0294
   53CHL1    C7 3859   3.350   3.969   7.419  0.5511  0.2952  0.8422
   53CHL1   H7A 3860   3.252   3.926   7.449  0.3036 -1.6187 -2.4316
   53CHL1   H7B 3861   3.435   3.905   7.449  0.8991 -0.2910 -1.2963
   53CHL1    C8 3862   3.378   4.106   7.489  0.2269  0.3076 -0.0106
   53CHL1    H8 3863   3.289   4.173   7.489  1.3448  1.8514  1.8767
   53CHL1   C14 3864   3.421   4.079   7.637 -0.2205 -0.2620  0.0821
   53CHL1   H14 3865   3.512   4.016   7.641 -0.1196 -0.0582  0.9748
   53CHL1   C15 3866   3.328   3.999   7.724  0.1502 -0.0974 -1.0133
   53CHL1  H15A 3867   3.219   4.021   7.725  0.2196  0.2841  1.5788
   53CHL1  H15B 3868   3.339   3.890   7.703 -0.2730 -0.3951  0.2315
   53CHL1   C16 3869   3.376   4.023   7.863  0.1126  0.3042 -0.2419
   53CHL1  H16A 3870   3.284   4.051   7.919 -0.0878 -1.7461  0.5051
   53CHL1  H16B 3871   3.446   3.945   7.901 -0.4261 -0.5464 -0.9846
   53CHL1   C17 3872   3.472   4.144   7.851  0.1604  0.2825 -0.2016
   53CHL1   H17 3873   3.568   4.090   7.837  0.4702  0.7665  0.0387
   53CHL1   C13 3874   3.445   4.209   7.712  0.6063 -0.2111 -0.0127
   53CHL1   C18 3875   3.319   4.293   7.724 -0.5267 -0.0638 -0.2551
   53CHL1  H18A 3876   3.226   4.242   7.757  0.4047 -1.2982  0.5187
   53CHL1  H18B 3877   3.344   4.372   7.798 -0.7305  0.1535 -0.4163
   53CHL1  H18C 3878   3.303   4.350   7.630 -0.6459  1.1583  0.4964
   53CHL1   C12 3879   3.558   4.290   7.645  0.9871  0.0221 -0.0862
   53CHL1  H12A 3880   3.560   4.384   7.703 -0.8736  0.3148 -0.4493
   53CHL1  H12B 3881   3.657   4.240   7.653  0.9924  0.3355  2.0313
   53CHL1   C11 3882   3.535   4.310   7.490  0.0141 -0.1885 -0.6577
   53CHL1  H11A 3883   3.458   4.390   7.483  0.6648  0.5138  0.1155
   53CHL1  H11B 3884   3.636   4.341   7.457 -0.2345  0.1953 -1.0702
   53CHL1    C9 3885   3.489   4.183   7.421 -0.0882 -0.2937  0.6131
   53CHL1    H9 3886   3.581   4.120   7.430  2.1638  2.6529 -0.9665
   53CHL1   C10 3887   3.477   4.196   7.267 -0.3654 -0.2915 -0.1593
   53CHL1   C19 3888   3.418   4.336   7.232  0.0761 -0.5761 -0.3202
   53CHL1  H19A 3889   3.389   4.349   7.125  3.0123 -0.2509 -1.1135
   53CHL1  H19B 3890   3.328   4.341   7.298  0.5580  0.8796  0.2438
   53CHL1  H19C 3891   3.491   4.416   7.258 -1.9143  0.2828  2.9535
   53CHL1    C1 3892   3.624   4.195   7.210 -0.5240 -0.1667 -0.3719
   53CHL1   H1A 3893   3.689   4.278   7.244 -0.9915  0.0551 -0.0098
   53CHL1   H1B 3894   3.683   4.104   7.238  1.2075  0.8130 -0.7531
   53CHL1    C2 3895   3.627   4.201   7.057  0.5608 -0.4997  0.1352
   53CHL1   H2A 3896   3.731   4.191   7.018  1.2990 -2.1332  2.4033
   53CHL1   H2B 3897   3.594   4.298   7.016  0.8524 -1.5563 -2.7294
   53CHL1   C20 3898   3.491   4.236   7.975  0.4377  0.1147 -0.0166
   53CHL1   H20 3899   3.525   4.337   7.944 -1.9233  0.4939 -1.5494
   53CHL1   C21 3900   3.592   4.175   8.063  0.0558  0.2803 -0.6152
   53CHL1  H21A 3901   3.542   4.089   8.111  1.5541  0.9777  2.2793
   53CHL1  H21B 3902   3.615   4.251   8.141 -2.6170  0.4565  0.0829
   53CHL1  H21C 3903   3.690   4.147   8.019  0.8693  0.5370  1.0192
   53CHL1   C22 3904   3.360   4.266   8.053 -0.2413 -0.1450 -0.4032
   53CHL1  H22A 3905   3.270   4.265   7.989  0.3207  2.5445 -1.3204
   53CHL1  H22B 3906   3.338   4.185   8.126 -1.8745 -0.1988 -0.9378
   53CHL1   C23 3907   3.356   4.387   8.152  0.3562 -0.2030 -0.1740
   53CHL1  H23A 3908   3.441   4.376   8.223 -1.2727  0.3815  1.8855
   53CHL1  H23B 3909   3.362   4.480   8.092 -0.9269 -0.2521 -0.3889
   53CHL1   C24 3910   3.225   4.404   8.232 -0.0532 -0.1041  0.0559
   53CHL1  H24A 3911   3.145   4.429   8.159 -1.0390  1.3498  1.5959
   53CHL1  H24B 3912   3.194   4.301   8.261 -1.1661  0.4596  0.8996
   53CHL1   C25 3913   3.233   4.500   8.349 -0.4854 -0.1611 -0.0660
   53CHL1   H25 3914   3.327   4.478   8.405 -0.2687  0.3669 -0.2205
   53CHL1   C26 3915   3.252   4.641   8.290 -0.3707  0.2014 -1.0368
   53CHL1  H26A 3916   3.152   4.678   8.257  0.0608  1.2492 -1.2002
   53CHL1  H26B 3917   3.284   4.713   8.368  0.2634 -0.4948 -0.6528
   53CHL1  H26C 3918   3.333   4.636   8.215  0.2723 -1.0509 -0.2639
   53CHL1   C27 3919   3.112   4.495   8.442  0.3262 -0.2128  0.0258
   53CHL1  H27A 3920   3.118   4.405   8.508  3.4770  0.9875  1.4621
   53CHL1  H27B 3921   3.096   4.581   8.511  1.3008  0.5992 -0.7436
   53CHL1  H27C 3922   3.014   4.472   8.395  1.0593 -1.3682 -0.9652
   54CHL1    C3 3923   3.564   5.835   6.974 -0.2801 -0.3909 -0.1253
   54CHL1    H3 3924   3.466   5.827   7.027 -0.0054  0.1129  0.4734
   54CHL1    O3 3925   3.538   5.872   6.841 -0.4988  0.4819  0.3863
   54CHL1   H3' 3926   3.617   5.872   6.786 -1.4356  0.6313 -0.9827
   54CHL1    C4 3927   3.651   5.938   7.039  0.1631  0.2169  0.0992
   54CHL1   H4A 3928   3.740   5.948   6.973 -0.3234 -2.9576 -1.1431
   54CHL1   H4B 3929   3.589   6.029   7.056  0.7425  0.4394  1.0623
   54CHL1    C5 3930   3.695   5.895   7.179  0.0666  0.4960  0.4043
   54CHL1    C6 3931   3.677   5.976   7.284 -0.6210 -0.3217  0.7552
   54CHL1    H6 3932   3.617   6.067   7.268  1.1029  0.2823 -2.5008
   54CHL1    C7 3933   3.727   5.932   7.420 -0.1475  0.3811  0.1827
   54CHL1   H7A 3934   3.766   6.022   7.473  1.8667 -1.4624  1.9574
   54CHL1   H7B 3935   3.647   5.894   7.486 -0.4364  0.2086 -0.2702
   54CHL1    C8 3936   3.844   5.827   7.414  0.3184 -0.5560  0.0155
   54CHL1    H8 3937   3.928   5.877   7.362 -0.7212  0.3485 -0.8306
   54CHL1   C14 3938   3.888   5.773   7.549  0.3328 -0.2481 -0.3159
   54CHL1   H14 3939   3.806   5.718   7.600  2.2995 -2.6523  0.3414
   54CHL1   C15 3940   3.923   5.879   7.648  0.0650  0.0273 -0.1175
   54CHL1  H15A 3941   3.983   5.961   7.603  2.8991 -2.8097 -1.7250
   54CHL1  H15B 3942   3.834   5.931   7.689  0.0172  1.4226 -1.9479
   54CHL1   C16 3943   4.003   5.797   7.749  0.0085 -0.2336  0.3783
   54CHL1  H16A 3944   4.107   5.837   7.745 -0.4263  0.9085  0.4056
   54CHL1  H16B 3945   3.961   5.798   7.852 -0.6700  0.6226  0.0988
   54CHL1   C17 3946   4.023   5.654   7.697  0.1850 -0.9796 -0.3929
   54CHL1   H17 3947   3.937   5.592   7.729  0.4225 -2.0872 -1.8586
   54CHL1   C13 3948   3.996   5.674   7.546 -0.2997  0.2522 -0.1021
   54CHL1   C18 3949   4.125   5.729   7.469  0.2388  0.9773 -0.3171
   54CHL1  H18A 3950   4.209   5.662   7.501 -1.4281 -1.5178 -0.9912
   54CHL1  H18B 3951   4.115   5.733   7.359 -3.7384  0.5122 -0.0501
   54CHL1  H18C 3952   4.148   5.835   7.494  0.8344  0.5511  1.0220
   54CHL1   C12 3953   3.939   5.551   7.472  0.2632  0.0259  0.2020
   54CHL1  H12A 3954   4.016   5.471   7.461 -0.8606 -0.9890 -0.4215
   54CHL1  H12B 3955   3.854   5.521   7.537  0.2058 -0.5524 -0.1297
   54CHL1   C11 3956   3.879   5.583   7.338 -0.4859  0.2430 -0.9067
   54CHL1  H11A 3957   3.968   5.598   7.273 -1.4017 -0.8006 -2.4303
   54CHL1  H11B 3958   3.831   5.491   7.298 -0.5015  0.9915 -2.6108
   54CHL1    C9 3959   3.804   5.715   7.321 -0.0863  0.2156 -0.6417
   54CHL1    H9 3960   3.698   5.693   7.348  0.2237 -1.2449 -0.5623
   54CHL1   C10 3961   3.777   5.765   7.178 -0.7160 -0.1890 -0.0282
   54CHL1   C19 3962   3.913   5.774   7.100 -0.3834 -0.0830 -0.4513
   54CHL1  H19A 3963   3.890   5.832   7.007 -1.2807  0.1590 -0.0807
   54CHL1  H19B 3964   3.985   5.829   7.164 -0.9592  0.0516  0.0801
   54CHL1  H19C 3965   3.947   5.674   7.065 -0.3330 -0.2502  0.0838
   54CHL1    C1 3966   3.691   5.657   7.109  0.8176 -0.2750  0.4152
   54CHL1   H1A 3967   3.758   5.570   7.096  0.8653 -0.1077 -0.4951
   54CHL1   H1B 3968   3.600   5.634   7.169 -0.6616  1.6690 -1.0213
   54CHL1    C2 3969   3.638   5.709   6.970 -0.4164  0.4441 -0.5849
   54CHL1   H2A 3970   3.568   5.628   6.941 -0.5139  0.1520  0.4270
   54CHL1   H2B 3971   3.724   5.698   6.901 -0.6764  0.3086 -0.8881
   54CHL1   C20 3972   4.151   5.588   7.747 -0.2071  0.1624 -0.3685
   54CHL1   H20 3973   4.238   5.645   7.709 -1.1094  1.5244 -0.4494
   54CHL1   C21 3974   4.166   5.442   7.685 -0.0435  0.2965  0.4352
   54CHL1  H21A 3975   4.255   5.383   7.717 -1.5369 -0.7953  2.6803
   54CHL1  H21B 3976   4.178   5.459   7.576  2.8724  1.0953  0.8396
   54CHL1  H21C 3977   4.073   5.383   7.698 -1.6208  2.4178 -0.9132
   54CHL1   C22 3978   4.152   5.574   7.900  0.0366 -0.2966  0.6742
   54CHL1  H22A 3979   4.143   5.677   7.941 -1.0131  0.2493 -0.8993
   54CHL1  H22B 3980   4.058   5.523   7.929  0.4194 -0.9199  0.8334
   54CHL1   C23 3981   4.272   5.501   7.956 -0.1609 -0.1226 -0.3371
   54CHL1  H23A 3982   4.269   5.391   7.940  0.4882 -0.3248  0.8456
   54CHL1  H23B 3983   4.365   5.545   7.915 -0.6867 -0.5849 -2.0792
   54CHL1   C24 3984   4.258   5.527   8.110  0.3415  0.7322  0.1563
   54CHL1  H24A 3985   4.265   5.636   8.133  0.9133  0.5216  0.9802
   54CHL1  H24B 3986   4.158   5.492   8.145  1.3177 -0.7757  1.4770
   54CHL1   C25 3987   4.357   5.440   8.188  0.2334 -0.3694  0.4458
   54CHL1   H25 3988   4.344   5.331   8.171  1.8483 -0.9511  2.7768
   54CHL1   C26 3989   4.501   5.476   8.168  0.0718  0.0529 -0.0207
   54CHL1  H26A 3990   4.535   5.457   8.064  1.7325 -2.9853  1.0285
   54CHL1  H26B 3991   4.502   5.587   8.176 -2.5095 -0.0458  2.3273
   54CHL1  H26C 3992   4.575   5.433   8.239  0.5480 -2.2124 -1.8776
   54CHL1   C27 3993   4.321   5.457   8.340 -0.0849 -0.1346 -0.3406
   54CHL1  H27A 3994   4.214   5.442   8.367  0.2727 -1.1174  0.5832
   54CHL1  H27B 3995   4.389   5.388   8.395 -0.1834 -0.1143 -0.1952
   54CHL1  H27C 3996   4.344   5.565   8.352  0.6553 -0.2623 -0.6060
   55CHL1    C3 3997   2.577   0.960   6.878  0.4896 -0.2375  0.1734
   55CHL1    H3 3998   2.688   0.967   6.887  0.5047 -1.5159  1.1390
   55CHL1    O3 3999   2.542   0.921   6.747  0.2097  0.3370 -0.2307
   55CHL1   H3' 4000   2.447   0.934   6.748  0.1593 -0.0113 -0.7718
   55CHL1    C4 4001   2.535   0.834   6.972  0.2026  0.8876  0.4149
   55CHL1   H4A 4002   2.427   0.817   6.955  0.5734 -0.4139 -0.7889
   55CHL1   H4B 4003   2.586   0.741   6.940  1.4431  1.0983  1.7536
   55CHL1    C5 4004   2.567   0.865   7.112  0.1357 -0.0264 -0.0980
   55CHL1    C6 4005   2.641   0.780   7.182 -0.2277  0.5007 -0.9768
   55CHL1    H6 4006   2.689   0.691   7.139  1.3079  0.0412  1.5775
   55CHL1    C7 4007   2.670   0.797   7.336  0.1288  0.1042  1.6735
   55CHL1   H7A 4008   2.648   0.700   7.386 -1.3740 -0.7027 -0.4491
   55CHL1   H7B 4009   2.776   0.823   7.353  1.0832  0.4250 -4.0366
   55CHL1    C8 4010   2.585   0.907   7.408  0.5751 -0.6901  0.4610
   55CHL1    H8 4011   2.487   0.863   7.436  0.4631 -0.7652 -0.0531
   55CHL1   C14 4012   2.665   0.946   7.534 -0.3230  0.0118 -0.0726
   55CHL1   H14 4013   2.753   1.003   7.496 -0.0549  0.8560  1.7875
   55CHL1   C15 4014   2.722   0.844   7.644 -0.9158 -0.3753 -0.0402
   55CHL1  H15A 4015   2.652   0.759   7.654 -1.7175  0.1676 -0.9349
   55CHL1  H15B 4016   2.814   0.794   7.608  0.0406  2.1612 -1.2282
   55CHL1   C16 4017   2.739   0.936   7.768  0.6191 -0.3478 -0.3639
   55CHL1  H16A 4018   2.686   0.883   7.850 -2.5046  0.1671 -1.9799
   55CHL1  H16B 4019   2.849   0.947   7.781  0.7993 -1.6952 -0.6730
   55CHL1   C17 4020   2.689   1.078   7.731  0.3002 -0.0582  0.6592
   55CHL1   H17 4021   2.779   1.129   7.688  0.8294 -2.7349 -1.5405
   55CHL1   C13 4022   2.590   1.050   7.613  0.6082  0.7689 -0.0458
   55CHL1   C18 4023   2.455   0.988   7.656 -0.4209 -0.6298  0.0583
   55CHL1  H18A 4024   2.381   0.977   7.574  0.9937  0.6456 -1.4203
   55CHL1  H18B 4025   2.469   0.893   7.713 -0.5046 -2.1063 -2.3083
   55CHL1  H18C 4026   2.409   1.066   7.720  1.0736 -0.1601  0.5839
   55CHL1   C12 4027   2.569   1.172   7.522 -0.2712 -0.0202  0.1404
   55CHL1  H12A 4028   2.498   1.241   7.573  0.8907 -0.7067  2.7752
   55CHL1  H12B 4029   2.666   1.218   7.492  0.4700 -1.0871  0.8705
   55CHL1   C11 4030   2.498   1.144   7.386 -0.0003  0.1871  0.6124
   55CHL1  H11A 4031   2.396   1.112   7.417  0.0884 -0.3258  0.3810
   55CHL1  H11B 4032   2.488   1.241   7.332 -0.8517 -0.3810 -0.2783
   55CHL1    C9 4033   2.566   1.032   7.309 -0.0530 -0.1861  0.7473
   55CHL1    H9 4034   2.665   1.079   7.290 -0.3184 -0.1504 -0.6248
   55CHL1   C10 4035   2.503   0.995   7.172 -0.4565 -0.1219 -0.3473
   55CHL1   C19 4036   2.354   0.977   7.189  0.5448 -0.1534 -0.4526
   55CHL1  H19A 4037   2.338   0.886   7.250  2.3647  0.3559  0.8213
   55CHL1  H19B 4038   2.300   1.057   7.242 -3.8338 -2.1554 -1.6765
   55CHL1  H19C 4039   2.294   0.957   7.097  1.3990 -1.1241 -0.8194
   55CHL1    C1 4040   2.538   1.110   7.068  0.1958  0.2552 -0.2735
   55CHL1   H1A 4041   2.475   1.197   7.098 -1.1275 -1.3967  1.9343
   55CHL1   H1B 4042   2.646   1.132   7.083  0.5394 -2.0098  0.7432
   55CHL1    C2 4043   2.509   1.088   6.921  1.1660  0.4916 -0.1150
   55CHL1   H2A 4044   2.557   1.170   6.864  0.6358  0.2587 -0.9148
   55CHL1   H2B 4045   2.398   1.092   6.913  0.8769 -1.5132  2.2499
   55CHL1   C20 4046   2.640   1.175   7.840  0.3866 -0.4023 -0.4580
   55CHL1   H20 4047   2.579   1.252   7.789  1.8126  0.1646 -1.3529
   55CHL1   C21 4048   2.756   1.254   7.899 -0.2356 -0.3147  0.0877
   55CHL1  H21A 4049   2.812   1.292   7.811  0.3555 -2.1077 -0.3227
   55CHL1  H21B 4050   2.828   1.191   7.956  2.6642 -0.6396 -3.7216
   55CHL1  H21C 4051   2.727   1.343   7.959  1.9223  0.6782 -0.2989
   55CHL1   C22 4052   2.563   1.107   7.955  0.2305 -0.2759 -0.4536
   55CHL1  H22A 4053   2.477   1.053   7.912  0.6556 -0.7380 -0.7292
   55CHL1  H22B 4054   2.621   1.038   8.020  1.6723  1.7350  0.4779
   55CHL1   C23 4055   2.502   1.205   8.051  0.2836  0.7074  0.3209
   55CHL1  H23A 4056   2.582   1.261   8.105 -0.0450  2.1019 -0.6095
   55CHL1  H23B 4057   2.460   1.285   7.986 -2.1474  0.0753  1.0486
   55CHL1   C24 4058   2.396   1.160   8.151 -0.2648  0.4626  0.2398
   55CHL1  H24A 4059   2.326   1.235   8.193 -3.6640 -1.8661 -1.0124
   55CHL1  H24B 4060   2.327   1.082   8.111  1.8582 -2.2943  1.7889
   55CHL1   C25 4061   2.465   1.085   8.275  0.7175 -0.4542  0.0253
   55CHL1   H25 4062   2.532   1.008   8.229  2.3527 -0.0591  1.6776
   55CHL1   C26 4063   2.543   1.171   8.365 -0.4753  0.1250  0.2795
   55CHL1  H26A 4064   2.474   1.249   8.403  0.4521  0.4082  1.3958
   55CHL1  H26B 4065   2.588   1.111   8.447  0.9604  0.4829 -0.2352
   55CHL1  H26C 4066   2.617   1.225   8.302  1.0502 -1.9138  0.2658
   55CHL1   C27 4067   2.352   1.012   8.358  0.2366  0.1090 -0.3625
   55CHL1  H27A 4068   2.401   0.943   8.429  1.6823 -1.7330 -3.0435
   55CHL1  H27B 4069   2.283   1.086   8.405 -0.2849  0.0234 -0.9846
   55CHL1  H27C 4070   2.288   0.950   8.291  1.9463  0.3548 -2.2603
   56CHL1    C3 4071   2.734   5.220   6.784 -0.1434  0.0539 -0.6084
   56CHL1    H3 4072   2.707   5.126   6.837 -0.4136  0.0735 -0.7100
   56CHL1    O3 4073   2.705   5.214   6.648  0.2302 -0.4523 -0.4330
   56CHL1   H3' 4074   2.720   5.301   6.610 -0.6738 -0.1646 -0.1299
   56CHL1    C4 4075   2.642   5.325   6.847  0.0995 -0.4921  0.3101
   56CHL1   H4A 4076   2.658   5.418   6.788  0.0906 -1.6404 -1.5636
   56CHL1   H4B 4077   2.538   5.297   6.818 -0.4417  0.7436  1.0196
   56CHL1    C5 4078   2.664   5.347   6.992 -0.1051 -0.1521 -0.1914
   56CHL1    C6 4079   2.573   5.330   7.086 -0.2816 -0.1667  0.4592
   56CHL1    H6 4080   2.474   5.298   7.049 -0.3259 -0.8736  1.1823
   56CHL1    C7 4081   2.584   5.360   7.233 -0.5693 -0.2649  0.6882
   56CHL1   H7A 4082   2.495   5.407   7.280 -0.1468  1.0461  0.2089
   56CHL1   H7B 4083   2.586   5.259   7.279 -3.2732 -1.1881 -1.1016
   56CHL1    C8 4084   2.710   5.442   7.267  0.1294 -0.8527  0.3318
   56CHL1    H8 4085   2.691   5.547   7.236  0.6578 -0.9028 -0.1635
   56CHL1   C14 4086   2.747   5.431   7.417 -0.0036 -0.3139  0.2580
   56CHL1   H14 4087   2.760   5.324   7.444  2.2899  0.2148  1.3877
   56CHL1   C15 4088   2.642   5.476   7.520 -0.6934 -0.3414 -0.1111
   56CHL1  H15A 4089   2.599   5.574   7.490  0.1266  0.0010 -0.1640
   56CHL1  H15B 4090   2.557   5.407   7.539 -0.6833 -0.2556  0.2486
   56CHL1   C16 4091   2.726   5.493   7.658  0.0483  0.2577 -0.4182
   56CHL1  H16A 4092   2.708   5.597   7.692  1.6275  0.7789 -1.1257
   56CHL1  H16B 4093   2.696   5.409   7.724  0.6692 -1.3566 -2.1617
   56CHL1   C17 4094   2.873   5.478   7.605  0.0880  0.4500 -0.1305
   56CHL1   H17 4095   2.894   5.370   7.624  2.3376  0.7696 -0.6752
   56CHL1   C13 4096   2.877   5.498   7.456  0.0363  0.8879  0.0401
   56CHL1   C18 4097   2.859   5.643   7.421  0.4191  0.5970 -0.4291
   56CHL1  H18A 4098   2.789   5.695   7.490 -0.5278  0.6840 -1.4434
   56CHL1  H18B 4099   2.966   5.675   7.426  1.4310 -2.4467 -1.5253
   56CHL1  H18C 4100   2.819   5.674   7.322 -1.4209 -0.7741 -0.1300
   56CHL1   C12 4101   2.985   5.421   7.369  0.0338  1.0226 -0.5471
   56CHL1  H12A 4102   3.085   5.454   7.403  0.5664 -1.5655  0.5409
   56CHL1  H12B 4103   2.975   5.310   7.378  0.1955  1.1017  0.7532
   56CHL1   C11 4104   2.968   5.441   7.219  0.8032  0.0217 -0.2642
   56CHL1  H11A 4105   2.983   5.548   7.190  1.1560  0.4159  1.3079
   56CHL1  H11B 4106   3.053   5.383   7.179  2.0909  0.8668  1.1524
   56CHL1    C9 4107   2.826   5.384   7.178  0.4054 -0.3864 -0.3315
   56CHL1    H9 4108   2.828   5.279   7.212  1.8745  0.0881  1.1224
   56CHL1   C10 4109   2.804   5.380   7.021  0.3787  0.0686  0.4174
   56CHL1   C19 4110   2.831   5.522   6.975  0.8280 -0.1650  0.5518
   56CHL1  H19A 4111   2.939   5.543   6.962  0.1682  2.9767 -0.0597
   56CHL1  H19B 4112   2.788   5.544   6.876  2.1589 -1.4443 -0.3388
   56CHL1  H19C 4113   2.793   5.584   7.059 -1.2654 -2.4015  1.3512
   56CHL1    C1 4114   2.902   5.282   6.956 -0.1496  0.9275  1.0910
   56CHL1   H1A 4115   3.007   5.306   6.984  0.8109 -1.1906 -0.5169
   56CHL1   H1B 4116   2.884   5.188   7.012 -0.5139  1.0369  1.1572
   56CHL1    C2 4117   2.880   5.260   6.806  0.0248 -0.1974 -0.1387
   56CHL1   H2A 4118   2.945   5.183   6.758 -1.1540 -1.3623  0.0943
   56CHL1   H2B 4119   2.902   5.355   6.753  2.0086 -0.4303  0.2234
   56CHL1   C20 4120   2.968   5.565   7.693 -0.4282 -0.0281  0.2843
   56CHL1   H20 4121   2.941   5.670   7.669  0.7052  0.1331 -0.3459
   56CHL1   C21 4122   3.119   5.574   7.649  0.5870 -0.1703  0.3239
   56CHL1  H21A 4123   3.166   5.474   7.665  0.5419 -0.5149 -1.6401
   56CHL1  H21B 4124   3.169   5.647   7.717 -0.9595  1.9178 -0.7390
   56CHL1  H21C 4125   3.136   5.597   7.542  1.1035  0.0032  0.4429
   56CHL1   C22 4126   2.959   5.529   7.837  0.4870 -0.3075  0.4668
   56CHL1  H22A 4127   2.854   5.548   7.868 -0.5165 -2.7684 -1.3274
   56CHL1  H22B 4128   2.975   5.422   7.862  0.5808  0.3337  3.3846
   56CHL1   C23 4129   3.050   5.615   7.938  0.0757 -0.1732  0.3291
   56CHL1  H23A 4130   3.157   5.601   7.915  1.0602  2.2496  3.1493
   56CHL1  H23B 4131   3.036   5.725   7.929  0.7863 -0.0888  0.2737
   56CHL1   C24 4132   3.031   5.571   8.081 -0.4087  0.7319 -0.8136
   56CHL1  H24A 4133   2.925   5.566   8.114 -0.3825 -1.1706 -1.0011
   56CHL1  H24B 4134   3.061   5.465   8.082 -0.1410  0.7974 -1.5963
   56CHL1   C25 4135   3.112   5.658   8.185 -0.0319 -0.0415  0.1904
   56CHL1   H25 4136   3.069   5.760   8.177  0.2234  0.0209 -0.4029
   56CHL1   C26 4137   3.103   5.600   8.325  0.2337 -0.1756 -0.4858
   56CHL1  H26A 4138   3.123   5.491   8.319  0.2716 -0.4239  3.0246
   56CHL1  H26B 4139   3.000   5.604   8.365 -0.1591 -2.5662 -1.1760
   56CHL1  H26C 4140   3.182   5.648   8.387 -0.0506 -1.2204  0.7047
   56CHL1   C27 4141   3.260   5.668   8.146  0.1660  0.1332  0.1073
   56CHL1  H27A 4142   3.320   5.575   8.143  0.6289  0.3970  0.8525
   56CHL1  H27B 4143   3.265   5.719   8.048 -2.4220  0.3898  0.0858
   56CHL1  H27C 4144   3.320   5.726   8.220  0.9733 -2.6491  1.7117
   57SAPC     N 4145   3.099   1.908  10.811 -0.1495 -0.1240 -0.5622
   57SAPC   C12 4146   2.963   1.839  10.810 -0.3673 -0.2938  0.0710
   57SAPC  H12A 4147   2.930   1.820  10.709 -2.2830 -0.5391  0.7241
   57SAPC  H12B 4148   2.896   1.910  10.856 -1.1887 -0.1450 -1.3420
   57SAPC   C13 4149   3.206   1.806  10.774  0.4561 -0.3869  0.3168
   57SAPC  H13A 4150   3.208   1.712  10.827 -3.0652 -1.0644 -0.6436
   57SAPC  H13B 4151   3.194   1.783  10.669  0.2516 -1.9474  0.6730
   57SAPC  H13C 4152   3.304   1.852  10.778  0.7504 -1.0840  1.3920
   57SAPC   C14 4153   3.086   2.028  10.727  0.0778  0.0277  0.0459
   57SAPC  H14A 4154   3.054   1.993  10.630 -0.8213 -0.4138  0.5010
   57SAPC  H14B 4155   3.017   2.102  10.765  0.6266  0.7759 -0.4022
   57SAPC  H14C 4156   3.183   2.070  10.702 -0.5975  2.8756  1.9591
   57SAPC   C15 4157   3.133   1.963  10.949 -0.4012  0.0255  0.5150
   57SAPC  H15A 4158   3.151   1.884  11.020  0.8628  2.4106  2.9471
   57SAPC  H15B 4159   3.219   2.029  10.948 -1.1123  0.9646  0.1245
   57SAPC  H15C 4160   3.050   2.024  10.980  1.1297  1.6736  1.4826
   57SAPC   C11 4161   2.942   1.710  10.891 -0.2467 -0.5070 -0.0784
   57SAPC  H11A 4162   2.837   1.677  10.901 -1.3348  2.1968 -1.8848
   57SAPC  H11B 4163   2.958   1.745  10.995  0.6413 -0.6106 -0.1723
   57SAPC     P 4164   2.986   1.511  10.726 -0.0664  0.0283  0.3388
   57SAPC   O13 4165   3.108   1.461  10.666  0.4690 -0.0527  0.3647
   57SAPC   O14 4166   2.881   1.415  10.761  1.0882 -0.0720  0.0515
   57SAPC   O12 4167   3.022   1.602  10.850  0.1734 -0.4955 -0.6091
   57SAPC   O11 4168   2.919   1.606  10.612 -0.3589  0.2046  0.5730
   57SAPC    C1 4169   2.784   1.600  10.581 -0.3170 -0.0774 -0.4019
   57SAPC    HA 4170   2.722   1.581  10.670 -0.5763 -1.3139 -0.8333
   57SAPC    HB 4171   2.753   1.697  10.536  1.5104 -0.3809 -2.3859
   57SAPC    C2 4172   2.757   1.487  10.480 -0.3004 -0.3207 -0.2640
   57SAPC    HS 4173   2.764   1.390  10.535 -0.1645 -0.2920 -0.2310
   57SAPC   O21 4174   2.853   1.496  10.374  0.0667  0.0362  0.0531
   57SAPC   C21 4175   2.849   1.399  10.278 -0.1688  0.2561  0.2504
   57SAPC   O22 4176   2.788   1.291  10.294  0.1708  0.3310 -0.0214
   57SAPC   C22 4177   2.927   1.458  10.159 -0.4556 -0.2008 -0.1322
   57SAPC   H2R 4178   2.910   1.568  10.161  1.1380  0.0201  1.4518
   57SAPC   H2S 4179   3.036   1.440  10.165 -0.4413  0.0096  0.1918
   57SAPC    C3 4180   2.611   1.486  10.428 -0.2157 -0.2352  0.4901
   57SAPC    HX 4181   2.537   1.517  10.505  0.4990  0.0445  1.0632
   57SAPC    HY 4182   2.597   1.379  10.399 -0.9243 -0.2576  0.9183
   57SAPC   O31 4183   2.596   1.558  10.303  0.0417 -0.4399 -0.1705
   57SAPC   C31 4184   2.537   1.676  10.312  0.3708  0.0960  0.1287
   57SAPC   O32 4185   2.501   1.733  10.412 -0.0635 -0.6117 -0.4112
   57SAPC   C32 4186   2.530   1.733  10.167 -0.1221  0.4741  0.0740
   57SAPC   H2X 4187   2.499   1.654  10.095  1.3391 -1.2676  1.2864
   57SAPC   H2Y 4188   2.632   1.772  10.149 -0.7355  2.1075  0.0850
   57SAPC   C23 4189   2.888   1.402  10.022 -0.8018 -0.6157 -0.8984
   57SAPC   H3R 4190   2.912   1.295  10.009  0.2435 -0.5037 -0.0145
   57SAPC   H3S 4191   2.947   1.465   9.952 -0.6135  0.1050 -0.1126
   57SAPC   C24 4192   2.743   1.427   9.998 -0.0092  0.0424  0.1933
   57SAPC   H4R 4193   2.735   1.534  10.024 -0.8654  0.4053 -1.4444
   57SAPC   H4S 4194   2.691   1.377  10.082  2.9175  1.0863  2.6829
   57SAPC   C25 4195   2.710   1.380   9.849 -0.1027  0.6422 -1.3994
   57SAPC   H5R 4196   2.756   1.286   9.817 -3.0205 -0.8995 -1.2115
   57SAPC   C26 4197   2.647   1.457   9.762 -0.2940 -0.5173 -0.3647
   57SAPC   H6R 4198   2.624   1.423   9.660  2.8675 -0.5816 -1.0881
   57SAPC   C27 4199   2.587   1.595   9.789  0.1635  0.9749  0.1986
   57SAPC   H7R 4200   2.629   1.652   9.875 -0.1910 -2.2702  2.6279
   57SAPC   H7S 4201   2.484   1.578   9.827  0.4969 -0.8292  0.3121
   57SAPC   C28 4202   2.582   1.685   9.667 -0.3471  0.0625 -0.0377
   57SAPC   H8R 4203   2.684   1.716   9.640 -0.3537  1.0283  1.0236
   57SAPC   C29 4204   2.475   1.720   9.596 -0.2113 -0.0953 -0.0082
   57SAPC   H9R 4205   2.486   1.772   9.499  2.1751  0.2621  0.4186
   57SAPC  C210 4206   2.330   1.689   9.615  0.1272  0.1160 -0.1726
   57SAPC  H10R 4207   2.314   1.613   9.694 -0.3769  0.7365  0.3174
   57SAPC  H10S 4208   2.289   1.629   9.531 -0.5072 -1.8983  1.5202
   57SAPC  C211 4209   2.237   1.803   9.633  0.4027 -0.0902 -0.0317
   57SAPC  H11R 4210   2.255   1.870   9.719 -3.6393 -0.3407  1.1018
   57SAPC  C212 4211   2.130   1.842   9.549 -0.0694  0.5947  0.5214
   57SAPC  H12R 4212   2.072   1.924   9.595  0.9584  1.1536  0.8361
   57SAPC  C213 4213   2.081   1.785   9.416 -0.5853 -0.6785  0.3900
   57SAPC  H13R 4214   1.974   1.804   9.390 -0.0601 -0.4429 -1.7562
   57SAPC  H13S 4215   2.080   1.674   9.422 -1.8177 -0.6676  0.4975
   57SAPC  C214 4216   2.187   1.822   9.307 -0.6705 -0.2466 -0.7422
   57SAPC  H14R 4217   2.288   1.806   9.347 -0.2560  1.3671 -1.0797
   57SAPC  C215 4218   2.164   1.863   9.181  0.3984 -0.4691  0.2101
   57SAPC  H15R 4219   2.242   1.889   9.108 -0.7718  0.1062 -0.8642
   57SAPC  C216 4220   2.025   1.882   9.121  0.4734 -0.1219  0.3686
   57SAPC  H16R 4221   1.977   1.969   9.170 -0.2474 -1.1687  1.5617
   57SAPC  H16S 4222   1.961   1.795   9.149  1.8903 -1.5334 -0.6572
   57SAPC  C217 4223   2.013   1.895   8.968 -0.5751 -0.0525 -0.0554
   57SAPC  H17R 4224   1.906   1.900   8.937 -0.8636 -1.3027  0.6787
   57SAPC  H17S 4225   2.044   1.801   8.919 -2.2077 -2.2902  3.0023
   57SAPC  C218 4226   2.072   2.027   8.908  0.3883  0.0111 -0.5056
   57SAPC  H18R 4227   2.181   2.043   8.921  0.3682  0.0671 -0.4124
   57SAPC  H18S 4228   2.018   2.104   8.967  0.2190 -0.9053  0.5337
   57SAPC  C219 4229   2.036   2.067   8.765  0.3492  0.5155 -0.0353
   57SAPC  H19R 4230   2.055   2.176   8.753  1.3430  0.4773  1.1153
   57SAPC  H19S 4231   1.930   2.065   8.731  0.6817  0.7031 -1.1135
   57SAPC  C220 4232   2.126   1.992   8.668 -0.2264 -0.3448 -0.6644
   57SAPC  H20R 4233   2.084   1.999   8.565 -1.8374 -2.5640 -0.2110
   57SAPC  H20S 4234   2.138   1.885   8.696  0.9392 -0.5277 -1.8617
   57SAPC  H20T 4235   2.224   2.043   8.667 -0.9945  1.1672 -0.3733
   57SAPC   C33 4236   2.440   1.855  10.154 -0.0001  0.0199 -0.4025
   57SAPC   H3X 4237   2.452   1.937  10.228 -2.5927 -1.5051  1.8014
   57SAPC   H3Y 4238   2.335   1.827  10.175 -0.2401  1.7630  0.8125
   57SAPC   C34 4239   2.445   1.916  10.013 -0.8276 -0.0499  0.1863
   57SAPC   H4X 4240   2.355   1.982  10.005  0.2410  1.4885  0.5118
   57SAPC   H4Y 4241   2.445   1.834   9.939  2.2290 -0.1844  0.2903
   57SAPC   C35 4242   2.573   2.006   9.987  0.5857  0.1876 -0.4068
   57SAPC   H5X 4243   2.653   1.942   9.944 -0.7801 -2.7968  1.3974
   57SAPC   H5Y 4244   2.615   2.051  10.079 -0.9653 -0.5599  0.6829
   57SAPC   C36 4245   2.544   2.124   9.884  0.4575 -0.1482 -0.0996
   57SAPC   H6X 4246   2.647   2.161   9.865 -0.4868  1.7147 -1.7307
   57SAPC   H6Y 4247   2.471   2.194   9.928  1.3675 -0.9560  2.7599
   57SAPC   C37 4248   2.483   2.076   9.751  0.2061 -0.1796  0.1031
   57SAPC   H7X 4249   2.382   2.032   9.764  0.8985 -0.9223  3.8372
   57SAPC   H7Y 4250   2.546   1.998   9.703  0.3711  0.3146 -0.4792
   57SAPC   C38 4251   2.466   2.199   9.661 -0.6369 -0.0377  0.2051
   57SAPC   H8X 4252   2.573   2.226   9.650 -0.6006 -0.2812 -0.0464
   57SAPC   H8Y 4253   2.407   2.283   9.703 -1.9329 -0.8096 -0.0595
   57SAPC   C39 4254   2.413   2.158   9.522 -0.8957 -0.0617 -0.1145
   57SAPC   H9X 4255   2.320   2.097   9.520 -0.7367 -0.2687 -2.1395
   57SAPC   H9Y 4256   2.483   2.087   9.473  3.3468  3.3649  0.6120
   57SAPC  C310 4257   2.414   2.284   9.426  0.2988 -0.0474 -0.2424
   57SAPC  H10X 4258   2.518   2.325   9.424  1.1851 -2.1198  1.3156
   57SAPC  H10Y 4259   2.347   2.366   9.460  0.5897 -0.3961  1.2010
   57SAPC  C311 4260   2.369   2.242   9.287 -0.0120  0.1999  0.6096
   57SAPC  H11X 4261   2.268   2.198   9.296 -0.3381  0.2959 -2.0242
   57SAPC  H11Y 4262   2.424   2.152   9.250  0.4664  0.7259  0.0264
   57SAPC  C312 4263   2.375   2.349   9.185 -0.4527 -0.3374 -0.4580
   57SAPC  H12X 4264   2.479   2.386   9.180 -1.0879  2.0197  2.1825
   57SAPC  H12Y 4265   2.296   2.427   9.201 -0.4473  0.1438 -2.5746
   57SAPC  C313 4266   2.341   2.290   9.045  0.5313  0.7843 -0.5150
   57SAPC  H13X 4267   2.241   2.242   9.050  1.0889 -0.3857 -0.2950
   57SAPC  H13Y 4268   2.415   2.209   9.024  0.6087  0.2118  1.8663
   57SAPC  C314 4269   2.321   2.380   8.922  0.5597  0.0326  0.3445
   57SAPC  H14X 4270   2.224   2.432   8.935  0.1157 -1.3853  3.0869
   57SAPC  H14Y 4271   2.308   2.327   8.825  0.8904 -1.7375  1.2293
   57SAPC  C315 4272   2.443   2.471   8.888 -0.5325 -0.2294 -0.2719
   57SAPC  H15X 4273   2.530   2.401   8.883  0.2071  0.5741  1.1219
   57SAPC  H15Y 4274   2.464   2.548   8.965  0.0246 -0.4184 -0.2339
   57SAPC  C316 4275   2.416   2.544   8.754 -0.4412  0.4147  0.4009
   57SAPC  H16X 4276   2.371   2.471   8.683  0.5579 -0.2286  0.4218
   57SAPC  H16Y 4277   2.516   2.574   8.716 -0.2147 -2.4571 -1.4756
   57SAPC  C317 4278   2.312   2.656   8.778  0.9040 -0.8945  0.0124
   57SAPC  H17X 4279   2.350   2.733   8.848  1.6836 -0.6351 -0.6827
   57SAPC  H17Y 4280   2.220   2.615   8.825 -0.2852  0.3878 -1.1536
   57SAPC  C318 4281   2.276   2.729   8.645 -0.1388 -0.4582 -0.5333
   57SAPC  H18X 4282   2.354   2.804   8.620  0.9781 -1.4587 -0.0748
   57SAPC  H18Y 4283   2.178   2.781   8.644  0.5359  0.8952  1.0976
   57SAPC  H18Z 4284   2.253   2.659   8.562  1.6550 -0.1211 -1.3308
   58SAPC     N 4285   4.976   0.510  11.022 -0.5962  0.6484 -0.2544
   58SAPC   C12 4286   4.873   0.488  10.913  0.2805 -0.8310 -1.1553
   58SAPC  H12A 4287   4.840   0.588  10.888  1.2206 -0.7851 -2.2662
   58SAPC  H12B 4288   4.786   0.436  10.950 -0.5999  1.5301  0.1608
   58SAPC   C13 4289   4.923   0.612  11.117  0.6730  0.4773  0.1601
   58SAPC  H13A 4290   4.832   0.578  11.164  0.2486  0.7341 -0.4726
   58SAPC  H13B 4291   4.989   0.617  11.202  1.3110  0.4300 -0.3311
   58SAPC  H13C 4292   4.915   0.712  11.076 -1.0770  0.9915  1.7308
   58SAPC   C14 4293   5.010   0.379  11.094  0.7001 -0.6837  0.1446
   58SAPC  H14A 4294   5.071   0.400  11.181  0.0795  0.0536  0.4020
   58SAPC  H14B 4295   4.923   0.330  11.135 -1.0227  2.7833  0.8918
   58SAPC  H14C 4296   5.061   0.310  11.029 -1.3864 -0.8533 -1.3574
   58SAPC   C15 4297   5.118   0.559  10.975 -0.2491  0.9231  0.0060
   58SAPC  H15A 4298   5.160   0.472  10.927 -0.2961  0.4708  0.7725
   58SAPC  H15B 4299   5.107   0.640  10.905  0.2650  0.5865 -0.4732
   58SAPC  H15C 4300   5.182   0.599  11.052 -0.0616  0.7495 -0.0602
   58SAPC   C11 4301   4.912   0.417  10.787  0.3806  0.2558  1.0173
   58SAPC  H11A 4302   4.994   0.473  10.737 -0.6693  2.0492  1.2426
   58SAPC  H11B 4303   4.822   0.425  10.723  0.2076 -0.8773  1.1191
   58SAPC     P 4304   4.959   0.174  10.694 -0.6413  0.0662 -0.0689
   58SAPC   O13 4305   5.090   0.190  10.627  0.4132  0.0956  0.1105
   58SAPC   O14 4306   4.927   0.054  10.771  0.6815  0.0878  0.2982
   58SAPC   O12 4307   4.950   0.283  10.809 -0.2489 -0.3179 -0.2259
   58SAPC   O11 4308   4.844   0.209  10.591 -0.1754 -0.5054 -0.8178
   58SAPC    C1 4309   4.772   0.099  10.530  0.1981  0.0413 -0.0609
   58SAPC    HA 4310   4.719   0.046  10.612 -0.8650  0.3141 -0.5495
   58SAPC    HB 4311   4.690   0.128  10.460 -0.9077 -1.7220  0.4628
   58SAPC    C2 4312   4.866   0.008  10.448 -0.5437  0.4414  0.7530
   58SAPC    HS 4313   4.938  -0.052  10.509 -1.2675 -1.6202 -0.3553
   58SAPC   O21 4314   4.933   0.098  10.359  0.2050 -0.1485  0.7016
   58SAPC   C21 4315   5.050   0.073  10.311  0.3552  0.7464 -0.2291
   58SAPC   O22 4316   5.134  -0.010  10.343 -0.4198 -0.8015 -0.6594
   58SAPC   C22 4317   5.082   0.175  10.206  0.3442 -0.1907 -0.2385
   58SAPC   H2R 4318   4.984   0.201  10.161 -0.2228 -1.5082  0.2150
   58SAPC   H2S 4319   5.121   0.253  10.275  2.8186 -0.4324 -1.3005
   58SAPC    C3 4320   4.791  -0.101  10.367  0.4615  0.0144 -0.3039
   58SAPC    HX 4321   4.720  -0.046  10.301 -0.1471  0.9282  1.1087
   58SAPC    HY 4322   4.734  -0.156  10.445  1.6275 -1.6640 -0.6048
   58SAPC   O31 4323   4.877  -0.201  10.304 -0.2451 -0.0088  0.5896
   58SAPC   C31 4324   4.808  -0.287  10.225  0.4690  0.0583  0.6069
   58SAPC   O32 4325   4.694  -0.272  10.182  0.7410  0.8970 -0.1640
   58SAPC   C32 4326   4.896  -0.407  10.182 -0.0402 -0.2336 -0.4168
   58SAPC   H2X 4327   4.830  -0.490  10.148  0.0361  0.1355 -1.4932
   58SAPC   H2Y 4328   4.935  -0.444  10.279 -0.4427  1.6982  0.5205
   58SAPC   C23 4329   5.188   0.142  10.105  0.0943  0.5511  0.3097
   58SAPC   H3R 4330   5.156   0.065  10.032  0.2632 -0.7707  1.6148
   58SAPC   H3S 4331   5.279   0.100  10.151  0.5921  1.7772  0.4575
   58SAPC   C24 4332   5.233   0.258  10.020  0.1691  0.6243  0.8026
   58SAPC   H4R 4333   5.327   0.223   9.973 -0.5688  0.3042 -0.4631
   58SAPC   H4S 4334   5.255   0.351  10.078  1.4847  0.1908  1.0060
   58SAPC   C25 4335   5.137   0.293   9.906 -0.0528 -0.9484 -0.9037
   58SAPC   H5R 4336   5.063   0.364   9.945  0.0391 -1.8614  0.9862
   58SAPC   C26 4337   5.134   0.250   9.780 -0.6520  0.4947  0.5695
   58SAPC   H6R 4338   5.063   0.296   9.709 -1.4031 -0.0376  0.9646
   58SAPC   C27 4339   5.217   0.144   9.712 -0.8887  0.7058  0.6988
   58SAPC   H7R 4340   5.143   0.081   9.658  0.0100  0.6867 -0.5521
   58SAPC   H7S 4341   5.253   0.068   9.784 -0.3987  0.3774  0.1125
   58SAPC   C28 4342   5.325   0.213   9.629  0.2128  0.1017 -0.2982
   58SAPC   H8R 4343   5.413   0.250   9.683  0.5969  0.6512 -1.2857
   58SAPC   C29 4344   5.319   0.249   9.499 -0.6235 -0.6185  0.5187
   58SAPC   H9R 4345   5.399   0.306   9.449  0.5333 -0.3727  2.5595
   58SAPC  C210 4346   5.202   0.223   9.410  0.3684  0.1282 -0.7164
   58SAPC  H10R 4347   5.116   0.189   9.471  3.0355 -1.9802  2.0918
   58SAPC  H10S 4348   5.228   0.143   9.337 -1.2988  0.4759 -1.6999
   58SAPC  C211 4349   5.149   0.339   9.329  0.0694  0.1077 -0.3983
   58SAPC  H11R 4350   5.059   0.387   9.371 -1.2453 -0.9015 -1.9798
   58SAPC  C212 4351   5.197   0.380   9.206 -0.3374  0.0596 -0.0581
   58SAPC  H12R 4352   5.166   0.478   9.167 -2.2716 -0.5568 -0.1037
   58SAPC  C213 4353   5.315   0.321   9.135  0.1417  0.0439 -0.1639
   58SAPC  H13R 4354   5.311   0.212   9.152 -1.6651  0.0931 -0.1865
   58SAPC  H13S 4355   5.410   0.359   9.180 -1.1167  3.0281  0.1075
   58SAPC  C214 4356   5.319   0.339   8.988 -0.7174 -0.2150 -0.0397
   58SAPC  H14R 4357   5.274   0.256   8.932 -0.2999  0.1943 -0.9878
   58SAPC  C215 4358   5.386   0.438   8.926  0.9298  0.2756  0.0191
   58SAPC  H15R 4359   5.364   0.457   8.820 -0.2935 -3.4896 -0.4681
   58SAPC  C216 4360   5.460   0.549   8.998 -0.5227 -0.1350 -0.1418
   58SAPC  H16R 4361   5.566   0.522   9.015 -0.7119 -0.6007  0.2909
   58SAPC  H16S 4362   5.418   0.570   9.099  1.2219  0.0073  0.5645
   58SAPC  C217 4363   5.476   0.676   8.912 -0.5179  0.6884 -0.1375
   58SAPC  H17R 4364   5.518   0.643   8.815  0.5798 -1.2006  0.9322
   58SAPC  H17S 4365   5.547   0.747   8.960  1.0842 -1.9422  1.5223
   58SAPC  C218 4366   5.348   0.756   8.895  0.1519 -0.5373 -0.3788
   58SAPC  H18R 4367   5.293   0.774   8.990 -0.3741 -0.6137 -0.6616
   58SAPC  H18S 4368   5.282   0.692   8.832 -0.7568  1.5362 -1.5947
   58SAPC  C219 4369   5.370   0.882   8.821 -0.9544  0.0502  0.7084
   58SAPC  H19R 4370   5.409   0.854   8.721 -0.1934 -3.3184  1.8775
   58SAPC  H19S 4371   5.456   0.943   8.855  0.1298 -1.4028  0.6188
   58SAPC  C220 4372   5.249   0.971   8.809 -0.4880  0.4836  0.7464
   58SAPC  H20R 4373   5.158   0.934   8.756  1.0449 -0.3480 -1.3769
   58SAPC  H20S 4374   5.273   1.062   8.750  1.9988 -1.2758 -1.0259
   58SAPC  H20T 4375   5.217   1.013   8.907  0.3118  2.6466  0.1020
   58SAPC   C33 4376   5.012  -0.368  10.085  0.3579 -0.1986  0.8195
   58SAPC   H3X 4377   5.090  -0.447  10.077  0.0097 -0.4427 -0.2470
   58SAPC   H3Y 4378   5.058  -0.277  10.130  2.0396 -1.0191  0.8083
   58SAPC   C34 4379   4.956  -0.351   9.943 -0.8337  0.6019 -0.1739
   58SAPC   H4X 4380   4.870  -0.280   9.939  1.1097  3.0095 -0.0740
   58SAPC   H4Y 4381   4.922  -0.449   9.903  1.0549 -0.1012 -0.0828
   58SAPC   C35 4382   5.061  -0.303   9.843  0.0909 -0.4021  0.2909
   58SAPC   H5X 4383   5.122  -0.389   9.808 -0.3796 -2.1983  3.6951
   58SAPC   H5Y 4384   5.133  -0.231   9.886  0.1642  0.6710 -1.6017
   58SAPC   C36 4385   4.994  -0.253   9.714  0.4309 -0.4068 -0.1187
   58SAPC   H6X 4386   4.952  -0.154   9.741 -0.9407 -1.5622  2.0726
   58SAPC   H6Y 4387   4.916  -0.327   9.685  0.3087 -0.2167 -0.2674
   58SAPC   C37 4388   5.100  -0.246   9.592  0.0685 -0.7288  0.4523
   58SAPC   H7X 4389   5.132  -0.352   9.579 -3.0383 -1.6691 -0.1496
   58SAPC   H7Y 4390   5.180  -0.180   9.630 -0.9718  1.4692 -1.0791
   58SAPC   C38 4391   5.056  -0.182   9.457  0.3808 -0.0369  0.0649
   58SAPC   H8X 4392   5.012  -0.086   9.491 -1.0603 -0.6878  0.1015
   58SAPC   H8Y 4393   4.980  -0.250   9.413  0.7748 -0.5781  0.2149
   58SAPC   C39 4394   5.166  -0.157   9.355  0.1299  0.5544  0.3851
   58SAPC   H9X 4395   5.224  -0.250   9.339 -0.0705  0.5093 -0.0663
   58SAPC   H9Y 4396   5.232  -0.075   9.391  2.7516 -1.3209  0.0351
   58SAPC  C310 4397   5.117  -0.109   9.223  0.0890  0.4047  0.2480
   58SAPC  H10X 4398   5.067  -0.012   9.243  0.7081  0.5340  1.2225
   58SAPC  H10Y 4399   5.045  -0.178   9.174  0.9618  0.7761 -1.6126
   58SAPC  C311 4400   5.232  -0.081   9.126 -0.0560  0.0851  0.4259
   58SAPC  H11X 4401   5.297  -0.019   9.193  0.1932  0.4291 -0.1332
   58SAPC  H11Y 4402   5.197  -0.024   9.037 -2.6490 -1.1487  0.6002
   58SAPC  C312 4403   5.315  -0.199   9.066  0.2039 -0.7194  0.0632
   58SAPC  H12X 4404   5.248  -0.273   9.017  0.0926  0.1706 -1.1314
   58SAPC  H12Y 4405   5.369  -0.251   9.148  1.3052 -0.0232 -0.2140
   58SAPC  C313 4406   5.432  -0.142   8.984  0.4374  0.0072 -0.2506
   58SAPC  H13X 4407   5.509  -0.095   9.048  0.1904  0.4684 -0.2893
   58SAPC  H13Y 4408   5.402  -0.057   8.919 -0.1799  2.0180  2.5858
   58SAPC  C314 4409   5.505  -0.265   8.917 -0.1977  0.4719  0.0853
   58SAPC  H14X 4410   5.495  -0.353   8.984  0.1126 -0.6036 -1.2605
   58SAPC  H14Y 4411   5.614  -0.243   8.911 -0.4103  1.4586 -0.3077
   58SAPC  C315 4412   5.455  -0.285   8.773 -0.4910 -0.3337 -0.8189
   58SAPC  H15X 4413   5.496  -0.192   8.729 -0.4443 -1.0159 -2.2546
   58SAPC  H15Y 4414   5.345  -0.272   8.776 -0.6323 -1.6986  2.0893
   58SAPC  C316 4415   5.521  -0.408   8.697  0.4691  0.2691  0.1110
   58SAPC  H16X 4416   5.474  -0.501   8.737 -0.8813  1.4886  1.4306
   58SAPC  H16Y 4417   5.630  -0.402   8.721  1.5383 -1.4742 -3.9522
   58SAPC  C317 4418   5.505  -0.395   8.548  0.0729 -0.4996  0.5147
   58SAPC  H17X 4419   5.402  -0.358   8.526 -0.1517 -2.2732 -1.5673
   58SAPC  H17Y 4420   5.526  -0.491   8.496 -0.2794 -0.4358  0.2553
   58SAPC  C318 4421   5.605  -0.299   8.486  0.0136 -0.0149 -0.0051
   58SAPC  H18X 4422   5.711  -0.325   8.508  0.0583  0.8178  0.7868
   58SAPC  H18Y 4423   5.575  -0.195   8.512 -2.0880 -0.5109 -0.3991
   58SAPC  H18Z 4424   5.603  -0.305   8.376  1.6285 -1.0104  0.0001
   59SAPC     N 4425   0.066   0.823  11.173 -0.3610 -0.4078 -0.3002
   59SAPC   C12 4426   0.018   0.886  11.050 -0.0438  0.8201 -0.3287
   59SAPC  H12A 4427  -0.078   0.849  11.017 -0.1621 -0.2318  1.1774
   59SAPC  H12B 4428   0.084   0.854  10.971 -0.8526  0.8904 -1.0470
   59SAPC   C13 4429  -0.009   0.867  11.293  0.0388  0.3583 -0.0509
   59SAPC  H13A 4430  -0.110   0.830  11.296  0.0381  0.0189 -2.6970
   59SAPC  H13B 4431   0.044   0.835  11.381  1.9765  0.0869 -1.2744
   59SAPC  H13C 4432  -0.015   0.974  11.305  1.5570  0.5288 -0.6790
   59SAPC   C14 4433   0.036   0.680  11.159 -0.3583 -0.5189 -0.5647
   59SAPC  H14A 4434   0.043   0.625  11.252 -0.3292  0.4863  0.0366
   59SAPC  H14B 4435  -0.059   0.660  11.113  0.5464  1.6195 -3.5233
   59SAPC  H14C 4436   0.116   0.642  11.097  0.3796 -0.8905  0.5957
   59SAPC   C15 4437   0.212   0.845  11.185 -0.3547  0.5858  0.1312
   59SAPC  H15A 4438   0.249   0.773  11.257 -2.3053 -0.7072 -0.1081
   59SAPC  H15B 4439   0.266   0.818  11.095 -1.3128  0.4432 -0.3990
   59SAPC  H15C 4440   0.234   0.948  11.208 -0.5200  0.6748 -0.1017
   59SAPC   C11 4441   0.002   1.042  11.036  0.1671  0.5719 -0.2902
   59SAPC  H11A 4442  -0.014   1.068  10.929  1.8416 -2.1580 -1.2496
   59SAPC  H11B 4443   0.099   1.084  11.069  0.2334  0.1672  0.0269
   59SAPC     P 4444  -0.231   1.160  11.091  0.1275 -0.0223  0.0968
   59SAPC   O13 4445  -0.343   1.099  11.167  0.4818 -0.1780  0.2937
   59SAPC   O14 4446  -0.224   1.300  11.119  0.1340 -0.0873  0.3436
   59SAPC   O12 4447  -0.097   1.087  11.132 -0.2642  0.1256 -0.2777
   59SAPC   O11 4448  -0.248   1.141  10.932 -0.0269  0.3297  0.0989
   59SAPC    C1 4449  -0.322   1.025  10.894 -0.1105  0.3626  0.6660
   59SAPC    HA 4450  -0.250   0.941  10.896 -0.0099  0.4462  0.5158
   59SAPC    HB 4451  -0.403   0.993  10.963 -1.2450  0.9049 -0.3947
   59SAPC    C2 4452  -0.365   1.028  10.746 -0.1239  0.3969 -0.4089
   59SAPC    HS 4453  -0.371   0.923  10.711  2.9760 -0.8758  2.6458
   59SAPC   O21 4454  -0.287   1.116  10.662 -0.5211 -0.5972 -0.1266
   59SAPC   C21 4455  -0.259   1.071  10.549 -0.3166 -0.0849 -1.2544
   59SAPC   O22 4456  -0.291   0.963  10.507  0.2815  0.5077  0.2193
   59SAPC   C22 4457  -0.181   1.163  10.457  0.0357 -0.0080  0.5106
   59SAPC   H2R 4458  -0.113   1.107  10.389  0.7072  0.9903  0.3492
   59SAPC   H2S 4459  -0.261   1.214  10.399  2.9004  2.0520 -1.8119
   59SAPC    C3 4460  -0.511   1.086  10.745 -0.4012  0.1015  1.2082
   59SAPC    HX 4461  -0.502   1.193  10.775 -1.8381  0.1379  1.5488
   59SAPC    HY 4462  -0.567   1.030  10.822 -0.6736 -0.5784  0.5183
   59SAPC   O31 4463  -0.566   1.082  10.609  0.4550  0.3182  0.0847
   59SAPC   C31 4464  -0.633   0.966  10.586 -0.3774  0.3704 -0.2191
   59SAPC   O32 4465  -0.633   0.861  10.651  0.7359  0.5523 -0.0185
   59SAPC   C32 4466  -0.727   0.993  10.464 -0.1499 -0.3144  0.5411
   59SAPC   H2X 4467  -0.666   1.034  10.380 -0.0460  0.5109  1.0106
   59SAPC   H2Y 4468  -0.790   1.077  10.501  0.2395  0.5776 -0.7764
   59SAPC   C23 4469  -0.099   1.273  10.520  0.3404  0.1762  0.7441
   59SAPC   H3R 4470  -0.036   1.233  10.603  0.2280 -0.8079  0.3560
   59SAPC   H3S 4471  -0.174   1.345  10.560 -1.9099 -1.3251 -0.7078
   59SAPC   C24 4472   0.001   1.343  10.423 -0.4106 -0.1054  0.5142
   59SAPC   H4R 4473   0.061   1.264  10.372 -0.3961 -0.4433  1.0540
   59SAPC   H4S 4474   0.076   1.398  10.483 -0.5720 -0.7133  1.2758
   59SAPC   C25 4475  -0.067   1.438  10.328  0.0554  0.2213 -1.0844
   59SAPC   H5R 4476  -0.147   1.498  10.374 -2.1591 -2.3099 -1.4720
   59SAPC   C26 4477  -0.058   1.451  10.194  0.5372 -0.1774  0.1952
   59SAPC   H6R 4478  -0.119   1.522  10.135 -1.3093 -2.6838 -1.0226
   59SAPC   C27 4479   0.041   1.381  10.106 -0.0468  0.1376  0.1615
   59SAPC   H7R 4480   0.137   1.375  10.162 -0.9699 -2.8767  1.5721
   59SAPC   H7S 4481   0.056   1.442  10.015 -2.8482 -0.6917 -0.9005
   59SAPC   C28 4482  -0.013   1.247  10.076  0.8934  0.9606 -0.1289
   59SAPC   H8R 4483  -0.085   1.200  10.144 -1.9344  1.2883 -2.7851
   59SAPC   C29 4484   0.005   1.182   9.960  0.6167 -0.1808  0.2938
   59SAPC   H9R 4485  -0.049   1.089   9.938  2.8608 -1.6895  1.0395
   59SAPC  C210 4486   0.095   1.220   9.846 -1.1568  0.4500 -0.1380
   59SAPC  H10R 4487   0.172   1.142   9.830 -0.9090  0.4479  1.0234
   59SAPC  H10S 4488   0.142   1.320   9.860  0.0769 -0.3717  1.7384
   59SAPC  C211 4489   0.021   1.224   9.713 -0.1029 -0.6717 -0.1043
   59SAPC  H11R 4490  -0.084   1.254   9.727  0.0537 -0.9421  1.8416
   59SAPC  C212 4491   0.063   1.206   9.591 -0.2035 -0.0021  0.3152
   59SAPC  H12R 4492  -0.007   1.220   9.507  2.5981 -1.0808 -2.3324
   59SAPC  C213 4493   0.199   1.165   9.547 -0.0302  0.7187  0.1754
   59SAPC  H13R 4494   0.188   1.085   9.470 -2.4189  0.4387  0.7915
   59SAPC  H13S 4495   0.251   1.118   9.634  0.8288  0.5700 -0.4084
   59SAPC  C214 4496   0.280   1.294   9.510 -0.5983  0.3690 -0.2162
   59SAPC  H14R 4497   0.283   1.370   9.589 -0.3800 -0.0249  0.1549
   59SAPC  C215 4498   0.345   1.314   9.390  0.3653  0.2068  0.7520
   59SAPC  H15R 4499   0.403   1.404   9.365 -0.1515 -0.3270 -2.6768
   59SAPC  C216 4500   0.356   1.205   9.285 -0.1025  0.2448  0.0017
   59SAPC  H16R 4501   0.281   1.125   9.301  0.4734 -0.0406  1.3023
   59SAPC  H16S 4502   0.458   1.161   9.296 -0.0355  0.4976  0.4014
   59SAPC  C217 4503   0.329   1.258   9.141  0.7778 -0.4502 -0.7017
   59SAPC  H17R 4504   0.410   1.324   9.104  0.4551 -0.2750 -1.1085
   59SAPC  H17S 4505   0.237   1.320   9.153  0.4640 -0.8075 -1.1875
   59SAPC  C218 4506   0.297   1.152   9.035  0.4839 -0.1365 -0.1702
   59SAPC  H18R 4507   0.219   1.084   9.075  0.3987  1.3921  2.3193
   59SAPC  H18S 4508   0.379   1.083   9.003  1.1658  1.1690 -1.3140
   59SAPC  C219 4509   0.247   1.212   8.905  0.1387 -0.2477 -0.2495
   59SAPC  H19R 4510   0.338   1.257   8.860 -1.9818  0.4206 -4.0850
   59SAPC  H19S 4511   0.185   1.301   8.930 -2.0140 -1.1864 -2.1036
   59SAPC  C220 4512   0.178   1.115   8.815  0.0336  0.1486  0.1072
   59SAPC  H20R 4513   0.091   1.062   8.860  0.8124 -0.8587  0.4334
   59SAPC  H20S 4514   0.256   1.037   8.801  1.8395  1.2811  3.3097
   59SAPC  H20T 4515   0.148   1.165   8.721  0.9605  1.7810  0.6574
   59SAPC   C33 4516  -0.824   0.872  10.440 -0.0412 -0.3405 -0.3871
   59SAPC   H3X 4517  -0.886   0.853  10.530  1.7301  1.7605  1.3060
   59SAPC   H3Y 4518  -0.771   0.775  10.427 -2.0558 -1.2387 -2.3801
   59SAPC   C34 4519  -0.917   0.906  10.323 -0.1719 -0.1203  0.9217
   59SAPC   H4X 4520  -0.956   1.009  10.337  0.0574  0.1045 -0.0471
   59SAPC   H4Y 4521  -0.999   0.833  10.307 -1.1400  1.7679 -3.4984
   59SAPC   C35 4522  -0.852   0.896  10.185 -0.0491 -0.2733  0.1762
   59SAPC   H5X 4523  -0.799   0.799  10.182 -0.7793 -0.7625  2.1399
   59SAPC   H5Y 4524  -0.773   0.974  10.180 -1.3523  1.1191  0.8117
   59SAPC   C36 4525  -0.948   0.923  10.067  0.3059 -0.1311  0.4418
   59SAPC   H6X 4526  -0.999   1.021  10.078  0.8930  0.4173 -1.4202
   59SAPC   H6Y 4527  -1.027   0.848  10.089 -0.0144  0.4166  1.1868
   59SAPC   C37 4528  -0.876   0.897   9.932 -0.3958 -0.2583 -0.2760
   59SAPC   H7X 4529  -0.860   0.788   9.934  1.4072 -0.0108 -0.1383
   59SAPC   H7Y 4530  -0.779   0.951   9.920 -0.6042 -0.1916 -1.7262
   59SAPC   C38 4531  -0.974   0.925   9.807 -0.3003  0.8234 -0.5545
   59SAPC   H8X 4532  -1.002   1.032   9.806 -0.4856  0.7797 -0.2793
   59SAPC   H8Y 4533  -1.066   0.866   9.825  0.4539 -0.3023 -0.3378
   59SAPC   C39 4534  -0.917   0.872   9.676 -0.1769  0.4132  0.6785
   59SAPC   H9X 4535  -1.002   0.866   9.604  0.7398  0.9306 -0.4549
   59SAPC   H9Y 4536  -0.887   0.766   9.688 -1.9561 -0.0798  0.9675
   59SAPC  C310 4537  -0.810   0.970   9.626 -0.0582  0.9782 -0.7492
   59SAPC  H10X 4538  -0.729   0.974   9.702 -0.1167  1.3941 -0.7044
   59SAPC  H10Y 4539  -0.860   1.068   9.617  0.1082  1.1817  0.4344
   59SAPC  C311 4540  -0.742   0.940   9.488  0.4729  0.3511 -0.0792
   59SAPC  H11X 4541  -0.745   0.830   9.474  0.1189  0.4580 -0.9232
   59SAPC  H11Y 4542  -0.634   0.960   9.503  0.8166  0.5025 -2.5487
   59SAPC  C312 4543  -0.810   1.000   9.364 -0.2340 -0.3739 -0.1496
   59SAPC  H12X 4544  -0.801   1.109   9.383 -1.3277 -0.4718  1.0765
   59SAPC  H12Y 4545  -0.914   0.962   9.376 -0.5671  0.6058  0.1213
   59SAPC  C313 4546  -0.731   0.977   9.229 -0.0698 -0.6512 -0.1109
   59SAPC  H13X 4547  -0.737   0.869   9.203 -0.1258 -1.0126  1.3387
   59SAPC  H13Y 4548  -0.624   1.004   9.241  0.4089 -1.9421 -1.2897
   59SAPC  C314 4549  -0.779   1.049   9.101 -0.0104 -0.5729 -0.4734
   59SAPC  H14X 4550  -0.703   1.042   9.020 -1.0488  1.7693 -1.7096
   59SAPC  H14Y 4551  -0.792   1.158   9.115 -0.1249 -0.2963 -2.6026
   59SAPC  C315 4552  -0.915   1.005   9.047 -0.2290 -0.6964  0.4229
   59SAPC  H15X 4553  -0.993   1.052   9.110  1.2150  1.7221  0.4572
   59SAPC  H15Y 4554  -0.935   0.897   9.067  0.1142 -0.8889 -0.2599
   59SAPC  C316 4555  -0.938   1.037   8.896  0.4021  0.2017 -0.3024
   59SAPC  H16X 4556  -1.017   0.967   8.863  2.7961 -1.8160 -1.9361
   59SAPC  H16Y 4557  -0.846   1.012   8.839  1.7822  0.3415  1.7854
   59SAPC  C317 4558  -0.979   1.182   8.881  0.1027  0.0557  0.0278
   59SAPC  H17X 4559  -0.893   1.245   8.911  0.1231  0.6526 -1.2541
   59SAPC  H17Y 4560  -1.062   1.203   8.951  0.3315 -0.7833  0.5538
   59SAPC  C318 4561  -1.010   1.239   8.743 -0.2902  0.3652  0.0246
   59SAPC  H18X 4562  -0.930   1.199   8.677  1.5435  1.2530  1.6789
   59SAPC  H18Y 4563  -1.008   1.350   8.748  0.5390  0.5417 -3.1554
   59SAPC  H18Z 4564  -1.111   1.211   8.705 -0.2471 -0.0334  0.2064
   60SAPC     N 4565   1.155   6.140  10.757  0.1111  0.4623 -0.0642
   60SAPC   C12 4566   1.245   6.171  10.639  0.2201  0.1513  0.0722
   60SAPC  H12A 4567   1.267   6.076  10.591 -2.0595 -1.1438  1.5081
   60SAPC  H12B 4568   1.335   6.194  10.694 -0.7654 -2.1472  2.8218
   60SAPC   C13 4569   1.022   6.084  10.717 -0.8516 -0.3151  0.2952
   60SAPC  H13A 4570   0.982   6.026  10.798 -0.1400 -0.4330  0.5698
   60SAPC  H13B 4571   0.952   6.164  10.698  0.2842  0.2353 -1.8445
   60SAPC  H13C 4572   1.033   6.017  10.633  1.3108 -0.3380  0.5470
   60SAPC   C14 4573   1.222   6.038  10.843  0.6757  0.0221 -0.1747
   60SAPC  H14A 4574   1.219   5.943  10.792 -1.0669  0.0053 -0.0801
   60SAPC  H14B 4575   1.323   6.069  10.863  0.9625 -2.1157  1.9674
   60SAPC  H14C 4576   1.161   6.018  10.930  0.6245 -1.1601 -0.4755
   60SAPC   C15 4577   1.136   6.260  10.841 -0.0778 -0.4853 -0.8898
   60SAPC  H15A 4578   1.232   6.306  10.862 -0.0125  0.4454 -3.1104
   60SAPC  H15B 4579   1.081   6.335  10.786  0.0500 -0.7976 -1.4433
   60SAPC  H15C 4580   1.083   6.235  10.932 -0.0529 -1.9978 -1.2924
   60SAPC   C11 4581   1.198   6.281  10.543  0.1477 -1.2512  0.0575
   60SAPC  H11A 4582   1.100   6.239  10.513 -0.5153 -0.9225  1.7370
   60SAPC  H11B 4583   1.277   6.272  10.465 -0.7968  1.0583 -1.2190
   60SAPC     P 4584   1.311   6.499  10.607  0.2044 -0.6238  0.1048
   60SAPC   O13 4585   1.283   6.620  10.687 -0.0653 -0.3369  0.2565
   60SAPC   O14 4586   1.429   6.426  10.653 -0.6622 -0.0523 -0.0501
   60SAPC   O12 4587   1.185   6.408  10.603  0.5777 -0.2407  0.2285
   60SAPC   O11 4588   1.313   6.534  10.454  0.0873  0.1822 -0.5479
   60SAPC    C1 4589   1.213   6.626  10.404 -0.1709  0.0234  0.2959
   60SAPC    HA 4590   1.111   6.596  10.437  0.4662 -1.1476  1.2646
   60SAPC    HB 4591   1.239   6.729  10.438 -0.9378 -0.0651  1.1521
   60SAPC    C2 4592   1.198   6.613  10.251 -0.0728  0.2466  0.3641
   60SAPC    HS 4593   1.107   6.672  10.226  0.3370  1.4696  1.6601
   60SAPC   O21 4594   1.192   6.483  10.207  0.5618  0.4863 -0.4741
   60SAPC   C21 4595   1.071   6.428  10.221  0.3478 -0.4925  0.5737
   60SAPC   O22 4596   0.969   6.482  10.267  0.6901  0.0783  0.6905
   60SAPC   C22 4597   1.097   6.282  10.193  0.6319 -0.0499  0.0037
   60SAPC   H2R 4598   1.208   6.271  10.194  0.5998 -0.4390 -0.5689
   60SAPC   H2S 4599   1.030   6.231  10.265  0.3824  0.6413  0.2739
   60SAPC    C3 4600   1.322   6.675  10.184  0.9498 -0.3603  0.3027
   60SAPC    HX 4601   1.410   6.614  10.212 -0.0240 -1.8641  0.1417
   60SAPC    HY 4602   1.333   6.780  10.218  1.7548 -0.0650 -0.8357
   60SAPC   O31 4603   1.291   6.677  10.036  0.6028  0.4996 -0.4263
   60SAPC   C31 4604   1.367   6.608   9.955 -0.6017  0.4702 -0.3681
   60SAPC   O32 4605   1.473   6.558   9.984 -0.2099  0.2919  0.1323
   60SAPC   C32 4606   1.317   6.620   9.810 -0.0201 -0.2653  0.5036
   60SAPC   H2X 4607   1.269   6.720   9.798  0.2937 -0.3432 -1.4184
   60SAPC   H2Y 4608   1.234   6.548   9.796  0.6984 -0.6815 -1.7201
   60SAPC   C23 4609   1.039   6.237  10.057 -0.6968 -0.4394 -0.7245
   60SAPC   H3R 4610   0.938   6.281  10.049  0.3194  2.2563  0.6938
   60SAPC   H3S 4611   1.026   6.127  10.071 -1.3617 -0.4115 -1.1034
   60SAPC   C24 4612   1.116   6.268   9.923 -0.1930 -0.1850  0.2539
   60SAPC   H4R 4613   1.142   6.376   9.920 -0.6125 -0.1118 -2.2576
   60SAPC   H4S 4614   1.058   6.235   9.833  0.4448 -1.3884  0.2634
   60SAPC   C25 4615   1.252   6.201   9.921  0.2477  0.7201 -0.0961
   60SAPC   H5R 4616   1.291   6.191  10.024 -1.8746 -1.0247  0.5614
   60SAPC   C26 4617   1.322   6.163   9.811  0.2463  0.1503 -0.2053
   60SAPC   H6R 4618   1.415   6.107   9.829 -1.4183 -3.0491 -1.0225
   60SAPC   C27 4619   1.289   6.189   9.661 -0.0437  0.3329  0.2673
   60SAPC   H7R 4620   1.198   6.251   9.653  0.5662  1.2168  0.0724
   60SAPC   H7S 4621   1.262   6.093   9.612  2.5641  0.4429 -1.4895
   60SAPC   C28 4622   1.397   6.251   9.571 -1.0220  1.0982 -0.9357
   60SAPC   H8R 4623   1.477   6.300   9.629 -0.0580 -1.0824 -0.3544
   60SAPC   C29 4624   1.393   6.245   9.434 -0.5639  0.4741  0.2808
   60SAPC   H9R 4625   1.466   6.303   9.376 -1.4487  1.8646  0.5516
   60SAPC  C210 4626   1.292   6.174   9.347 -0.0198  1.2923 -0.2544
   60SAPC  H10R 4627   1.198   6.180   9.406  1.1111 -2.1436  2.0567
   60SAPC  H10S 4628   1.315   6.066   9.337  1.7791  1.4458  1.8462
   60SAPC  C211 4629   1.272   6.249   9.218  0.4812  0.2917  0.1262
   60SAPC  H11R 4630   1.261   6.358   9.230 -0.4813  0.1472  0.6852
   60SAPC  C212 4631   1.271   6.205   9.089  0.6188  0.9213  0.4297
   60SAPC  H12R 4632   1.240   6.272   9.007  0.2582 -1.2255 -1.2065
   60SAPC  C213 4633   1.280   6.061   9.044 -0.2637  0.3223 -0.3605
   60SAPC  H13R 4634   1.240   6.046   8.941 -1.1639  0.3590 -0.0172
   60SAPC  H13S 4635   1.213   6.000   9.108 -0.4029 -0.1167 -0.9103
   60SAPC  C214 4636   1.421   6.004   9.061  0.1775  0.1764  0.2409
   60SAPC  H14R 4637   1.485   6.058   9.132 -1.3852  0.4782  1.4315
   60SAPC  C215 4638   1.474   5.893   9.004 -0.4229  0.0518  0.0404
   60SAPC  H15R 4639   1.578   5.867   9.030 -0.0587  2.0736  0.7665
   60SAPC  C216 4640   1.405   5.793   8.907  0.5615  0.1448 -0.4041
   60SAPC  H16R 4641   1.296   5.794   8.926  0.6803  0.1869  0.2739
   60SAPC  H16S 4642   1.436   5.691   8.937  0.9774  0.2237 -0.5586
   60SAPC  C217 4643   1.433   5.832   8.761 -0.7562 -0.3808 -0.2782
   60SAPC  H17R 4644   1.527   5.780   8.732  1.4068  1.6930  2.6721
   60SAPC  H17S 4645   1.469   5.936   8.747  0.7405 -0.7071  1.0128
   60SAPC  C218 4646   1.330   5.780   8.661 -0.6613  0.0049  0.3450
   60SAPC  H18R 4647   1.231   5.816   8.693 -1.0118 -0.1636 -0.5203
   60SAPC  H18S 4648   1.325   5.670   8.673  1.2676 -0.0354  1.0166
   60SAPC  C219 4649   1.358   5.820   8.514 -0.3260 -0.2545 -0.3524
   60SAPC  H19R 4650   1.310   5.919   8.500 -3.0438 -1.5694 -0.6583
   60SAPC  H19S 4651   1.288   5.766   8.446 -1.2170  1.0363 -0.4768
   60SAPC  C220 4652   1.497   5.821   8.458 -0.5143  0.2761  0.8560
   60SAPC  H20R 4653   1.553   5.727   8.476  1.0630  1.3856  1.7701
   60SAPC  H20S 4654   1.565   5.882   8.520 -1.6391 -0.9925  3.4002
   60SAPC  H20T 4655   1.505   5.848   8.350  1.8191  0.1403  0.9815
   60SAPC   C33 4656   1.429   6.606   9.703 -0.0747 -0.5809 -0.8109
   60SAPC   H3X 4657   1.482   6.508   9.710 -0.1291 -0.5600  0.0191
   60SAPC   H3Y 4658   1.493   6.697   9.703  0.6867 -1.1114 -1.1613
   60SAPC   C34 4659   1.358   6.611   9.570  0.3352 -0.5106  0.3197
   60SAPC   H4X 4660   1.308   6.709   9.550  1.1893 -0.2640 -0.6884
   60SAPC   H4Y 4661   1.280   6.535   9.550  0.1215 -0.2945  0.3328
   60SAPC   C35 4662   1.465   6.592   9.459  0.1627  0.6693  0.7447
   60SAPC   H5X 4663   1.518   6.495   9.471 -2.1750 -0.7836 -0.3703
   60SAPC   H5Y 4664   1.547   6.667   9.470  0.2342  0.2784  3.3101
   60SAPC   C36 4665   1.411   6.603   9.320  0.1201  0.3418  0.4076
   60SAPC   H6X 4666   1.384   6.708   9.294 -1.1954 -0.5416 -1.9512
   60SAPC   H6Y 4667   1.317   6.545   9.308 -0.2068  0.4027  2.5223
   60SAPC   C37 4668   1.517   6.568   9.218 -0.5405 -0.1985 -0.6025
   60SAPC   H7X 4669   1.571   6.476   9.246  2.6620  1.7110 -0.2493
   60SAPC   H7Y 4670   1.597   6.645   9.211 -1.6824  1.1275  0.6529
   60SAPC   C38 4671   1.461   6.559   9.080  0.6258 -0.2334  0.1524
   60SAPC   H8X 4672   1.424   6.652   9.032  1.1056  0.2066  0.6366
   60SAPC   H8Y 4673   1.369   6.501   9.102 -0.2128  1.7374  1.9553
   60SAPC   C39 4674   1.535   6.478   8.980 -0.4683 -0.5711  0.2977
   60SAPC   H9X 4675   1.541   6.373   9.017  1.9829 -1.3920 -2.2559
   60SAPC   H9Y 4676   1.636   6.519   8.961 -1.1022  0.7933 -0.1708
   60SAPC  C310 4677   1.459   6.467   8.850 -0.5133  0.1830  0.6336
   60SAPC  H10X 4678   1.470   6.559   8.788  0.0760 -1.6362 -2.0735
   60SAPC  H10Y 4679   1.350   6.456   8.870 -0.4175 -3.1523 -0.4237
   60SAPC  C311 4680   1.485   6.340   8.760 -0.4149 -0.3641 -0.4898
   60SAPC  H11X 4681   1.447   6.254   8.818 -0.7967 -1.3483 -2.1644
   60SAPC  H11Y 4682   1.593   6.336   8.734 -0.6182 -1.6389 -1.1846
   60SAPC  C312 4683   1.401   6.353   8.639 -0.2004  0.4955  0.2984
   60SAPC  H12X 4684   1.440   6.436   8.576  2.5723  0.3672  1.7541
   60SAPC  H12Y 4685   1.295   6.373   8.664 -0.2265  0.0129  0.5780
   60SAPC  C313 4686   1.411   6.222   8.551 -0.3372  0.0058  0.3540
   60SAPC  H13X 4687   1.387   6.135   8.616 -0.6605  0.1278  0.3952
   60SAPC  H13Y 4688   1.516   6.216   8.513  0.3667  2.6665  1.7352
   60SAPC  C314 4689   1.324   6.230   8.419 -0.0733 -0.5391  0.7124
   60SAPC  H14X 4690   1.365   6.147   8.359 -0.3783  1.2135 -1.9979
   60SAPC  H14Y 4691   1.347   6.326   8.368  0.8250 -2.5320 -2.7137
   60SAPC  C315 4692   1.170   6.214   8.444  0.9041 -0.5095  0.5268
   60SAPC  H15X 4693   1.141   6.312   8.486 -0.5262 -0.8897  0.4317
   60SAPC  H15Y 4694   1.147   6.133   8.517 -2.4032 -0.2619 -0.2025
   60SAPC  C316 4695   1.098   6.195   8.315  0.1711 -0.9776  0.3836
   60SAPC  H16X 4696   1.152   6.267   8.249  1.3960 -1.9438  0.3182
   60SAPC  H16Y 4697   0.996   6.226   8.344  0.6812  0.9418  0.2058
   60SAPC  C317 4698   1.079   6.051   8.257  0.4398  0.3613  0.1688
   60SAPC  H17X 4699   1.037   5.997   8.345 -0.7318  0.0001 -0.5991
   60SAPC  H17Y 4700   1.175   5.998   8.239  0.6177  1.1541 -1.2552
   60SAPC  C318 4701   0.996   6.059   8.130 -0.2860 -0.2702 -0.2072
   60SAPC  H18X 4702   1.061   6.093   8.047 -1.6979  0.8563 -0.8603
   60SAPC  H18Y 4703   0.908   6.126   8.140  0.1581  0.4014 -0.7049
   60SAPC  H18Z 4704   0.968   5.956   8.102 -1.8596 -0.1924  1.0016
   61SAPC     N 4705   1.479   4.800  10.938  0.2404  0.4661 -0.7810
   61SAPC   C12 4706   1.596   4.836  10.855  0.0872 -0.1456 -0.1145
   61SAPC  H12A 4707   1.621   4.748  10.798  0.4713 -0.0920 -0.0339
   61SAPC  H12B 4708   1.681   4.871  10.913  0.5814  1.7340 -1.9039
   61SAPC   C13 4709   1.362   4.766  10.857  0.3116  0.2096  0.1704
   61SAPC  H13A 4710   1.378   4.677  10.798 -1.7804  1.1955 -1.9843
   61SAPC  H13B 4711   1.269   4.760  10.912 -0.1786 -0.0834 -0.6744
   61SAPC  H13C 4712   1.329   4.838  10.783  2.3268  1.1206  0.1286
   61SAPC   C14 4713   1.503   4.697  11.043 -0.1924  0.0479 -0.7398
   61SAPC  H14A 4714   1.570   4.735  11.118 -1.1797 -1.3913  0.9202
   61SAPC  H14B 4715   1.411   4.651  11.078  0.1312 -1.3596 -1.6890
   61SAPC  H14C 4716   1.560   4.617  10.997  0.6199  0.9690 -1.3390
   61SAPC   C15 4717   1.438   4.923  11.017 -0.0405  0.2616 -1.6460
   61SAPC  H15A 4718   1.337   4.911  11.052  1.5547 -1.8040  2.7421
   61SAPC  H15B 4719   1.507   4.942  11.098 -1.6083  0.8172 -0.4243
   61SAPC  H15C 4720   1.440   5.012  10.956  0.4811  2.0072  0.8396
   61SAPC   C11 4721   1.583   4.950  10.750 -0.0630  0.9986  0.2614
   61SAPC  H11A 4722   1.500   4.930  10.679 -2.7188 -0.1137  3.5121
   61SAPC  H11B 4723   1.677   4.949  10.692  0.1626 -0.4773  0.6380
   61SAPC     P 4724   1.675   5.166  10.881  0.0241  0.0107  0.0397
   61SAPC   O13 4725   1.638   5.304  10.896 -0.0746  0.4711 -0.6829
   61SAPC   O14 4726   1.737   5.100  10.996 -0.3961 -0.9549  0.0809
   61SAPC   O12 4727   1.560   5.079  10.816 -0.3499 -0.0959  0.1506
   61SAPC   O11 4728   1.779   5.162  10.762  0.2825 -0.5335  0.5723
   61SAPC    C1 4729   1.784   5.264  10.656 -0.0198  0.0119  0.3446
   61SAPC    HA 4730   1.781   5.370  10.692  0.2223  1.3224 -3.3411
   61SAPC    HB 4731   1.883   5.262  10.606 -0.8477 -0.7368 -1.2679
   61SAPC    C2 4732   1.675   5.249  10.548 -0.5557 -0.6813 -0.3498
   61SAPC    HS 4733   1.577   5.233  10.598 -0.1710 -2.2168 -0.0667
   61SAPC   O21 4734   1.706   5.145  10.458 -0.1777  0.0929  0.0697
   61SAPC   C21 4735   1.602   5.101  10.379  0.2359  0.3499  0.4669
   61SAPC   O22 4736   1.485   5.129  10.392 -1.1741 -0.6631 -0.6042
   61SAPC   C22 4737   1.663   5.015  10.268  0.8105 -0.8304  0.4664
   61SAPC   H2R 4738   1.737   5.079  10.216  0.1222  0.3836  0.9718
   61SAPC   H2S 4739   1.708   4.924  10.314 -1.0467 -1.5481  0.9330
   61SAPC    C3 4740   1.662   5.381  10.470  0.5547  0.2594 -1.1463
   61SAPC    HX 4741   1.618   5.459  10.535  2.6314  0.9250 -0.4892
   61SAPC    HY 4742   1.587   5.365  10.390 -0.4896 -0.7299  0.0053
   61SAPC   O31 4743   1.801   5.420  10.429  0.0451 -0.2485  0.5301
   61SAPC   C31 4744   1.794   5.533  10.362 -0.1535  0.6701 -0.0848
   61SAPC   O32 4745   1.697   5.594  10.335  0.2518 -0.1246 -0.0422
   61SAPC   C32 4746   1.930   5.546  10.295 -0.8447  0.1778 -0.6547
   61SAPC   H2X 4747   1.986   5.457  10.332 -0.2227  1.1067  0.7164
   61SAPC   H2Y 4748   1.984   5.634  10.336  1.4936 -0.3385 -2.5530
   61SAPC   C23 4749   1.564   4.971  10.161  1.2598  0.2417 -0.5560
   61SAPC   H3R 4750   1.493   5.054  10.146 -0.7581 -1.2923  0.3114
   61SAPC   H3S 4751   1.507   4.886  10.205  1.2258  0.2011 -0.6773
   61SAPC   C24 4752   1.620   4.946  10.025 -0.3105  0.3155  0.1554
   61SAPC   H4R 4753   1.680   5.029   9.981 -0.7549  0.0843 -0.8974
   61SAPC   H4S 4754   1.538   4.921   9.955 -1.3794  1.3757  1.0148
   61SAPC   C25 4755   1.711   4.823  10.028 -0.1793  1.0730 -0.0637
   61SAPC   H5R 4756   1.755   4.809  10.128  3.5788  1.8922 -1.5253
   61SAPC   C26 4757   1.719   4.719   9.938 -0.1163 -0.6129 -0.5606
   61SAPC   H6R 4758   1.783   4.633   9.962  1.2603  0.2971 -0.8759
   61SAPC   C27 4759   1.645   4.715   9.804  0.3737  0.6968 -0.4374
   61SAPC   H7R 4760   1.539   4.739   9.825  0.5374 -1.0727  2.7332
   61SAPC   H7S 4761   1.660   4.611   9.767  0.5001  1.0299 -1.3180
   61SAPC   C28 4762   1.708   4.814   9.706 -0.6395  0.9375 -0.4256
   61SAPC   H8R 4763   1.807   4.853   9.734 -1.3724  1.7797  1.0374
   61SAPC   C29 4764   1.672   4.854   9.582  0.0953  0.3905  0.5361
   61SAPC   H9R 4765   1.744   4.916   9.526 -1.9878  2.6470  0.2596
   61SAPC  C210 4766   1.544   4.821   9.509 -0.2425  0.3413 -0.3656
   61SAPC  H10R 4767   1.458   4.871   9.558 -1.2611 -0.7992 -0.9530
   61SAPC  H10S 4768   1.518   4.713   9.513 -1.8706  0.7897  2.5416
   61SAPC  C211 4769   1.551   4.847   9.362  0.3819  0.2134 -0.2203
   61SAPC  H11R 4770   1.647   4.830   9.310  0.3828  3.9225 -1.6374
   61SAPC  C212 4771   1.449   4.891   9.282  0.0239 -0.0166  0.2667
   61SAPC  H12R 4772   1.462   4.894   9.173 -0.7778  1.7028  0.2008
   61SAPC  C213 4773   1.309   4.933   9.323 -1.1794  0.5531  0.1894
   61SAPC  H13R 4774   1.324   4.971   9.427  1.9074  0.7326 -0.2650
   61SAPC  H13S 4775   1.248   4.842   9.340  0.8489 -0.7511  0.7075
   61SAPC  C214 4776   1.237   5.058   9.260  0.3447  0.4914  0.5089
   61SAPC  H14R 4777   1.203   5.144   9.320 -0.8773  0.5191 -0.2074
   61SAPC  C215 4778   1.210   5.069   9.128 -0.0295 -0.1210  0.0213
   61SAPC  H15R 4779   1.167   5.163   9.090 -0.6365  0.8057  2.8855
   61SAPC  C216 4780   1.242   4.957   9.027 -0.1686 -0.0121  0.4111
   61SAPC  H16R 4781   1.158   4.947   8.955 -0.6477  1.0303  0.8088
   61SAPC  H16S 4782   1.248   4.862   9.084 -0.6611 -0.9375 -1.0398
   61SAPC  C217 4783   1.373   4.974   8.941 -0.0246 -1.0765 -0.1355
   61SAPC  H17R 4784   1.398   4.869   8.913  1.0683 -0.9878  0.5155
   61SAPC  H17S 4785   1.452   5.011   9.008 -2.5335  2.0275  1.2340
   61SAPC  C218 4786   1.360   5.057   8.809 -0.2318  0.5719 -1.6345
   61SAPC  H18R 4787   1.371   5.161   8.846 -2.2816  0.4541 -0.6558
   61SAPC  H18S 4788   1.258   5.047   8.768 -0.8977 -2.0405  0.5243
   61SAPC  C219 4789   1.459   5.019   8.698 -0.4534 -0.5338 -0.2220
   61SAPC  H19R 4790   1.445   4.910   8.683 -2.8279 -0.2206 -0.5358
   61SAPC  H19S 4791   1.567   5.031   8.722 -1.0236  0.0940  2.1328
   61SAPC  C220 4792   1.433   5.102   8.573  0.3108  0.1356  0.3772
   61SAPC  H20R 4793   1.346   5.061   8.518  0.9901  1.3467 -1.6328
   61SAPC  H20S 4794   1.517   5.099   8.501 -0.3530  0.2991 -0.4082
   61SAPC  H20T 4795   1.415   5.209   8.598 -0.8146 -0.2007  1.0638
   61SAPC   C33 4796   1.919   5.574  10.144  0.0938  0.5843 -0.2104
   61SAPC   H3X 4797   1.881   5.674  10.112  0.5936  1.2238  1.1688
   61SAPC   H3Y 4798   1.862   5.494  10.092  1.2531 -1.5347  1.7089
   61SAPC   C34 4799   2.053   5.560  10.059  0.0166 -0.0863 -0.5175
   61SAPC   H4X 4800   2.081   5.452  10.060 -1.2528 -0.4191 -0.8672
   61SAPC   H4Y 4801   2.133   5.615  10.114  0.2440  1.1229 -2.0084
   61SAPC   C35 4802   2.050   5.598   9.918  0.0283 -0.3243  0.4419
   61SAPC   H5X 4803   2.144   5.574   9.863 -1.2187 -2.4984 -0.8300
   61SAPC   H5Y 4804   2.036   5.708   9.921  1.7619  0.0203 -2.2816
   61SAPC   C36 4805   1.923   5.532   9.845  0.6960  0.2094  0.2566
   61SAPC   H6X 4806   1.834   5.569   9.900 -0.2958 -1.7589 -0.0003
   61SAPC   H6Y 4807   1.937   5.422   9.851  0.5781  0.0645 -1.6438
   61SAPC   C37 4808   1.905   5.592   9.701  0.0243 -0.6968  0.0556
   61SAPC   H7X 4809   1.919   5.703   9.706 -0.3893 -0.6866  1.2819
   61SAPC   H7Y 4810   1.800   5.590   9.666 -0.6647 -1.6451  2.0730
   61SAPC   C38 4811   1.996   5.538   9.589 -0.0620 -0.5210 -0.1728
   61SAPC   H8X 4812   1.976   5.431   9.568 -0.6468 -0.2124 -1.2679
   61SAPC   H8Y 4813   2.102   5.555   9.619  0.7757  0.1884 -3.3147
   61SAPC   C39 4814   1.981   5.622   9.462 -0.6307 -0.0576  0.0260
   61SAPC   H9X 4815   2.019   5.723   9.487  2.2275 -1.3962  1.2979
   61SAPC   H9Y 4816   1.874   5.637   9.434 -0.7516  2.4680  1.7009
   61SAPC  C310 4817   2.050   5.553   9.341 -0.1661  0.1312 -0.1403
   61SAPC  H10X 4818   2.035   5.442   9.344  0.8405  0.0221  2.4868
   61SAPC  H10Y 4819   2.159   5.565   9.356  0.0054  0.1503 -1.3807
   61SAPC  C311 4820   2.005   5.603   9.202 -0.0429  0.6089  0.2068
   61SAPC  H11X 4821   1.986   5.711   9.217  1.4339  0.9604 -0.3034
   61SAPC  H11Y 4822   1.909   5.561   9.165  1.5205 -1.2106 -1.9678
   61SAPC  C312 4823   2.120   5.590   9.101  0.3450 -0.0925 -0.7048
   61SAPC  H12X 4824   2.212   5.616   9.157 -0.3675 -1.7007  1.2526
   61SAPC  H12Y 4825   2.110   5.665   9.020  1.2856  0.3443 -0.4331
   61SAPC  C313 4826   2.129   5.451   9.025  0.6482 -0.1896  0.4797
   61SAPC  H13X 4827   2.048   5.460   8.950 -0.0649 -2.2553  0.9748
   61SAPC  H13Y 4828   2.093   5.379   9.101  3.5668 -1.8446  0.3597
   61SAPC  C314 4829   2.279   5.424   8.970  0.9623  0.0414 -0.3484
   61SAPC  H14X 4830   2.344   5.418   9.060 -1.1209  0.2719  1.2035
   61SAPC  H14Y 4831   2.299   5.521   8.920 -2.2741  1.4274  0.8948
   61SAPC  C315 4832   2.301   5.297   8.887  0.2563  0.5598  0.3029
   61SAPC  H15X 4833   2.205   5.286   8.831 -0.2905  1.9059  0.9502
   61SAPC  H15Y 4834   2.302   5.202   8.945 -1.5624  0.3882  0.0940
   61SAPC  C316 4835   2.428   5.320   8.800  0.9167 -0.1323  0.4284
   61SAPC  H16X 4836   2.510   5.362   8.863 -3.0462  2.3209  4.2846
   61SAPC  H16Y 4837   2.400   5.398   8.726  1.1941  0.3182  0.7929
   61SAPC  C317 4838   2.472   5.194   8.724  0.7052 -0.1415  0.2470
   61SAPC  H17X 4839   2.387   5.148   8.669  2.0240 -0.4259 -1.6075
   61SAPC  H17Y 4840   2.505   5.122   8.802 -2.1842 -1.1024  0.6373
   61SAPC  C318 4841   2.583   5.233   8.628 -0.0040  0.3785 -0.6036
   61SAPC  H18X 4842   2.544   5.308   8.556 -1.6829 -0.2106 -0.3235
   61SAPC  H18Y 4843   2.621   5.146   8.569  0.3685  2.0151 -2.8485
   61SAPC  H18Z 4844   2.659   5.274   8.698 -0.8985  2.0690 -0.5984
   62SAPC     N 4845   1.079   3.685  11.057  0.1127  0.0005 -0.3630
   62SAPC   C12 4846   0.963   3.630  10.978  0.3127  0.3427 -0.0246
   62SAPC  H12A 4847   0.872   3.680  11.007 -0.5507 -0.4673 -1.3260
   62SAPC  H12B 4848   0.950   3.526  11.004 -0.8392  0.0525 -1.6973
   62SAPC   C13 4849   1.104   3.825  11.014 -0.4496 -0.0042 -0.5958
   62SAPC  H13A 4850   1.011   3.880  11.017 -1.1825 -0.9906 -3.4790
   62SAPC  H13B 4851   1.176   3.868  11.082  0.8642 -1.7175 -0.8715
   62SAPC  H13C 4852   1.145   3.837  10.915 -3.1208  3.8209 -1.3815
   62SAPC   C14 4853   1.036   3.677  11.202 -0.4446 -1.0529 -0.3293
   62SAPC  H14A 4854   0.935   3.713  11.214 -0.6174 -2.4657  2.9865
   62SAPC  H14B 4855   1.042   3.576  11.237  0.5758 -1.4150 -1.5200
   62SAPC  H14C 4856   1.094   3.745  11.263 -0.3432 -1.2445 -0.2146
   62SAPC   C15 4857   1.201   3.603  11.048  0.2731  0.6824  0.7931
   62SAPC  H15A 4858   1.177   3.499  11.064 -3.1064  1.2982  0.1912
   62SAPC  H15B 4859   1.247   3.614  10.951 -2.3826 -1.0939 -0.7343
   62SAPC  H15C 4860   1.278   3.637  11.116  0.8519  1.6355 -0.3212
   62SAPC   C11 4861   0.971   3.636  10.819 -0.0582 -0.0081  0.6637
   62SAPC  H11A 4862   0.891   3.570  10.778  1.0427 -0.7538 -0.3028
   62SAPC  H11B 4863   1.072   3.595  10.799  1.3584  2.6660  2.0609
   62SAPC     P 4864   0.851   3.855  10.727 -0.3160 -0.1806  0.3431
   62SAPC   O13 4865   0.743   3.779  10.660 -0.3914 -0.3548 -0.0524
   62SAPC   O14 4866   0.804   3.931  10.843  0.0000  0.2139  0.0961
   62SAPC   O12 4867   0.977   3.763  10.761  0.2596 -0.1177  0.5403
   62SAPC   O11 4868   0.921   3.958  10.624 -0.3486  0.2397 -0.4789
   62SAPC    C1 4869   0.995   3.899  10.517  0.5052  0.0843 -0.4350
   62SAPC    HA 4870   1.101   3.896  10.550  0.3771 -3.0380 -0.1357
   62SAPC    HB 4871   0.972   3.793  10.490  1.1517 -0.5440  1.3605
   62SAPC    C2 4872   0.977   3.992  10.391 -0.7273  0.4955  0.1520
   62SAPC    HS 4873   1.023   3.933  10.308 -2.4378  0.3594 -0.7271
   62SAPC   O21 4874   1.021   4.126  10.413  0.2297 -0.2828  0.1751
   62SAPC   C21 4875   1.155   4.147  10.406  0.8598 -0.1234 -0.0708
   62SAPC   O22 4876   1.235   4.076  10.348 -0.3923  0.2173  0.1194
   62SAPC   C22 4877   1.180   4.289  10.473 -0.0109  0.4260  0.6244
   62SAPC   H2R 4878   1.084   4.345  10.471 -0.8289 -0.9318 -3.6251
   62SAPC   H2S 4879   1.193   4.264  10.580 -0.2115 -3.6628 -0.2159
   62SAPC    C3 4880   0.830   4.004  10.350 -0.3189 -0.1562  0.1457
   62SAPC    HX 4881   0.833   4.095  10.286 -1.7363  1.3519  2.1652
   62SAPC    HY 4882   0.767   4.017  10.440  1.3234  0.6119  1.1852
   62SAPC   O31 4883   0.802   3.877  10.276  0.3406  0.1514 -0.1541
   62SAPC   C31 4884   0.750   3.906  10.152  0.4677  0.0241  1.2053
   62SAPC   O32 4885   0.710   4.013  10.120 -0.2682 -0.0431  0.5068
   62SAPC   C32 4886   0.758   3.779  10.063 -0.2874 -0.6512  0.1774
   62SAPC   H2X 4887   0.685   3.702  10.099 -2.0779  0.6833 -0.5358
   62SAPC   H2Y 4888   0.860   3.737  10.077 -0.1222  0.1135  1.4127
   62SAPC   C23 4889   1.283   4.375  10.397 -0.3807 -0.3095 -0.5466
   62SAPC   H3R 4890   1.375   4.313  10.399 -1.6688 -2.2378 -0.5339
   62SAPC   H3S 4891   1.297   4.468  10.457  1.1359 -2.2078  2.1474
   62SAPC   C24 4892   1.256   4.419  10.250  0.8904 -0.1937 -0.3249
   62SAPC   H4R 4893   1.172   4.492  10.244  0.5463 -0.4653  0.9458
   62SAPC   H4S 4894   1.223   4.325  10.200  0.2124  0.3174 -0.8493
   62SAPC   C25 4895   1.388   4.472  10.199  0.5146  0.0009 -0.1597
   62SAPC   H5R 4896   1.463   4.502  10.274  1.7310 -1.0594 -0.9420
   62SAPC   C26 4897   1.416   4.491  10.073 -0.8019  0.2051 -0.3661
   62SAPC   H6R 4898   1.522   4.513  10.049 -0.4310 -0.7664  0.3592
   62SAPC   C27 4899   1.335   4.467   9.947  0.6218  0.9579 -0.1168
   62SAPC   H7R 4900   1.359   4.550   9.877  2.2263  1.4133  0.9173
   62SAPC   H7S 4901   1.228   4.480   9.975  0.4154  1.3278 -1.0600
   62SAPC   C28 4902   1.348   4.329   9.891  1.1757 -0.4928  0.5132
   62SAPC   H8R 4903   1.296   4.247   9.943  0.5601  0.8698  2.0676
   62SAPC   C29 4904   1.400   4.300   9.766 -0.5695  0.0632  0.1442
   62SAPC   H9R 4905   1.393   4.195   9.734  2.2478 -0.3148  0.6792
   62SAPC  C210 4906   1.463   4.395   9.668 -0.0455  0.0682 -0.1109
   62SAPC  H10R 4907   1.528   4.466   9.723  0.2365 -1.1108  1.1198
   62SAPC  H10S 4908   1.386   4.454   9.614  1.7560  1.9113 -0.6993
   62SAPC  C211 4909   1.550   4.337   9.559 -0.4271 -0.3892 -0.3658
   62SAPC  H11R 4910   1.657   4.335   9.587 -0.5376  1.8004  0.3075
   62SAPC  C212 4911   1.518   4.300   9.437  0.4754 -0.3706 -1.3848
   62SAPC  H12R 4912   1.599   4.262   9.373 -2.3582 -2.3018 -3.9545
   62SAPC  C213 4913   1.375   4.308   9.375 -0.7276  0.3801  0.3276
   62SAPC  H13R 4914   1.300   4.249   9.431 -0.0295 -0.6023  0.2453
   62SAPC  H13S 4915   1.389   4.242   9.286  1.1902 -0.4398  1.1969
   62SAPC  C214 4916   1.330   4.444   9.348 -0.1699  0.7736  0.1709
   62SAPC  H14R 4917   1.297   4.502   9.436  0.8294  3.8477 -1.4150
   62SAPC  C215 4918   1.322   4.508   9.229  0.6126 -0.2124  0.2125
   62SAPC  H15R 4919   1.281   4.611   9.226 -0.5909 -0.7223 -3.6294
   62SAPC  C216 4920   1.365   4.444   9.095  0.1659  0.4820  0.0189
   62SAPC  H16R 4921   1.300   4.355   9.075 -1.5375  1.8159 -0.4642
   62SAPC  H16S 4922   1.468   4.405   9.104  0.5270  1.7300  1.4001
   62SAPC  C217 4923   1.360   4.541   8.975  0.9443 -0.2927  0.0566
   62SAPC  H17R 4924   1.399   4.640   9.006  0.3565  0.6254 -2.0506
   62SAPC  H17S 4925   1.252   4.552   8.951  0.9590 -0.9817 -0.3190
   62SAPC  C218 4926   1.437   4.486   8.852  0.0135 -0.6669 -0.9134
   62SAPC  H18R 4927   1.544   4.487   8.882 -0.0433  2.7825 -0.6669
   62SAPC  H18S 4928   1.418   4.565   8.776  0.8078  0.6891  0.2875
   62SAPC  C219 4929   1.403   4.347   8.810  0.0155  0.2641 -0.3937
   62SAPC  H19R 4930   1.293   4.331   8.802 -0.1672  0.0194  2.0085
   62SAPC  H19S 4931   1.435   4.274   8.887 -0.7127  1.0566  0.6945
   62SAPC  C220 4932   1.474   4.309   8.676 -0.0545  0.2384 -0.4511
   62SAPC  H20R 4933   1.455   4.203   8.648 -3.4627  0.9529 -1.0666
   62SAPC  H20S 4934   1.582   4.334   8.682  0.5539 -1.3253 -3.7980
   62SAPC  H20T 4935   1.420   4.376   8.606 -1.4559  0.8833  1.2135
   62SAPC   C33 4936   0.734   3.799   9.911 -0.2849 -0.1033  0.1391
   62SAPC   H3X 4937   0.788   3.890   9.877 -0.7601  0.0379 -0.2453
   62SAPC   H3Y 4938   0.627   3.801   9.879 -0.9146  3.6703  2.1471
   62SAPC   C34 4939   0.827   3.704   9.822  0.0289  0.3766 -0.1633
   62SAPC   H4X 4940   0.844   3.602   9.863 -1.6200  1.1399  2.5848
   62SAPC   H4Y 4941   0.929   3.746   9.813  0.0812  0.0933 -0.8869
   62SAPC   C35 4942   0.770   3.698   9.681 -0.3387 -0.3860  0.0633
   62SAPC   H5X 4943   0.767   3.804   9.648 -1.5144 -0.1476  0.8770
   62SAPC   H5Y 4944   0.665   3.661   9.677 -1.1832  1.7125  1.5212
   62SAPC   C36 4945   0.856   3.619   9.591 -0.2111 -0.2541  0.3385
   62SAPC   H6X 4946   0.857   3.514   9.627 -0.2003 -0.1876  0.5376
   62SAPC   H6Y 4947   0.962   3.652   9.587 -0.6317  1.2878  1.5719
   62SAPC   C37 4948   0.802   3.617   9.447  0.3493 -0.2495 -0.6262
   62SAPC   H7X 4949   0.797   3.721   9.409  0.5873  0.1814  0.5063
   62SAPC   H7Y 4950   0.697   3.582   9.450  0.0221  0.7908  0.2413
   62SAPC   C38 4951   0.890   3.536   9.351  0.1171 -0.3751  0.2181
   62SAPC   H8X 4952   0.917   3.439   9.398 -0.3007 -0.8979 -0.6149
   62SAPC   H8Y 4953   0.982   3.597   9.335 -1.3511  2.3354  1.8010
   62SAPC   C39 4954   0.833   3.503   9.213  0.5513 -0.6126 -0.6373
   62SAPC   H9X 4955   0.741   3.444   9.227  1.5468 -1.7768  1.1061
   62SAPC   H9Y 4956   0.904   3.443   9.152  1.1610 -1.9485  1.3346
   62SAPC  C310 4957   0.798   3.630   9.137 -0.3220 -0.0505  0.5551
   62SAPC  H10X 4958   0.879   3.705   9.153  0.5630 -0.8925  0.0585
   62SAPC  H10Y 4959   0.699   3.672   9.167 -0.9901  1.8073 -3.8844
   62SAPC  C311 4960   0.784   3.598   8.981  0.4484  0.1790  0.2551
   62SAPC  H11X 4961   0.710   3.516   8.973  0.1213  0.3079  1.8125
   62SAPC  H11Y 4962   0.883   3.558   8.949 -0.8716 -1.9626 -1.2900
   62SAPC  C312 4963   0.745   3.731   8.900 -0.8620  1.3392 -0.2362
   62SAPC  H12X 4964   0.806   3.818   8.932 -1.1197  1.9721 -1.4611
   62SAPC  H12Y 4965   0.645   3.757   8.941  0.1990  1.1520  2.6082
   62SAPC  C313 4966   0.752   3.716   8.748 -0.4383 -0.1202 -0.3355
   62SAPC  H13X 4967   0.858   3.711   8.716 -0.7779  0.4913 -1.5854
   62SAPC  H13Y 4968   0.714   3.803   8.691  0.3364 -0.9210 -2.1133
   62SAPC  C314 4969   0.669   3.591   8.688  0.2159 -0.2214 -0.3162
   62SAPC  H14X 4970   0.578   3.586   8.750  0.7762 -3.5856  0.3671
   62SAPC  H14Y 4971   0.719   3.499   8.727 -1.3692 -1.5075 -1.2419
   62SAPC  C315 4972   0.647   3.597   8.542  0.5219 -0.4813  0.4574
   62SAPC  H15X 4973   0.740   3.613   8.484  0.3710 -1.1432  0.0320
   62SAPC  H15Y 4974   0.604   3.698   8.530 -0.4817 -0.9359  0.1594
   62SAPC  C316 4975   0.541   3.503   8.481 -0.1695  0.2443  0.0481
   62SAPC  H16X 4976   0.514   3.541   8.380 -1.1248 -1.7189 -0.4515
   62SAPC  H16Y 4977   0.444   3.516   8.533 -0.2071  0.5165 -0.0909
   62SAPC  C317 4978   0.575   3.347   8.475 -0.1340  0.3049 -0.2664
   62SAPC  H17X 4979   0.559   3.302   8.575 -3.5124 -1.0993 -1.3674
   62SAPC  H17Y 4980   0.674   3.328   8.429  0.4117  2.3438  0.0076
   62SAPC  C318 4981   0.474   3.278   8.387 -0.2186  0.2200  0.4855
   62SAPC  H18X 4982   0.465   3.332   8.290  0.6511  0.3951  0.5020
   62SAPC  H18Y 4983   0.373   3.277   8.434  0.0116  3.5592  1.1481
   62SAPC  H18Z 4984   0.513   3.174   8.379  1.3055  0.5229  3.3426
   63SAPC     N 4985   5.293   3.935   6.378  0.4826  0.7414  0.0152
   63SAPC   C12 4986   5.349   4.055   6.452 -0.9238  0.8858  0.5128
   63SAPC  H12A 4987   5.308   4.057   6.551 -0.0406 -1.3165  0.9465
   63SAPC  H12B 4988   5.301   4.140   6.406 -2.8277 -0.2807  0.2952
   63SAPC   C13 4989   5.140   3.947   6.373  0.2946  0.6178 -0.2422
   63SAPC  H13A 4990   5.119   4.033   6.312  0.0602  1.0319  0.4235
   63SAPC  H13B 4991   5.096   3.850   6.356  1.2625 -0.1112  1.2374
   63SAPC  H13C 4992   5.108   3.976   6.472 -0.1862  0.4832 -0.3536
   63SAPC   C14 4993   5.339   3.928   6.233 -0.9202  0.5828 -0.3847
   63SAPC  H14A 4994   5.294   4.016   6.191  1.8113  1.7028 -1.0190
   63SAPC  H14B 4995   5.446   3.916   6.234 -0.9041  0.7722  1.6871
   63SAPC  H14C 4996   5.310   3.840   6.176 -0.0519 -0.7482  1.1718
   63SAPC   C15 4997   5.317   3.807   6.441  0.0823 -0.5852 -0.0309
   63SAPC  H15A 4998   5.279   3.717   6.395  1.7217 -2.0913  1.4769
   63SAPC  H15B 4999   5.423   3.790   6.453 -0.1766 -2.4623 -0.2869
   63SAPC  H15C 5000   5.274   3.802   6.540 -0.7210  1.7215 -0.2296
   63SAPC   C11 5001   5.503   4.083   6.453  0.2067  0.1853 -0.2420
   63SAPC  H11A 5002   5.506   4.184   6.501  0.4503  1.3591 -2.6230
   63SAPC  H11B 5003   5.534   4.085   6.346  0.1075  0.4888 -0.2671
   63SAPC     P 5004   5.684   3.892   6.470 -0.1179  0.0010 -0.3088
   63SAPC   O13 5005   5.658   3.754   6.511  0.3556 -0.1788  0.2948
   63SAPC   O14 5006   5.688   3.911   6.321 -0.6023  0.0549 -0.2270
   63SAPC   O12 5007   5.587   3.997   6.533  0.3487 -0.5444 -0.2988
   63SAPC   O11 5008   5.820   3.933   6.530 -0.0692  0.3723  0.2849
   63SAPC    C1 5009   5.836   3.972   6.668  0.1782 -0.2098 -0.4310
   63SAPC    HA 5010   5.923   4.040   6.671 -0.1244  0.2413 -1.5537
   63SAPC    HB 5011   5.758   4.042   6.706 -0.6034 -0.3078 -1.8031
   63SAPC    C2 5012   5.860   3.857   6.775  0.0594  0.1389  0.0891
   63SAPC    HS 5013   5.825   3.757   6.741  0.9378 -0.6370  1.4432
   63SAPC   O21 5014   5.797   3.886   6.898  0.5744 -0.2463  0.5954
   63SAPC   C21 5015   5.787   3.794   6.993 -0.2594  0.9446  0.0916
   63SAPC   O22 5016   5.827   3.679   6.978  0.0041 -0.0618  0.1484
   63SAPC   C22 5017   5.745   3.853   7.125 -0.7622 -0.7665 -0.0977
   63SAPC   H2R 5018   5.648   3.905   7.112 -1.3539 -1.6648  0.6542
   63SAPC   H2S 5019   5.741   3.769   7.197 -0.5927  1.0134  2.0605
   63SAPC    C3 5020   6.016   3.827   6.804 -0.3809  0.4056  0.2658
   63SAPC    HX 5021   6.063   3.808   6.705 -0.8435  2.2148 -0.3266
   63SAPC    HY 5022   6.028   3.741   6.872  0.4192 -0.0385 -0.4292
   63SAPC   O31 5023   6.088   3.941   6.855 -0.3673 -0.9321 -0.3919
   63SAPC   C31 5024   6.217   3.924   6.855 -0.8577 -0.1729 -0.7783
   63SAPC   O32 5025   6.273   3.825   6.812  0.1542 -0.3113  0.1148
   63SAPC   C32 5026   6.295   4.060   6.875  0.1200  0.9670 -0.1213
   63SAPC   H2X 5027   6.232   4.110   6.952  0.3570  2.3611 -0.8031
   63SAPC   H2Y 5028   6.302   4.117   6.780 -0.4492 -2.1539 -2.0696
   63SAPC   C23 5029   5.855   3.943   7.198  0.5761  0.1112 -0.0341
   63SAPC   H3R 5030   5.813   3.987   7.291  0.6976 -0.4499  0.2875
   63SAPC   H3S 5031   5.897   4.020   7.128 -1.1803  1.4896  0.3986
   63SAPC   C24 5032   5.979   3.865   7.243  0.4999  0.0296 -0.3465
   63SAPC   H4R 5033   6.021   3.803   7.161 -1.3538 -1.5704 -0.1265
   63SAPC   H4S 5034   5.944   3.788   7.315 -0.8781 -0.2482 -1.2934
   63SAPC   C25 5035   6.076   3.968   7.296 -0.5366  0.2263  0.8655
   63SAPC   H5R 5036   6.116   4.037   7.221 -0.0430 -1.2328 -0.2299
   63SAPC   C26 5037   6.117   3.968   7.420 -0.5582  0.4230  1.5655
   63SAPC   H6R 5038   6.193   4.046   7.440 -1.3091  1.4705  0.4347
   63SAPC   C27 5039   6.090   3.869   7.534  0.0789  0.4529  0.0380
   63SAPC   H7R 5040   6.165   3.890   7.614 -1.8184 -2.7435  2.7916
   63SAPC   H7S 5041   6.122   3.766   7.510 -0.5823  0.8454 -2.6482
   63SAPC   C28 5042   5.953   3.862   7.598 -0.4377  0.5625  0.3214
   63SAPC   H8R 5043   5.869   3.874   7.528  0.0685  0.4977 -0.2972
   63SAPC   C29 5044   5.931   3.837   7.727  0.6470 -1.1259 -0.6808
   63SAPC   H9R 5045   5.827   3.840   7.762  0.5164  0.8695 -1.1756
   63SAPC  C210 5046   6.025   3.811   7.840 -0.1993 -0.1748  0.4822
   63SAPC  H10R 5047   6.125   3.842   7.805 -0.3911 -1.3929 -1.1886
   63SAPC  H10S 5048   6.023   3.700   7.851 -1.0806 -0.2553 -0.4544
   63SAPC  C211 5049   5.996   3.863   7.982 -0.4898 -0.1454 -0.6506
   63SAPC  H11R 5050   5.913   3.935   7.989  0.5683  0.9239  1.6284
   63SAPC  C212 5051   6.065   3.813   8.090  0.4559  0.5700 -0.3108
   63SAPC  H12R 5052   6.037   3.848   8.190  0.0148 -1.1639  0.1949
   63SAPC  C213 5053   6.172   3.702   8.098  0.4532 -0.0676 -0.0352
   63SAPC  H13R 5054   6.164   3.619   8.024 -2.7080  0.3130 -0.1665
   63SAPC  H13S 5055   6.160   3.646   8.193 -1.1105  1.5552  0.7522
   63SAPC  C214 5056   6.306   3.769   8.081  0.2524 -0.2634  0.3021
   63SAPC  H14R 5057   6.340   3.771   7.977  1.2332  0.3566  0.6336
   63SAPC  C215 5058   6.390   3.810   8.180 -0.9123  0.2818 -0.3612
   63SAPC  H15R 5059   6.477   3.872   8.154 -0.4930 -0.2340 -0.1952
   63SAPC  C216 5060   6.361   3.799   8.327  0.7883 -0.7127 -0.7604
   63SAPC  H16R 5061   6.449   3.772   8.389 -1.4865 -1.1699  2.3988
   63SAPC  H16S 5062   6.290   3.718   8.355 -2.6765  2.2340 -0.6592
   63SAPC  C217 5063   6.304   3.933   8.382 -0.4878 -0.2094 -0.5477
   63SAPC  H17R 5064   6.269   3.924   8.487  0.6962 -1.4416 -0.2470
   63SAPC  H17S 5065   6.224   3.964   8.312 -0.6030  1.7528  0.4063
   63SAPC  C218 5066   6.415   4.039   8.387 -0.0034  0.5132  0.5726
   63SAPC  H18R 5067   6.436   4.099   8.297  1.9131  0.7061  1.1222
   63SAPC  H18S 5068   6.513   3.988   8.394  0.3358  1.0781 -0.0607
   63SAPC  C219 5069   6.411   4.133   8.518  0.8830 -0.0066 -0.5205
   63SAPC  H19R 5070   6.437   4.086   8.615 -3.2080 -0.3155  0.5307
   63SAPC  H19S 5071   6.305   4.164   8.526  1.4057  1.4582  0.9466
   63SAPC  C220 5072   6.490   4.259   8.511  0.6311  0.3289  0.1247
   63SAPC  H20R 5073   6.470   4.293   8.407 -0.0475  0.4729  0.3003
   63SAPC  H20S 5074   6.600   4.248   8.508  0.5171 -0.8994  0.3209
   63SAPC  H20T 5075   6.444   4.331   8.582 -0.5777  1.1886 -1.4903
   63SAPC   C33 5076   6.430   4.036   6.945  0.2496  0.5658 -0.2320
   63SAPC   H3X 5077   6.498   4.124   6.936 -0.4481  1.0396 -1.0207
   63SAPC   H3Y 5078   6.488   3.950   6.905 -1.7799 -1.3532  0.8490
   63SAPC   C34 5079   6.408   4.013   7.102 -0.0032  0.0896 -0.2265
   63SAPC   H4X 5080   6.334   3.932   7.122  0.2629  0.1104  0.9159
   63SAPC   H4Y 5081   6.365   4.105   7.146 -1.2505 -0.6073  0.0358
   63SAPC   C35 5082   6.541   3.975   7.174 -0.6590 -0.4010  0.5275
   63SAPC   H5X 5083   6.611   4.060   7.156 -0.5684  0.0921  2.9915
   63SAPC   H5Y 5084   6.569   3.883   7.119  1.6306  0.3842  0.3453
   63SAPC   C36 5085   6.520   3.947   7.320 -0.0633 -0.2336 -0.3630
   63SAPC   H6X 5086   6.612   3.898   7.359 -0.3744 -0.1369  0.5065
   63SAPC   H6Y 5087   6.437   3.875   7.337  1.5626 -2.1034 -0.2115
   63SAPC   C37 5088   6.505   4.071   7.411 -0.6817  0.0667  0.2352
   63SAPC   H7X 5089   6.415   4.128   7.378  0.9444  1.4781 -1.8924
   63SAPC   H7Y 5090   6.589   4.144   7.416  0.9570 -1.6548 -1.4304
   63SAPC   C38 5091   6.470   4.033   7.559  0.2231 -0.9593  0.0760
   63SAPC   H8X 5092   6.407   3.942   7.561 -1.7242  0.3818  1.2897
   63SAPC   H8Y 5093   6.415   4.123   7.595 -0.3868 -0.8734 -1.0674
   63SAPC   C39 5094   6.596   4.004   7.648 -0.1999 -0.7396 -0.0484
   63SAPC   H9X 5095   6.661   4.094   7.649 -0.7530 -0.3476  0.6041
   63SAPC   H9Y 5096   6.646   3.926   7.587 -3.7099 -2.7351 -0.5017
   63SAPC  C310 5097   6.578   3.956   7.797 -0.0621  0.0895 -0.0804
   63SAPC  H10X 5098   6.491   3.888   7.809 -0.1560  0.0545 -0.9271
   63SAPC  H10Y 5099   6.535   4.047   7.845 -1.4887 -0.1780 -0.8325
   63SAPC  C311 5100   6.708   3.902   7.851 -0.0897  0.1699  0.2218
   63SAPC  H11X 5101   6.790   3.975   7.836 -0.2262  0.2918  0.0714
   63SAPC  H11Y 5102   6.731   3.813   7.788  0.6901 -0.3434  1.2086
   63SAPC  C312 5103   6.709   3.857   8.000  0.2433 -0.3022  0.5412
   63SAPC  H12X 5104   6.625   3.786   8.015 -0.3118  0.1193 -0.5008
   63SAPC  H12Y 5105   6.707   3.945   8.068  1.5530 -1.0073  1.5154
   63SAPC  C313 5106   6.844   3.772   8.026  0.8078  0.1733 -0.2670
   63SAPC  H13X 5107   6.930   3.830   7.986  0.2187  1.7109  0.6505
   63SAPC  H13Y 5108   6.829   3.675   7.974 -0.7598 -0.5025  1.3743
   63SAPC  C314 5109   6.869   3.757   8.180  0.5066 -0.2597 -0.2155
   63SAPC  H14X 5110   6.867   3.848   8.244  1.1099  0.2433 -0.8972
   63SAPC  H14Y 5111   6.970   3.718   8.201  0.9356  1.4382  0.9709
   63SAPC  C315 5112   6.770   3.655   8.243 -0.6691 -0.1299  0.0224
   63SAPC  H15X 5113   6.773   3.566   8.177 -1.1134 -0.0639 -0.0825
   63SAPC  H15Y 5114   6.673   3.708   8.238 -0.2196  0.7644  0.4601
   63SAPC  C316 5115   6.782   3.614   8.392 -0.1714  0.1637  0.0561
   63SAPC  H16X 5116   6.686   3.563   8.416 -1.1206  0.3063 -3.2171
   63SAPC  H16Y 5117   6.790   3.706   8.454  2.4459 -1.4493  2.2314
   63SAPC  C317 5118   6.895   3.526   8.429  0.0577  0.4436 -0.3264
   63SAPC  H17X 5119   6.988   3.586   8.433  0.0920  0.3654  0.0648
   63SAPC  H17Y 5120   6.918   3.453   8.348  1.2370 -0.1521  0.5223
   63SAPC  C318 5121   6.865   3.443   8.550 -0.5873  0.1190 -0.1335
   63SAPC  H18X 5122   6.775   3.377   8.552 -0.1205 -0.5153  0.0967
   63SAPC  H18Y 5123   6.864   3.515   8.635 -0.2101 -0.4476  0.3564
   63SAPC  H18Z 5124   6.949   3.379   8.585  1.0672  1.5634 -1.4062
   64SAPC     N 5125   1.564   4.257   5.978 -0.2757 -0.1411 -0.0899
   64SAPC   C12 5126   1.672   4.160   6.015 -0.1013  0.7070 -0.6490
   64SAPC  H12A 5127   1.761   4.212   6.048 -0.9018  0.9842  1.0676
   64SAPC  H12B 5128   1.702   4.105   5.926  0.8464 -0.2867  0.2754
   64SAPC   C13 5129   1.460   4.184   5.909 -0.1178  0.1714 -0.1249
   64SAPC  H13A 5130   1.363   4.231   5.904 -0.2581  0.0994  1.4862
   64SAPC  H13B 5131   1.505   4.165   5.814 -2.6975 -3.3835 -0.7296
   64SAPC  H13C 5132   1.441   4.089   5.957  4.2418 -0.4554  0.5558
   64SAPC   C14 5133   1.510   4.317   6.107 -0.3850  0.1913 -0.6757
   64SAPC  H14A 5134   1.460   4.411   6.088 -0.8027 -0.2648 -1.8682
   64SAPC  H14B 5135   1.437   4.250   6.148  0.2395 -1.0663 -1.6074
   64SAPC  H14C 5136   1.584   4.346   6.180 -1.4478  0.2250  0.4112
   64SAPC   C15 5137   1.615   4.372   5.900 -0.6667 -0.2520  0.2857
   64SAPC  H15A 5138   1.646   4.335   5.803  0.7343  3.5792 -0.8603
   64SAPC  H15B 5139   1.530   4.437   5.887 -0.3058  0.6105  2.0319
   64SAPC  H15C 5140   1.692   4.428   5.951 -1.8426  0.7629  0.9642
   64SAPC   C11 5141   1.636   4.054   6.124  0.2835 -0.3687 -0.3576
   64SAPC  H11A 5142   1.599   4.103   6.217  2.2260 -1.4819  1.0348
   64SAPC  H11B 5143   1.727   3.996   6.152  1.0240  0.2996 -1.3447
   64SAPC     P 5144   1.477   3.851   6.176 -0.0304 -0.0632 -0.1430
   64SAPC   O13 5145   1.343   3.823   6.125 -0.5870 -0.5758  0.0998
   64SAPC   O14 5146   1.581   3.744   6.185 -0.7436  0.0740 -0.5773
   64SAPC   O12 5147   1.534   3.963   6.079 -0.7967 -0.3693  0.4536
   64SAPC   O11 5148   1.462   3.926   6.312  0.4341  0.2685 -0.1268
   64SAPC    C1 5149   1.361   3.907   6.409  0.3685 -0.1783 -0.0936
   64SAPC    HA 5150   1.260   3.896   6.364 -0.9586 -0.6740  2.9364
   64SAPC    HB 5151   1.373   3.807   6.455  1.8183  0.0980  0.1477
   64SAPC    C2 5152   1.362   4.017   6.517 -0.0560  0.3046  0.4489
   64SAPC    HS 5153   1.453   4.001   6.579  0.6669  0.6601 -0.5133
   64SAPC   O21 5154   1.238   4.013   6.596  0.1125 -0.0925  0.0569
   64SAPC   C21 5155   1.236   3.914   6.684 -0.9142 -0.0570 -0.2858
   64SAPC   O22 5156   1.333   3.848   6.725 -0.6664  0.0580  0.1255
   64SAPC   C22 5157   1.098   3.895   6.745 -0.2212  0.2215  0.5312
   64SAPC   H2R 5158   1.027   3.901   6.659  0.6574 -3.1457 -0.5077
   64SAPC   H2S 5159   1.072   3.796   6.787 -0.0030 -0.2100 -0.3331
   64SAPC    C3 5160   1.378   4.154   6.465  0.2649 -0.4634  0.1207
   64SAPC    HX 5161   1.290   4.188   6.405 -0.4871 -0.5667  1.1573
   64SAPC    HY 5162   1.470   4.159   6.403  0.2872  0.7115  0.2284
   64SAPC   O31 5163   1.388   4.241   6.579  0.7332 -0.1376 -0.3534
   64SAPC   C31 5164   1.428   4.358   6.541  0.7105  0.5104 -0.4027
   64SAPC   O32 5165   1.460   4.396   6.431  0.4998 -0.4184 -0.2529
   64SAPC   C32 5166   1.423   4.453   6.671 -0.1249 -0.5245  0.0795
   64SAPC   H2X 5167   1.317   4.484   6.680  0.0459  0.3458 -0.7763
   64SAPC   H2Y 5168   1.498   4.534   6.658  0.3153 -0.5547  2.2254
   64SAPC   C23 5169   1.062   4.001   6.847 -0.0920  0.1493 -0.0211
   64SAPC   H3R 5170   0.952   4.017   6.845 -0.0224  0.5537 -1.8561
   64SAPC   H3S 5171   1.101   4.097   6.805 -1.4226  1.0321  0.7303
   64SAPC   C24 5172   1.115   3.989   6.991 -0.0074 -0.0260 -0.4073
   64SAPC   H4R 5173   1.205   3.923   6.991 -0.4865 -0.6942 -0.5118
   64SAPC   H4S 5174   1.036   3.924   7.035  1.1574 -1.3033 -0.1393
   64SAPC   C25 5175   1.133   4.117   7.063  0.2010 -0.1078  0.3066
   64SAPC   H5R 5176   1.118   4.209   7.004 -0.5267  0.3195  1.1532
   64SAPC   C26 5177   1.163   4.122   7.195 -0.6282 -0.4584  0.5636
   64SAPC   H6R 5178   1.168   4.224   7.236 -2.4923  0.3261 -1.0805
   64SAPC   C27 5179   1.177   3.995   7.282 -0.3251 -0.0510  0.4472
   64SAPC   H7R 5180   1.192   3.902   7.224  0.9555 -0.3640  1.2773
   64SAPC   H7S 5181   1.080   3.978   7.334 -0.8267  0.5144 -0.2808
   64SAPC   C28 5182   1.288   4.000   7.380  0.1244  0.5932  0.5326
   64SAPC   H8R 5183   1.382   4.030   7.332 -0.5490 -0.8517 -1.7897
   64SAPC   C29 5184   1.284   3.973   7.512 -0.2218 -0.3337  0.6170
   64SAPC   H9R 5185   1.383   3.974   7.560  0.2288 -0.4336 -0.2943
   64SAPC  C210 5186   1.168   3.938   7.601  0.6654  0.2697  0.1974
   64SAPC  H10R 5187   1.194   3.843   7.653  2.5584  1.3751  1.3690
   64SAPC  H10S 5188   1.073   3.923   7.546  1.2090 -0.8355 -0.4535
   64SAPC  C211 5189   1.146   4.037   7.714  0.7130 -0.7174  0.0485
   64SAPC  H11R 5190   1.143   4.141   7.677 -0.0151 -0.4704  0.7594
   64SAPC  C212 5191   1.144   4.014   7.846  0.0769 -0.4258  0.9016
   64SAPC  H12R 5192   1.121   4.096   7.916  1.0727 -0.7658  1.6324
   64SAPC  C213 5193   1.170   3.888   7.922 -0.0313  0.2706 -0.4985
   64SAPC  H13R 5194   1.136   3.800   7.863  0.8743  0.1968 -0.9212
   64SAPC  H13S 5195   1.105   3.880   8.011  0.3800 -0.7338 -0.2770
   64SAPC  C214 5196   1.317   3.863   7.946 -0.6604 -0.6942 -0.3064
   64SAPC  H14R 5197   1.377   3.824   7.863  3.1698  0.9137  1.5893
   64SAPC  C215 5198   1.378   3.861   8.066  0.3898  0.4881 -0.0841
   64SAPC  H15R 5199   1.483   3.829   8.077  0.6515  1.3926  0.0748
   64SAPC  C216 5200   1.315   3.891   8.198  0.6295  0.0561 -0.3089
   64SAPC  H16R 5201   1.207   3.918   8.196  1.7490  5.1934  1.0905
   64SAPC  H16S 5202   1.361   3.982   8.243  0.0272  0.3357 -0.2432
   64SAPC  C217 5203   1.322   3.779   8.304  0.1020  0.3636  0.2750
   64SAPC  H17R 5204   1.429   3.753   8.316  0.3214  0.9357 -0.4228
   64SAPC  H17S 5205   1.279   3.689   8.255 -1.4953  0.2093  1.8796
   64SAPC  C218 5206   1.235   3.801   8.429 -0.2544 -0.2562 -0.2410
   64SAPC  H18R 5207   1.259   3.895   8.483 -0.7033 -0.0443 -0.4030
   64SAPC  H18S 5208   1.254   3.722   8.504  1.2570 -0.9131 -1.2950
   64SAPC  C219 5209   1.083   3.816   8.392  0.2563 -0.5743 -0.2388
   64SAPC  H19R 5210   1.039   3.715   8.377 -1.4664  0.3019 -1.1985
   64SAPC  H19S 5211   1.058   3.870   8.299  0.4558  0.7398  0.4631
   64SAPC  C220 5212   1.003   3.875   8.507 -0.1136  0.0376 -0.5276
   64SAPC  H20R 5213   0.999   3.815   8.601  0.0405  1.5862  0.4792
   64SAPC  H20S 5214   0.896   3.895   8.484  0.1075  2.0497  0.1327
   64SAPC  H20T 5215   1.046   3.974   8.533 -0.3865 -0.3685  1.5985
   64SAPC   C33 5216   1.462   4.387   6.811  0.2537  0.3577  0.3713
   64SAPC   H3X 5217   1.568   4.354   6.808 -0.6258 -2.5498 -0.1064
   64SAPC   H3Y 5218   1.398   4.298   6.831  1.6535 -0.4458  1.3964
   64SAPC   C34 5219   1.438   4.476   6.934 -0.0606 -0.5659  0.0984
   64SAPC   H4X 5220   1.342   4.529   6.917  0.4619 -0.1768 -1.6573
   64SAPC   H4Y 5221   1.518   4.552   6.947 -0.3331 -0.2316 -0.1919
   64SAPC   C35 5222   1.439   4.405   7.065 -0.1937  0.2375  0.3643
   64SAPC   H5X 5223   1.542   4.372   7.093 -0.6562 -1.3872  0.2274
   64SAPC   H5Y 5224   1.372   4.316   7.059 -0.8156  0.6987  0.4523
   64SAPC   C36 5225   1.383   4.496   7.182  0.5802  0.0214 -1.0364
   64SAPC   H6X 5226   1.284   4.542   7.164  2.1198  3.8693 -0.2131
   64SAPC   H6Y 5227   1.448   4.583   7.206  0.5975 -0.2290 -0.1623
   64SAPC   C37 5228   1.370   4.428   7.321 -0.3848 -0.2570 -0.0654
   64SAPC   H7X 5229   1.444   4.348   7.342 -1.4547 -1.2270  0.0904
   64SAPC   H7Y 5230   1.268   4.384   7.324 -0.4590 -0.2547 -2.3558
   64SAPC   C38 5231   1.367   4.531   7.438 -0.2260 -0.4495 -0.5248
   64SAPC   H8X 5232   1.285   4.605   7.419 -3.2228 -3.4088  0.4414
   64SAPC   H8Y 5233   1.465   4.584   7.433 -0.0040 -0.8672 -0.5657
   64SAPC   C39 5234   1.341   4.463   7.575  0.1239 -0.1301  0.3898
   64SAPC   H9X 5235   1.236   4.429   7.590  0.6383  0.0213  5.0394
   64SAPC   H9Y 5236   1.366   4.533   7.658 -1.5239  0.5439  0.3372
   64SAPC  C310 5237   1.433   4.345   7.601 -0.4477  0.0668 -0.8273
   64SAPC  H10X 5238   1.539   4.364   7.573 -0.7895  2.3607 -0.6319
   64SAPC  H10Y 5239   1.395   4.251   7.555  1.4932 -0.9391 -0.4596
   64SAPC  C311 5240   1.437   4.323   7.756  0.9681  0.4535  0.2721
   64SAPC  H11X 5241   1.333   4.297   7.782  1.4018 -0.3939  1.1778
   64SAPC  H11Y 5242   1.468   4.418   7.803 -1.4674  1.5673 -0.3058
   64SAPC  C312 5243   1.515   4.199   7.804  0.2251  0.5710  0.2498
   64SAPC  H12X 5244   1.618   4.226   7.775  0.6466 -2.0761 -0.8542
   64SAPC  H12Y 5245   1.487   4.110   7.743 -0.8138  0.8931  0.2430
   64SAPC  C313 5246   1.508   4.166   7.955 -0.6984  0.6479 -0.0583
   64SAPC  H13X 5247   1.562   4.069   7.968 -0.8582  0.2605 -2.1405
   64SAPC  H13Y 5248   1.404   4.144   7.988 -0.9546  1.4252 -0.3562
   64SAPC  C314 5249   1.574   4.275   8.046  0.2749 -0.8907  0.4710
   64SAPC  H14X 5250   1.535   4.376   8.022 -0.4671 -1.4034 -0.4914
   64SAPC  H14Y 5251   1.685   4.276   8.042  0.1898  0.3326 -2.9638
   64SAPC  C315 5252   1.531   4.250   8.195  0.2859  0.6898  0.6163
   64SAPC  H15X 5253   1.582   4.155   8.223 -0.0332  0.5842  0.8510
   64SAPC  H15Y 5254   1.420   4.242   8.194  0.5564 -3.8691 -1.3535
   64SAPC  C316 5255   1.591   4.356   8.289  0.4954  0.2966 -0.7816
   64SAPC  H16X 5256   1.699   4.362   8.267  1.1940  1.0274  2.4779
   64SAPC  H16Y 5257   1.575   4.312   8.390  1.2639  1.8811  0.0684
   64SAPC  C317 5258   1.519   4.489   8.263  0.0532  0.0364 -0.4287
   64SAPC  H17X 5259   1.410   4.476   8.277  0.0671 -0.8247 -1.0712
   64SAPC  H17Y 5260   1.539   4.514   8.156  3.1696 -0.0590  0.0779
   64SAPC  C318 5261   1.557   4.604   8.356  0.0794 -0.4290 -0.6963
   64SAPC  H18X 5262   1.666   4.621   8.349 -0.0204  1.0703  1.0307
   64SAPC  H18Y 5263   1.543   4.571   8.461 -2.3684 -0.7690 -1.1051
   64SAPC  H18Z 5264   1.512   4.704   8.339  0.1847 -0.5362 -1.6044
   65SAPC     N 5265   1.783   5.649   6.223 -0.2674 -0.5641 -0.2837
   65SAPC   C12 5266   1.666   5.645   6.318 -0.1819 -0.0016 -0.2596
   65SAPC  H12A 5267   1.579   5.669   6.259  0.5877 -0.1740 -1.4914
   65SAPC  H12B 5268   1.675   5.718   6.397 -2.2931  1.1252 -1.0195
   65SAPC   C13 5269   1.802   5.788   6.164  0.4464 -0.2759  0.0837
   65SAPC  H13A 5270   1.897   5.805   6.116  2.0665 -1.9091  2.5914
   65SAPC  H13B 5271   1.723   5.816   6.096  0.2251 -2.1515 -0.4646
   65SAPC  H13C 5272   1.794   5.864   6.240 -2.0741 -0.2128 -0.1948
   65SAPC   C14 5273   1.915   5.619   6.292  0.2647 -0.2473  0.3495
   65SAPC  H14A 5274   1.979   5.566   6.223  2.9492  0.4252  2.2181
   65SAPC  H14B 5275   1.970   5.710   6.314  0.8081 -0.3515 -0.5705
   65SAPC  H14C 5276   1.899   5.559   6.381 -1.4490 -0.9102 -0.3834
   65SAPC   C15 5277   1.757   5.549   6.110  0.2848 -0.1499 -0.6269
   65SAPC  H15A 5278   1.817   5.568   6.022  1.1166 -0.9969 -0.2540
   65SAPC  H15B 5279   1.782   5.448   6.139  1.8739  0.6208  0.7921
   65SAPC  H15C 5280   1.654   5.565   6.083 -0.1587 -1.2461  0.3418
   65SAPC   C11 5281   1.638   5.514   6.390  0.2766  0.2325  1.0056
   65SAPC  H11A 5282   1.549   5.545   6.448 -0.0765 -0.6855  0.9636
   65SAPC  H11B 5283   1.717   5.468   6.453 -0.5787  1.7648  3.2561
   65SAPC     P 5284   1.465   5.415   6.217 -0.2614  0.0121  0.3166
   65SAPC   O13 5285   1.451   5.543   6.142 -0.2035 -0.2680 -0.2935
   65SAPC   O14 5286   1.451   5.291   6.136  0.1722  1.1918 -0.3703
   65SAPC   O12 5287   1.601   5.412   6.292  0.2008  0.0934 -0.0644
   65SAPC   O11 5288   1.349   5.421   6.325  0.3100 -0.2250 -0.2835
   65SAPC    C1 5289   1.336   5.306   6.421  0.0437 -1.2035  0.4348
   65SAPC    HA 5290   1.266   5.226   6.388 -3.9588  1.8879  1.0207
   65SAPC    HB 5291   1.435   5.260   6.440  1.8317  2.1359 -0.4536
   65SAPC    C2 5292   1.281   5.368   6.555  0.3211 -0.3856  0.1346
   65SAPC    HS 5293   1.238   5.468   6.532 -2.9839 -1.3585  1.8506
   65SAPC   O21 5294   1.400   5.391   6.631 -0.5784  0.1638 -0.6564
   65SAPC   C21 5295   1.391   5.482   6.726  0.2722  0.5752  0.1092
   65SAPC   O22 5296   1.308   5.575   6.730  0.3458  0.5239  0.6453
   65SAPC   C22 5297   1.501   5.464   6.831 -0.6152 -0.1093  0.5167
   65SAPC   H2R 5298   1.546   5.364   6.845 -1.5389 -0.5598  0.3029
   65SAPC   H2S 5299   1.581   5.532   6.795 -0.3088 -0.8184 -0.1521
   65SAPC    C3 5300   1.183   5.285   6.637  0.0901 -1.0027 -0.2734
   65SAPC    HX 5301   1.244   5.206   6.686 -0.4623  0.2625  2.5395
   65SAPC    HY 5302   1.110   5.241   6.566  0.0257 -0.3347 -0.6131
   65SAPC   O31 5303   1.104   5.359   6.732 -0.4226 -0.3595  0.3972
   65SAPC   C31 5304   1.018   5.458   6.690  0.3622  0.0634 -0.4060
   65SAPC   O32 5305   0.998   5.483   6.577 -0.0171 -0.4083  0.5761
   65SAPC   C32 5306   0.952   5.539   6.806 -0.7918 -0.6455  0.2151
   65SAPC   H2X 5307   0.995   5.639   6.789  0.6783 -1.2094  0.5381
   65SAPC   H2Y 5308   0.997   5.496   6.898  0.9137  1.4477  0.3723
   65SAPC   C23 5309   1.471   5.508   6.977 -0.4831 -0.4868  0.2686
   65SAPC   H3R 5310   1.419   5.606   6.980 -3.9082 -2.2694  1.0734
   65SAPC   H3S 5311   1.565   5.541   7.027  0.4628 -2.5526 -0.1231
   65SAPC   C24 5312   1.396   5.411   7.066  0.5667 -0.1139  0.0082
   65SAPC   H4R 5313   1.429   5.306   7.057  0.7351 -0.0661  0.0677
   65SAPC   H4S 5314   1.293   5.410   7.024  0.5233  2.2937 -0.0458
   65SAPC   C25 5315   1.388   5.451   7.212 -0.1611  0.2786 -0.3921
   65SAPC   H5R 5316   1.287   5.456   7.255  0.6569  0.7404  1.5344
   65SAPC   C26 5317   1.484   5.448   7.300 -1.0267  0.3248 -0.2382
   65SAPC   H6R 5318   1.449   5.476   7.401 -0.3567 -0.9036  0.3490
   65SAPC   C27 5319   1.630   5.429   7.287  0.5475  0.0289  0.2265
   65SAPC   H7R 5320   1.648   5.407   7.180 -3.7498 -0.5219 -0.4610
   65SAPC   H7S 5321   1.662   5.350   7.359  2.2617  0.5402  0.0541
   65SAPC   C28 5322   1.709   5.557   7.312  0.2335 -1.4040 -0.0347
   65SAPC   H8R 5323   1.668   5.647   7.264  0.9884 -2.6392 -3.1202
   65SAPC   C29 5324   1.819   5.567   7.382  0.1441  0.4612 -0.0743
   65SAPC   H9R 5325   1.859   5.667   7.407  1.3471  0.0831 -0.4161
   65SAPC  C210 5326   1.898   5.458   7.446  0.2660 -1.3632 -0.2218
   65SAPC  H10R 5327   2.007   5.474   7.433  0.3743 -1.0382  1.0495
   65SAPC  H10S 5328   1.881   5.364   7.389  0.5431 -0.5742 -1.6458
   65SAPC  C211 5329   1.860   5.431   7.591 -0.3321 -0.7219  0.6980
   65SAPC  H11R 5330   1.774   5.489   7.627 -1.6337 -0.0728 -3.2460
   65SAPC  C212 5331   1.915   5.337   7.669 -0.4776  0.1537  0.5130
   65SAPC  H12R 5332   1.877   5.316   7.770  1.9137  0.1652  1.4472
   65SAPC  C213 5333   2.030   5.242   7.638 -0.7816  0.1885  0.0920
   65SAPC  H13R 5334   2.028   5.216   7.530 -0.9962  1.1752 -0.1447
   65SAPC  H13S 5335   2.012   5.146   7.692 -1.2445  0.3374  0.2064
   65SAPC  C214 5336   2.165   5.286   7.678  0.5477 -0.2672  0.3910
   65SAPC  H14R 5337   2.219   5.344   7.602 -0.0015  1.9922  1.6928
   65SAPC  C215 5338   2.233   5.271   7.795 -0.3296 -0.1071 -0.6699
   65SAPC  H15R 5339   2.332   5.315   7.813 -0.8117  0.7976 -0.2056
   65SAPC  C216 5340   2.175   5.195   7.908  0.0908 -0.2064 -0.6848
   65SAPC  H16R 5341   2.183   5.086   7.887 -1.7584 -1.0727  2.6944
   65SAPC  H16S 5342   2.068   5.219   7.927  0.1657 -0.4172  0.0344
   65SAPC  C217 5343   2.254   5.220   8.037 -0.2370  0.7055 -1.0236
   65SAPC  H17R 5344   2.274   5.328   8.051 -1.0829  1.0004 -2.0527
   65SAPC  H17S 5345   2.346   5.159   8.031 -0.2360  0.7318 -1.2812
   65SAPC  C218 5346   2.190   5.180   8.174  0.2477  0.1798  0.2439
   65SAPC  H18R 5347   2.161   5.073   8.166  1.8249 -0.0688 -2.8051
   65SAPC  H18S 5348   2.091   5.230   8.175 -1.3407 -2.7843 -1.5127
   65SAPC  C219 5349   2.270   5.218   8.296 -0.4737 -0.0197 -0.5864
   65SAPC  H19R 5350   2.277   5.329   8.297  1.1882 -0.0862 -1.9815
   65SAPC  H19S 5351   2.376   5.185   8.305  0.3221  2.8868  1.8172
   65SAPC  C220 5352   2.202   5.183   8.431  0.2422  0.5894 -0.5314
   65SAPC  H20R 5353   2.092   5.199   8.430  0.4888  2.4511 -0.8998
   65SAPC  H20S 5354   2.261   5.234   8.510  1.4373 -1.1111 -0.2954
   65SAPC  H20T 5355   2.221   5.075   8.451  0.3793  0.3313 -1.9958
   65SAPC   C33 5356   0.801   5.532   6.817  0.1287 -0.4190 -0.0593
   65SAPC   H3X 5357   0.750   5.553   6.720  0.9594  2.6456  0.1073
   65SAPC   H3Y 5358   0.765   5.609   6.889  1.2245  1.8439 -1.8544
   65SAPC   C34 5359   0.733   5.398   6.867 -0.0028 -0.2903  0.8570
   65SAPC   H4X 5360   0.779   5.392   6.969 -0.9956  0.3572  1.3482
   65SAPC   H4Y 5361   0.779   5.307   6.821  0.4761  0.8431 -0.9262
   65SAPC   C35 5362   0.577   5.388   6.851  0.1138  0.5964  0.6036
   65SAPC   H5X 5363   0.552   5.281   6.863  0.1896  0.5157  0.0576
   65SAPC   H5Y 5364   0.549   5.404   6.744 -1.5767 -1.8687  0.6369
   65SAPC   C36 5365   0.502   5.482   6.950 -0.2485 -0.3333 -0.4882
   65SAPC   H6X 5366   0.395   5.471   6.922 -0.0589 -1.5578 -0.7506
   65SAPC   H6Y 5367   0.538   5.586   6.932 -0.7689 -0.2962 -1.3611
   65SAPC   C37 5368   0.541   5.440   7.092 -0.2501  0.4746 -1.1608
   65SAPC   H7X 5369   0.650   5.451   7.112 -0.4871  1.8720 -0.6204
   65SAPC   H7Y 5370   0.517   5.331   7.099  2.1090 -0.1213 -1.6728
   65SAPC   C38 5371   0.448   5.520   7.196  0.0832  0.1213 -0.3168
   65SAPC   H8X 5372   0.345   5.481   7.180 -0.5442  0.6194  2.2229
   65SAPC   H8Y 5373   0.451   5.629   7.180  0.2281  0.3639  1.2584
   65SAPC   C39 5374   0.469   5.491   7.347 -0.3072  0.2348 -0.5034
   65SAPC   H9X 5375   0.447   5.385   7.372 -0.2441  0.5454  0.9426
   65SAPC   H9Y 5376   0.390   5.559   7.385  0.6309  0.4838  1.0389
   65SAPC  C310 5377   0.592   5.564   7.414 -0.1940  0.9494 -0.4269
   65SAPC  H10X 5378   0.595   5.670   7.383 -1.6353  0.9222 -0.6637
   65SAPC  H10Y 5379   0.688   5.519   7.378  1.2412  1.1542  2.9680
   65SAPC  C311 5380   0.582   5.542   7.570 -0.7258  0.3016  0.1620
   65SAPC  H11X 5381   0.598   5.436   7.597 -2.2928  0.2855  1.1534
   65SAPC  H11Y 5382   0.473   5.556   7.591 -0.8309 -0.3716  0.0632
   65SAPC  C312 5383   0.670   5.639   7.649  0.1346 -0.5967  0.0552
   65SAPC  H12X 5384   0.634   5.743   7.628  3.4408 -0.1965 -4.1958
   65SAPC  H12Y 5385   0.774   5.629   7.613  0.1277 -0.0143 -0.1344
   65SAPC  C313 5386   0.693   5.600   7.800 -0.1068 -0.0059  1.0926
   65SAPC  H13X 5387   0.729   5.495   7.808  0.6132 -0.0154 -1.6839
   65SAPC  H13Y 5388   0.597   5.588   7.852  0.3227  0.4748  2.0035
   65SAPC  C314 5389   0.785   5.704   7.865  0.1757 -0.4605 -0.1948
   65SAPC  H14X 5390   0.751   5.803   7.831  0.5872  0.3998  1.8076
   65SAPC  H14Y 5391   0.892   5.704   7.835 -0.2090  0.6059 -1.5832
   65SAPC  C315 5392   0.763   5.703   8.021 -0.9964  0.7329 -0.6377
   65SAPC  H15X 5393   0.653   5.690   8.034 -0.4750 -1.7049  1.6927
   65SAPC  H15Y 5394   0.795   5.795   8.074 -1.7796  1.8729 -2.1119
   65SAPC  C316 5395   0.837   5.589   8.088  0.1857 -0.1010  0.4034
   65SAPC  H16X 5396   0.793   5.494   8.051 -0.1700 -0.0856  0.7805
   65SAPC  H16Y 5397   0.813   5.590   8.197 -0.4363 -0.1619  0.2702
   65SAPC  C317 5398   0.988   5.586   8.072  0.3202 -0.7624 -0.5359
   65SAPC  H17X 5399   1.017   5.548   7.972 -2.5260 -3.5855 -0.3585
   65SAPC  H17Y 5400   1.012   5.501   8.139 -0.0278 -0.7968 -0.4547
   65SAPC  C318 5401   1.061   5.718   8.106 -0.4649 -0.1024 -0.6425
   65SAPC  H18X 5402   1.165   5.693   8.136 -0.3464 -0.1621 -1.0867
   65SAPC  H18Y 5403   1.027   5.771   8.197  2.6118  0.0093  0.5120
   65SAPC  H18Z 5404   1.062   5.782   8.015  0.2713 -1.8056 -1.8801
   66SAPC     N 5405   5.272   5.851   5.940 -0.4114  0.5615  0.3869
   66SAPC   C12 5406   5.272   5.928   6.072  0.4453 -0.7049  0.1516
   66SAPC  H12A 5407   5.362   5.904   6.127  1.6130  1.6383 -0.6936
   66SAPC  H12B 5408   5.175   5.910   6.116  0.2142  1.8488  0.7337
   66SAPC   C13 5409   5.411   5.850   5.880  0.1619 -0.2473 -0.1218
   66SAPC  H13A 5410   5.483   5.796   5.940  2.1057  4.2578  1.8300
   66SAPC  H13B 5411   5.401   5.818   5.777 -1.7896  1.9119 -0.6608
   66SAPC  H13C 5412   5.438   5.954   5.868 -0.0590 -0.0322  1.1319
   66SAPC   C14 5413   5.232   5.714   5.963  0.3481  0.4384  0.2079
   66SAPC  H14A 5414   5.238   5.655   5.873 -0.5753 -1.1032  1.1378
   66SAPC  H14B 5415   5.286   5.653   6.034 -1.6640  1.2458  2.5467
   66SAPC  H14C 5416   5.129   5.702   5.993  0.0067  0.5874 -0.8892
   66SAPC   C15 5417   5.181   5.900   5.839  0.5849 -0.3264  0.0834
   66SAPC  H15A 5418   5.190   6.005   5.818  0.6867 -0.7544 -2.1533
   66SAPC  H15B 5419   5.195   5.849   5.744 -1.4814  0.0925 -0.4811
   66SAPC  H15C 5420   5.080   5.873   5.869  0.6646  1.4614  2.0638
   66SAPC   C11 5421   5.287   6.087   6.057  0.7376 -0.1627 -0.1225
   66SAPC  H11A 5422   5.272   6.129   6.159 -1.1660 -1.3734  0.1216
   66SAPC  H11B 5423   5.196   6.119   6.002  0.0753 -0.1069  0.9939
   66SAPC     P 5424   5.546   6.135   6.060 -0.0251 -0.1947 -0.6102
   66SAPC   O13 5425   5.652   6.095   5.964  0.1337  0.3701 -0.5472
   66SAPC   O14 5426   5.549   6.270   6.124 -0.7963  0.2048  1.3754
   66SAPC   O12 5427   5.405   6.136   5.993  0.3929 -0.0445 -0.1150
   66SAPC   O11 5428   5.524   6.033   6.178  0.0382  0.2173 -0.5711
   66SAPC    C1 5429   5.637   5.942   6.205 -0.3351 -0.1760 -0.3621
   66SAPC    HA 5430   5.651   5.873   6.119 -1.2591 -0.4129 -0.3252
   66SAPC    HB 5431   5.730   6.001   6.223 -0.8185  1.3421 -2.6592
   66SAPC    C2 5432   5.599   5.860   6.328 -0.1273  0.1440 -0.3605
   66SAPC    HS 5433   5.493   5.831   6.313 -0.4304  1.7992 -1.6322
   66SAPC   O21 5434   5.608   5.930   6.454  0.1367  0.4491 -0.5952
   66SAPC   C21 5435   5.536   5.871   6.544  0.0894 -0.2487  0.0880
   66SAPC   O22 5436   5.448   5.790   6.526 -0.2584 -0.6769  0.1210
   66SAPC   C22 5437   5.572   5.919   6.691 -0.2230 -0.1816  0.6558
   66SAPC   H2R 5438   5.679   5.900   6.715  0.4709  2.1832 -0.4928
   66SAPC   H2S 5439   5.567   6.030   6.694  0.4721 -0.1670  2.4063
   66SAPC    C3 5440   5.698   5.727   6.322  0.0369 -0.6596  0.1894
   66SAPC    HX 5441   5.801   5.753   6.354 -0.1401  1.7754 -1.0904
   66SAPC    HY 5442   5.698   5.700   6.214  0.5941 -1.1224  0.3049
   66SAPC   O31 5443   5.641   5.626   6.404 -0.1559 -0.3037 -0.7904
   66SAPC   C31 5444   5.684   5.502   6.381  0.3628  0.5480 -0.4529
   66SAPC   O32 5445   5.761   5.463   6.296 -0.0833 -0.3126  0.6026
   66SAPC   C32 5446   5.608   5.410   6.471  0.0527  0.4675 -0.2694
   66SAPC   H2X 5447   5.606   5.312   6.418 -1.9965 -0.3233  1.1954
   66SAPC   H2Y 5448   5.503   5.445   6.479 -0.0588 -0.5375  3.7253
   66SAPC   C23 5449   5.474   5.873   6.806  0.1719  0.2813  0.0144
   66SAPC   H3R 5450   5.374   5.850   6.764  0.3810 -1.2891  0.3336
   66SAPC   H3S 5451   5.452   5.956   6.876 -1.4090  0.1755 -0.3440
   66SAPC   C24 5452   5.526   5.741   6.866 -0.6278 -0.0830  0.5103
   66SAPC   H4R 5453   5.561   5.663   6.795 -1.4951 -1.4994  1.6150
   66SAPC   H4S 5454   5.434   5.693   6.904 -0.8324 -0.4062 -0.3890
   66SAPC   C25 5455   5.636   5.759   6.966 -0.4004  0.0502  0.4321
   66SAPC   H5R 5456   5.723   5.818   6.932  1.8240 -1.6336  2.9098
   66SAPC   C26 5457   5.641   5.709   7.089  0.0478  0.3365  0.4644
   66SAPC   H6R 5458   5.722   5.740   7.157 -0.0662  0.8630  0.3607
   66SAPC   C27 5459   5.532   5.624   7.159  0.5774  0.0736  0.4597
   66SAPC   H7R 5460   5.437   5.636   7.103  2.1281 -0.6847 -2.4455
   66SAPC   H7S 5461   5.514   5.674   7.256 -2.0221  2.7459 -1.3137
   66SAPC   C28 5462   5.578   5.483   7.163 -0.1743 -0.0420  0.7452
   66SAPC   H8R 5463   5.599   5.432   7.068  1.7841 -1.5724  1.9856
   66SAPC   C29 5464   5.615   5.420   7.274  0.0800  0.5636 -0.0074
   66SAPC   H9R 5465   5.672   5.327   7.257 -3.1165 -1.0906 -2.1450
   66SAPC  C210 5466   5.624   5.485   7.412  0.2126 -0.1828 -0.7111
   66SAPC  H10R 5467   5.661   5.590   7.408  0.1455 -0.0535  1.4201
   66SAPC  H10S 5468   5.706   5.429   7.462  0.1782  0.2876 -0.1152
   66SAPC  C211 5469   5.498   5.470   7.497 -0.3354 -0.4607  0.6950
   66SAPC  H11R 5470   5.408   5.469   7.434  1.6748  0.0250 -2.2647
   66SAPC  C212 5471   5.490   5.451   7.629 -0.1304  0.7577  0.6271
   66SAPC  H12R 5472   5.390   5.440   7.674  0.8507 -0.9119  2.4373
   66SAPC  C213 5473   5.608   5.440   7.728 -0.0058  0.5567  0.8559
   66SAPC  H13R 5474   5.582   5.495   7.821 -0.4717  0.2970  0.8868
   66SAPC  H13S 5475   5.698   5.495   7.696  0.6060 -0.1402  1.3701
   66SAPC  C214 5476   5.658   5.300   7.764 -0.0997  0.6970  0.2119
   66SAPC  H14R 5477   5.741   5.272   7.698 -0.2632  1.2131 -0.2249
   66SAPC  C215 5478   5.613   5.226   7.866  0.5635 -0.2587  0.2341
   66SAPC  H15R 5479   5.658   5.126   7.875  0.5117 -0.1937  1.2787
   66SAPC  C216 5480   5.503   5.256   7.962 -0.0449 -0.0858 -0.1080
   66SAPC  H16R 5481   5.437   5.168   7.970  3.9546 -3.1152  1.0629
   66SAPC  H16S 5482   5.449   5.351   7.938 -0.8696  0.3631  3.2581
   66SAPC  C217 5483   5.550   5.274   8.103 -0.5988 -0.8546 -1.0096
   66SAPC  H17R 5484   5.650   5.322   8.105 -0.7363 -0.5652  2.2414
   66SAPC  H17S 5485   5.564   5.174   8.151 -1.9642 -0.8631 -0.6283
   66SAPC  C218 5486   5.451   5.363   8.177 -0.1669  0.5343  0.1865
   66SAPC  H18R 5487   5.347   5.329   8.160 -0.1557  0.0086  1.1447
   66SAPC  H18S 5488   5.457   5.467   8.138  0.5869  0.4741  0.1405
   66SAPC  C219 5489   5.472   5.373   8.334  0.4203 -0.1913 -0.4073
   66SAPC  H19R 5490   5.392   5.444   8.363 -0.6869 -0.6881 -2.1780
   66SAPC  H19S 5491   5.574   5.412   8.354 -0.2688  0.9055  1.0105
   66SAPC  C220 5492   5.439   5.241   8.407  0.2002 -0.2951 -0.3726
   66SAPC  H20R 5493   5.356   5.184   8.360 -0.0456  0.1956 -0.5440
   66SAPC  H20S 5494   5.408   5.260   8.512 -3.5608  1.9614 -1.7731
   66SAPC  H20T 5495   5.527   5.174   8.407  0.4503  0.0252  1.0077
   66SAPC   C33 5496   5.679   5.388   6.612  0.8767  0.1832 -0.0957
   66SAPC   H3X 5497   5.597   5.345   6.673 -0.9249 -0.1132 -2.6185
   66SAPC   H3Y 5498   5.702   5.487   6.657 -2.0585  1.4376 -1.2023
   66SAPC   C34 5499   5.792   5.287   6.623  0.0424  0.2016  0.7914
   66SAPC   H4X 5500   5.877   5.320   6.560 -0.9467  2.1201  0.4419
   66SAPC   H4Y 5501   5.761   5.192   6.573  1.5492  0.0112  0.1755
   66SAPC   C35 5502   5.822   5.254   6.770 -0.3654 -0.4247  0.0931
   66SAPC   H5X 5503   5.911   5.188   6.777 -0.0502 -0.1411 -1.1503
   66SAPC   H5Y 5504   5.731   5.204   6.808 -0.6644 -0.3218 -0.4907
   66SAPC   C36 5505   5.874   5.381   6.841 -0.1245  0.1557  0.1572
   66SAPC   H6X 5506   5.785   5.444   6.862  0.1107  1.2380 -1.9686
   66SAPC   H6Y 5507   5.936   5.446   6.776  2.6101 -1.3808  1.1492
   66SAPC   C37 5508   5.943   5.363   6.982 -0.5548 -0.3327 -0.2535
   66SAPC   H7X 5509   6.040   5.309   6.970  0.8196  2.1996 -0.9398
   66SAPC   H7Y 5510   5.888   5.290   7.044 -0.4262  1.3259  1.8769
   66SAPC   C38 5511   5.967   5.493   7.063 -0.2827  0.0195  0.0117
   66SAPC   H8X 5512   5.866   5.539   7.063 -1.0122 -1.5426  1.7329
   66SAPC   H8Y 5513   6.036   5.548   6.995 -2.4704  1.0080 -1.4672
   66SAPC   C39 5514   6.044   5.476   7.198  0.2585 -0.2417  0.3498
   66SAPC   H9X 5515   6.073   5.578   7.230  1.1098 -0.3490 -0.0532
   66SAPC   H9Y 5516   6.132   5.417   7.164  0.7286 -0.1867  1.4595
   66SAPC  C310 5517   5.979   5.392   7.312 -0.0866  1.0731  0.1288
   66SAPC  H10X 5518   5.908   5.313   7.281 -0.8175  2.2190 -1.1818
   66SAPC  H10Y 5519   5.926   5.475   7.366  0.1367  1.6463 -0.5267
   66SAPC  C311 5520   6.079   5.346   7.420  0.1134  0.4397  0.4977
   66SAPC  H11X 5521   6.146   5.428   7.456  1.6757 -0.4248 -0.4105
   66SAPC  H11Y 5522   6.147   5.268   7.381 -0.6814  0.2348 -0.4826
   66SAPC  C312 5523   6.003   5.290   7.548 -0.1715  0.4728  0.5962
   66SAPC  H12X 5524   5.958   5.192   7.520  0.4488 -0.2445  2.1118
   66SAPC  H12Y 5525   5.923   5.361   7.581 -1.4307 -0.8826  0.5284
   66SAPC  C313 5526   6.101   5.275   7.663  0.0824  0.1096  0.2854
   66SAPC  H13X 5527   6.156   5.370   7.672  2.0874 -0.8802 -1.0390
   66SAPC  H13Y 5528   6.178   5.202   7.630 -0.6268 -0.9860  1.0201
   66SAPC  C314 5529   6.030   5.226   7.787 -0.0324 -0.8298  0.2746
   66SAPC  H14X 5530   5.974   5.133   7.764 -2.2421  0.8073 -1.1540
   66SAPC  H14Y 5531   5.959   5.301   7.827  2.9703  1.5549  1.3122
   66SAPC  C315 5532   6.136   5.190   7.893  0.0152  0.3226 -0.2040
   66SAPC  H15X 5533   6.199   5.281   7.895 -0.2544  0.5438  3.6802
   66SAPC  H15Y 5534   6.205   5.112   7.854  1.2807  1.1856  0.3030
   66SAPC  C316 5535   6.079   5.173   8.037 -0.1042  0.1116 -0.0862
   66SAPC  H16X 5536   6.154   5.148   8.115  1.2346  1.6082 -0.8682
   66SAPC  H16Y 5537   5.995   5.100   8.035 -0.4319  0.4915 -2.8024
   66SAPC  C317 5538   6.016   5.302   8.086  0.4095 -0.3429  0.2379
   66SAPC  H17X 5539   5.939   5.338   8.015 -0.6492 -2.9815  0.0094
   66SAPC  H17Y 5540   6.090   5.385   8.090  2.0684 -1.8345  1.9991
   66SAPC  C318 5541   5.963   5.293   8.228  0.2839  0.1925 -0.4371
   66SAPC  H18X 5542   5.876   5.224   8.224 -0.2772  0.9495 -1.8671
   66SAPC  H18Y 5543   5.926   5.386   8.277 -2.0240 -1.0694  0.2816
   66SAPC  H18Z 5544   6.047   5.243   8.280  1.5624 -0.3730 -2.9668
   67SAPC     N 5545   0.954   0.106   6.269  0.1309 -0.1290  0.5244
   67SAPC   C12 5546   1.040   0.016   6.354  0.3230 -0.3297 -0.4087
   67SAPC  H12A 5547   1.011   0.039   6.455  1.8259  0.2270 -0.0851
   67SAPC  H12B 5548   1.146   0.035   6.341 -0.2100  2.0592 -1.5917
   67SAPC   C13 5549   1.014   0.240   6.274 -0.0098  0.5267 -0.4114
   67SAPC  H13A 5550   1.116   0.235   6.238  1.1163  1.0855  2.5579
   67SAPC  H13B 5551   0.961   0.305   6.205  0.6064  1.5687  0.0850
   67SAPC  H13C 5552   0.999   0.293   6.367 -1.8598 -1.1120  0.2423
   67SAPC   C14 5553   0.942   0.061   6.123  0.5945 -0.1699 -0.8311
   67SAPC  H14A 5554   0.885  -0.031   6.118 -1.0080  0.7356  0.6211
   67SAPC  H14B 5555   0.882   0.132   6.068 -0.2919  0.9357  1.5209
   67SAPC  H14C 5556   1.033   0.057   6.065  1.9232  1.1940  1.1125
   67SAPC   C15 5557   0.819   0.117   6.329 -0.2233 -0.1679  0.0731
   67SAPC  H15A 5558   0.828   0.161   6.427  1.6236  1.7378 -0.9286
   67SAPC  H15B 5559   0.750   0.171   6.264 -0.0612 -1.4180 -1.1568
   67SAPC  H15C 5560   0.779   0.018   6.344 -0.0514 -0.2029  0.2807
   67SAPC   C11 5561   1.019  -0.138   6.343  0.9848 -0.5807  0.4063
   67SAPC  H11A 5562   1.085  -0.170   6.426  2.4272  1.5541  0.1125
   67SAPC  H11B 5563   1.062  -0.162   6.243  2.7108 -0.9104  1.2227
   67SAPC     P 5564   0.845  -0.320   6.422  0.3659  0.0265 -0.0757
   67SAPC   O13 5565   0.814  -0.419   6.315 -0.1235 -0.1582  0.0943
   67SAPC   O14 5566   0.956  -0.359   6.508  0.0189 -0.2165  0.5646
   67SAPC   O12 5567   0.882  -0.189   6.352 -0.7245 -0.2541 -0.8745
   67SAPC   O11 5568   0.721  -0.291   6.515  1.2615 -0.3325  0.1856
   67SAPC    C1 5569   0.614  -0.204   6.473  0.6880 -0.4592  0.7223
   67SAPC    HA 5570   0.653  -0.102   6.455 -1.4673  0.0347 -1.4063
   67SAPC    HB 5571   0.574  -0.228   6.372  0.6460 -2.6262  1.2321
   67SAPC    C2 5572   0.492  -0.194   6.570  0.6730 -0.8312  0.1459
   67SAPC    HS 5573   0.412  -0.129   6.528  2.2555  1.3704  0.4440
   67SAPC   O21 5574   0.527  -0.155   6.700 -0.2053  0.2785 -0.2609
   67SAPC   C21 5575   0.570  -0.025   6.700  0.9693  0.5009 -0.2850
   67SAPC   O22 5576   0.560   0.053   6.610 -0.5155  0.0481 -0.0027
   67SAPC   C22 5577   0.637  -0.007   6.835 -0.1745 -0.0903 -0.6480
   67SAPC   H2R 5578   0.557  -0.031   6.908 -0.3404 -0.8063 -1.0600
   67SAPC   H2S 5579   0.719  -0.081   6.843  0.7226  0.9897  0.2612
   67SAPC    C3 5580   0.423  -0.338   6.584  0.1392  0.2728 -0.0017
   67SAPC    HX 5581   0.497  -0.413   6.617 -1.8884 -2.3553 -1.2685
   67SAPC    HY 5582   0.405  -0.355   6.476  1.4440  0.9241 -0.3381
   67SAPC   O31 5583   0.305  -0.329   6.660 -0.3930  0.7283 -0.6495
   67SAPC   C31 5584   0.257  -0.452   6.702  0.2017  0.0060  0.0914
   67SAPC   O32 5585   0.306  -0.555   6.672 -0.4808  0.1510  0.0447
   67SAPC   C32 5586   0.132  -0.426   6.786 -0.3504  0.0770 -0.3347
   67SAPC   H2X 5587   0.046  -0.467   6.729  0.4094 -1.7434 -0.2172
   67SAPC   H2Y 5588   0.126  -0.318   6.810  0.6659 -0.2667  1.5881
   67SAPC   C23 5589   0.673   0.140   6.888  0.4234 -0.1312 -0.8564
   67SAPC   H3R 5590   0.585   0.202   6.858 -0.2501 -0.1253  1.0994
   67SAPC   H3S 5591   0.764   0.177   6.836  0.8620 -2.0691 -1.5080
   67SAPC   C24 5592   0.661   0.149   7.042  0.2313  0.1330 -0.3516
   67SAPC   H4R 5593   0.747   0.089   7.078  2.0939  2.0503 -1.4866
   67SAPC   H4S 5594   0.573   0.089   7.073 -0.7250  1.9443  0.5201
   67SAPC   C25 5595   0.666   0.291   7.086  0.0206 -0.2250 -0.4617
   67SAPC   H5R 5596   0.722   0.360   7.021 -2.0390 -0.3453 -2.4050
   67SAPC   C26 5597   0.600   0.354   7.190  0.2498  0.5070 -0.0426
   67SAPC   H6R 5598   0.634   0.455   7.216 -2.0084  1.0885  0.7532
   67SAPC   C27 5599   0.508   0.276   7.277  0.5811 -0.4659  0.3704
   67SAPC   H7R 5600   0.553   0.175   7.293 -0.1256 -1.1616 -1.8376
   67SAPC   H7S 5601   0.420   0.252   7.213 -0.1103  0.4283  0.9725
   67SAPC   C28 5602   0.457   0.347   7.400 -0.5223 -0.2202 -0.2566
   67SAPC   H8R 5603   0.372   0.417   7.400 -1.9158 -1.8613  0.4663
   67SAPC   C29 5604   0.525   0.349   7.520 -0.4940 -0.2241 -0.5952
   67SAPC   H9R 5605   0.475   0.399   7.604 -1.2527  0.5079 -1.4767
   67SAPC  C210 5606   0.654   0.282   7.553 -0.0851 -0.2550 -0.2226
   67SAPC  H10R 5607   0.733   0.353   7.585  0.6315 -0.7241 -0.9349
   67SAPC  H10S 5608   0.700   0.237   7.462 -1.8796  3.5383 -3.1371
   67SAPC  C211 5609   0.639   0.182   7.674  0.0535  0.1946  0.0526
   67SAPC  H11R 5610   0.629   0.234   7.771 -1.5608 -0.8006  0.4391
   67SAPC  C212 5611   0.635   0.050   7.666  0.7364  0.0415 -0.4174
   67SAPC  H12R 5612   0.626  -0.010   7.757  0.2387  0.1296 -0.4032
   67SAPC  C213 5613   0.650  -0.025   7.531  0.2953 -0.1972  0.1192
   67SAPC  H13R 5614   0.712   0.032   7.460  0.9376  2.8123  2.9851
   67SAPC  H13S 5615   0.544  -0.034   7.498  0.3008  0.9788 -0.2207
   67SAPC  C214 5616   0.707  -0.162   7.553  0.3391 -0.8405 -0.8349
   67SAPC  H14R 5617   0.725  -0.201   7.654 -0.0837  1.7742  0.2788
   67SAPC  C215 5618   0.726  -0.246   7.451  0.1998  0.4899  0.2877
   67SAPC  H15R 5619   0.772  -0.343   7.473 -0.9050 -0.6539 -2.2615
   67SAPC  C216 5620   0.707  -0.236   7.304 -0.0064 -0.1262 -0.0247
   67SAPC  H16R 5621   0.790  -0.290   7.253  1.0320  2.4000 -1.1260
   67SAPC  H16S 5622   0.725  -0.129   7.281 -1.4888  0.6434  2.2749
   67SAPC  C217 5623   0.557  -0.278   7.265  0.1739  0.3782  0.6220
   67SAPC  H17R 5624   0.489  -0.208   7.318  0.3553  0.4284  0.7904
   67SAPC  H17S 5625   0.527  -0.378   7.303  0.9058 -0.9017 -2.0683
   67SAPC  C218 5626   0.536  -0.284   7.111 -0.0484 -0.2875 -0.6753
   67SAPC  H18R 5627   0.595  -0.196   7.075 -0.8574  0.1790 -0.8669
   67SAPC  H18S 5628   0.430  -0.269   7.084 -0.0826 -1.6060 -1.2885
   67SAPC  C219 5629   0.597  -0.411   7.047 -0.5741 -0.0795 -0.3689
   67SAPC  H19R 5630   0.530  -0.491   7.084 -1.5353  0.1606 -1.5686
   67SAPC  H19S 5631   0.703  -0.418   7.080 -1.2833 -1.2072  1.7581
   67SAPC  C220 5632   0.589  -0.414   6.894  0.3821  0.0984 -0.4460
   67SAPC  H20R 5633   0.649  -0.499   6.856  0.3610 -0.2089  0.2070
   67SAPC  H20S 5634   0.617  -0.312   6.860 -1.6767  1.4234  1.6737
   67SAPC  H20T 5635   0.489  -0.444   6.855  0.4392 -0.4319 -0.1857
   67SAPC   C33 5636   0.140  -0.503   6.922  0.6292  0.0864 -0.5821
   67SAPC   H3X 5637   0.237  -0.480   6.971 -0.5418 -0.2102  1.9486
   67SAPC   H3Y 5638   0.124  -0.613   6.921  1.2521 -0.0134 -3.2176
   67SAPC   C34 5639   0.034  -0.451   7.022  0.5833 -0.0157 -0.1596
   67SAPC   H4X 5640  -0.074  -0.449   6.995  1.5004 -3.0781 -4.5441
   67SAPC   H4Y 5641   0.059  -0.345   7.041 -0.6485  0.1324  0.7221
   67SAPC   C35 5642   0.047  -0.516   7.160  0.3475 -0.3193  0.1791
   67SAPC   H5X 5643   0.041  -0.626   7.148  0.1835 -0.4147  1.0898
   67SAPC   H5Y 5644  -0.042  -0.493   7.222  0.7528 -1.6991  1.3213
   67SAPC   C36 5645   0.171  -0.480   7.248 -0.3934  0.0665  0.4846
   67SAPC   H6X 5646   0.185  -0.371   7.266 -0.8861  0.0200  1.1940
   67SAPC   H6Y 5647   0.263  -0.521   7.203 -0.3218  0.9185 -0.1602
   67SAPC   C37 5648   0.162  -0.547   7.388  0.5960 -0.1271 -0.0810
   67SAPC   H7X 5649   0.146  -0.657   7.388  3.3911 -0.5914  1.5068
   67SAPC   H7Y 5650   0.078  -0.505   7.447  2.8839  4.4020  0.2117
   67SAPC   C38 5651   0.292  -0.524   7.460 -0.0402 -0.2815 -0.5566
   67SAPC   H8X 5652   0.315  -0.416   7.453 -0.0363 -0.2438  0.0515
   67SAPC   H8Y 5653   0.370  -0.573   7.398  1.2644  4.5780 -2.9958
   67SAPC   C39 5654   0.289  -0.578   7.605 -0.3341  0.3022  0.5141
   67SAPC   H9X 5655   0.392  -0.576   7.647 -0.3103 -0.6721  0.5080
   67SAPC   H9Y 5656   0.267  -0.686   7.602  2.3624 -0.2465 -1.4813
   67SAPC  C310 5657   0.190  -0.497   7.697  0.8658 -0.2511 -0.1039
   67SAPC  H10X 5658   0.091  -0.522   7.652  1.8614 -0.1752 -2.4154
   67SAPC  H10Y 5659   0.207  -0.387   7.700 -2.3289  0.3101 -0.8026
   67SAPC  C311 5660   0.190  -0.556   7.842  0.6373 -0.2715 -0.4408
   67SAPC  H11X 5661   0.288  -0.527   7.885  0.3364 -2.0260  1.5527
   67SAPC  H11Y 5662   0.201  -0.666   7.832  3.2952 -0.4280  3.1428
   67SAPC  C312 5663   0.071  -0.506   7.932  0.4165  0.4881 -0.1856
   67SAPC  H12X 5664   0.005  -0.593   7.950 -1.0610  1.0689 -2.6065
   67SAPC  H12Y 5665   0.011  -0.425   7.884  0.3762  0.1053 -0.7862
   67SAPC  C313 5666   0.129  -0.448   8.063  0.1714 -0.6749 -0.1779
   67SAPC  H13X 5667   0.181  -0.355   8.032 -1.9828  0.7803  0.4637
   67SAPC  H13Y 5668   0.209  -0.519   8.092  0.4758 -0.1165  0.3575
   67SAPC  C314 5669   0.033  -0.423   8.168 -0.0289  0.6557  0.7707
   67SAPC  H14X 5670  -0.014  -0.521   8.189 -0.5495  0.9152  0.8504
   67SAPC  H14Y 5671  -0.047  -0.360   8.122  1.6415  1.5552 -0.9553
   67SAPC  C315 5672   0.088  -0.369   8.297  0.0665  0.0913  0.2831
   67SAPC  H15X 5673   0.134  -0.271   8.274  0.5274 -0.5340 -1.6244
   67SAPC  H15Y 5674   0.164  -0.435   8.345 -1.0569  0.4592  2.5868
   67SAPC  C316 5675  -0.023  -0.334   8.402  0.0166  0.0622 -0.4040
   67SAPC  H16X 5676   0.022  -0.346   8.503  1.2365 -0.3127 -0.9755
   67SAPC  H16Y 5677  -0.104  -0.410   8.397  0.2192 -0.1200 -1.0086
   67SAPC  C317 5678  -0.077  -0.195   8.378  0.6489  1.0104 -0.4657
   67SAPC  H17X 5679  -0.116  -0.190   8.273  1.1734  0.2792 -0.6987
   67SAPC  H17Y 5680  -0.001  -0.117   8.398  1.2589  0.8554 -2.1092
   67SAPC  C318 5681  -0.196  -0.160   8.475 -0.0025 -0.3872  0.4849
   67SAPC  H18X 5682  -0.267  -0.244   8.488  0.5211 -0.7398  1.0617
   67SAPC  H18Y 5683  -0.263  -0.086   8.427  0.6562 -0.2725 -0.2697
   67SAPC  H18Z 5684  -0.164  -0.117   8.572 -0.8727  1.6954 -0.1298
   68SAPC     N 5685   6.131   6.259   5.909  0.6673  0.1005  0.2821
   68SAPC   C12 5686   6.248   6.248   6.000 -0.6347 -0.4195 -0.1196
   68SAPC  H12A 5687   6.255   6.341   6.054 -3.0616  0.5076 -1.2964
   68SAPC  H12B 5688   6.330   6.228   5.932 -1.3037 -0.4314 -0.9291
   68SAPC   C13 5689   6.154   6.349   5.790 -0.0885  0.1556 -0.6813
   68SAPC  H13A 5690   6.070   6.374   5.727 -0.6226  1.0176  0.3667
   68SAPC  H13B 5691   6.198   6.439   5.830  0.9127  0.0052 -1.4280
   68SAPC  H13C 5692   6.219   6.302   5.717  0.0068 -0.2707 -0.3230
   68SAPC   C14 5693   6.078   6.128   5.854 -0.1816  0.2952 -0.1625
   68SAPC  H14A 5694   6.049   6.068   5.939 -0.9811  0.9015 -0.0074
   68SAPC  H14B 5695   5.998   6.138   5.783 -0.8336  1.0086  0.6583
   68SAPC  H14C 5696   6.161   6.076   5.808 -0.3977 -1.7015  1.6196
   68SAPC   C15 5697   6.020   6.321   5.986  0.7053 -0.6663 -0.0615
   68SAPC  H15A 5698   6.055   6.421   6.007 -0.9692 -0.6315  2.7488
   68SAPC  H15B 5699   5.923   6.318   5.937  0.4472 -0.8342  0.4566
   68SAPC  H15C 5700   6.004   6.267   6.078 -3.7765 -0.1796 -0.4105
   68SAPC   C11 5701   6.239   6.131   6.109 -0.4893  0.0610  0.5362
   68SAPC  H11A 5702   6.337   6.127   6.162  0.2809  0.7780 -0.7898
   68SAPC  H11B 5703   6.231   6.032   6.058  1.1095  0.3055 -0.2502
   68SAPC     P 5704   6.072   6.011   6.260  0.0576  0.0259 -0.2913
   68SAPC   O13 5705   5.952   6.050   6.344  0.0572  0.5421 -0.0778
   68SAPC   O14 5706   6.047   5.909   6.156 -0.1596 -0.1237  0.5315
   68SAPC   O12 5707   6.130   6.147   6.199  0.1959 -0.0454  0.1076
   68SAPC   O11 5708   6.187   5.968   6.360 -0.1661 -0.4814 -0.3229
   68SAPC    C1 5709   6.257   6.058   6.442  0.2011 -0.6502  0.4562
   68SAPC    HA 5710   6.343   6.089   6.380 -2.2219 -1.3577 -3.4592
   68SAPC    HB 5711   6.195   6.147   6.465  0.8088 -0.2683  0.5941
   68SAPC    C2 5712   6.292   6.011   6.587 -0.2602 -0.6513  1.5277
   68SAPC    HS 5713   6.368   6.082   6.628  2.0301 -2.1310 -0.0428
   68SAPC   O21 5714   6.343   5.872   6.586 -0.0605  0.3943  0.5259
   68SAPC   C21 5715   6.440   5.852   6.677 -0.3820 -0.8572 -0.0203
   68SAPC   O22 5716   6.506   5.941   6.731  0.8801 -0.6552 -0.0026
   68SAPC   C22 5717   6.462   5.693   6.685  0.1207  0.7680 -0.2339
   68SAPC   H2R 5718   6.509   5.660   6.591 -0.5847 -1.9327  0.3195
   68SAPC   H2S 5719   6.537   5.680   6.766  1.9768 -2.5201 -2.3959
   68SAPC    C3 5720   6.161   6.014   6.676  0.2381 -0.2756 -0.0008
   68SAPC    HX 5721   6.096   5.938   6.629 -0.8545  2.2964 -2.8025
   68SAPC    HY 5722   6.106   6.109   6.660  0.9484  0.1537  0.0845
   68SAPC   O31 5723   6.194   5.990   6.816  0.1685 -0.7964 -0.0856
   68SAPC   C31 5724   6.093   5.940   6.882 -0.1864 -0.2240 -0.6576
   68SAPC   O32 5725   5.982   5.908   6.840 -0.2710  0.1336 -0.1118
   68SAPC   C32 5726   6.127   5.944   7.034  0.2446  0.9873  0.0237
   68SAPC   H2X 5727   6.150   6.052   7.044 -0.9703  1.3629 -1.0917
   68SAPC   H2Y 5728   6.220   5.885   7.045  1.0306  2.1440 -0.3588
   68SAPC   C23 5729   6.326   5.624   6.697 -0.2570  0.0805  0.1212
   68SAPC   H3R 5730   6.332   5.527   6.643  0.2110  0.6646 -0.8756
   68SAPC   H3S 5731   6.245   5.677   6.643  0.5152 -1.4043 -2.6181
   68SAPC   C24 5732   6.277   5.604   6.844  0.6870 -0.1612 -0.7043
   68SAPC   H4R 5733   6.166   5.604   6.839  0.6045  2.5971  0.3079
   68SAPC   H4S 5734   6.309   5.693   6.901  2.0466 -0.3937 -1.0839
   68SAPC   C25 5735   6.334   5.479   6.903  0.5585  0.2998  0.1352
   68SAPC   H5R 5736   6.339   5.391   6.836  0.9809  1.4972 -1.4412
   68SAPC   C26 5737   6.385   5.470   7.024 -0.6017 -0.1206  0.1138
   68SAPC   H6R 5738   6.431   5.374   7.053  2.0398  0.8686 -0.7337
   68SAPC   C27 5739   6.384   5.580   7.130 -0.7718 -0.0096  0.1566
   68SAPC   H7R 5740   6.296   5.646   7.116  0.4711  1.4576 -0.8233
   68SAPC   H7S 5741   6.468   5.652   7.119 -0.2269 -0.7697 -0.7852
   68SAPC   C28 5742   6.379   5.531   7.270 -0.1991  0.2663 -0.1511
   68SAPC   H8R 5743   6.303   5.455   7.292  0.5095 -0.1169  1.0634
   68SAPC   C29 5744   6.453   5.564   7.378  0.1987  0.8971 -0.3638
   68SAPC   H9R 5745   6.415   5.532   7.476 -1.3480  2.6003 -0.3785
   68SAPC  C210 5746   6.563   5.664   7.388 -0.3116  0.1575 -0.6574
   68SAPC  H10R 5747   6.534   5.771   7.398  3.9669  1.4471 -1.1268
   68SAPC  H10S 5748   6.618   5.661   7.292  0.9595 -0.2913  0.0726
   68SAPC  C211 5749   6.647   5.623   7.510 -0.2825 -0.5260 -0.8815
   68SAPC  H11R 5750   6.734   5.558   7.491  0.7721  0.4186  0.5587
   68SAPC  C212 5751   6.635   5.674   7.636  0.3144 -0.1556 -0.2922
   68SAPC  H12R 5752   6.712   5.657   7.713  0.3397  1.1571 -0.0122
   68SAPC  C213 5753   6.534   5.777   7.683  0.8536 -0.5799  0.2737
   68SAPC  H13R 5754   6.492   5.745   7.780  0.7695  0.1058  0.4669
   68SAPC  H13S 5755   6.448   5.764   7.615  1.4339 -1.5315 -0.2970
   68SAPC  C214 5756   6.588   5.920   7.691 -0.1059  0.7309  0.2302
   68SAPC  H14R 5757   6.654   5.945   7.775  2.0974 -1.1976 -0.8575
   68SAPC  C215 5758   6.547   6.017   7.615 -0.4881 -0.0119  0.3675
   68SAPC  H15R 5759   6.610   6.107   7.618  0.9500 -1.0054  0.3683
   68SAPC  C216 5760   6.449   6.011   7.499 -1.4034  0.1746 -0.1997
   68SAPC  H16R 5761   6.361   6.076   7.520  0.7224  2.7818  0.8271
   68SAPC  H16S 5762   6.410   5.910   7.475  2.7891 -1.3090 -1.0741
   68SAPC  C217 5763   6.523   6.061   7.380 -0.4867 -0.0442  0.2563
   68SAPC  H17R 5764   6.621   6.008   7.375 -0.1799  0.3708  1.7201
   68SAPC  H17S 5765   6.544   6.170   7.383 -0.2234 -0.0284 -1.5049
   68SAPC  C218 5766   6.440   6.031   7.252 -0.7705 -0.1016  0.1094
   68SAPC  H18R 5767   6.338   6.076   7.260 -1.0314 -0.4657 -1.0771
   68SAPC  H18S 5768   6.421   5.922   7.251 -0.8907 -0.1021  1.3454
   68SAPC  C219 5769   6.514   6.068   7.123  0.0509  0.7011 -0.1567
   68SAPC  H19R 5770   6.600   6.133   7.148 -0.6432  1.1463  1.1143
   68SAPC  H19S 5771   6.435   6.119   7.065 -1.7521 -1.7236  0.0789
   68SAPC  C220 5772   6.568   5.942   7.062 -0.2191 -0.5840  0.1706
   68SAPC  H20R 5773   6.497   5.863   7.030 -0.0524  0.0855 -1.9017
   68SAPC  H20S 5774   6.644   5.895   7.128 -0.6406 -0.8147  0.4904
   68SAPC  H20T 5775   6.612   5.970   6.963 -2.9982  2.7154 -0.2057
   68SAPC   C33 5776   6.019   5.890   7.126  0.3102 -0.0877 -0.4906
   68SAPC   H3X 5777   5.966   5.805   7.080  0.1397  0.0387 -0.5281
   68SAPC   H3Y 5778   5.951   5.973   7.155  0.0133 -0.6823  0.5446
   68SAPC   C34 5779   6.083   5.837   7.259 -0.1854 -0.0871  1.2548
   68SAPC   H4X 5780   6.136   5.926   7.300  2.3123 -0.1535 -1.6988
   68SAPC   H4Y 5781   6.164   5.762   7.255  0.7696  0.8314  2.7388
   68SAPC   C35 5782   5.978   5.797   7.362 -0.0467 -0.2741  0.4561
   68SAPC   H5X 5783   5.919   5.709   7.327 -0.4949  0.0195  0.4675
   68SAPC   H5Y 5784   5.903   5.877   7.381 -0.8749 -1.5674  2.9409
   68SAPC   C36 5785   6.038   5.760   7.499 -0.0058  0.0009 -0.0191
   68SAPC   H6X 5786   6.121   5.833   7.513  0.7873 -0.8728 -0.0962
   68SAPC   H6Y 5787   6.088   5.661   7.500  0.5668  0.2781 -1.1203
   68SAPC   C37 5788   5.930   5.758   7.604  0.1340 -0.0816 -0.2557
   68SAPC   H7X 5789   5.854   5.683   7.576 -1.3045  0.3420  2.2646
   68SAPC   H7Y 5790   5.877   5.856   7.612  0.2757 -0.0711  0.6844
   68SAPC   C38 5791   5.983   5.726   7.746  0.0298 -0.2666  0.5489
   68SAPC   H8X 5792   6.049   5.637   7.743 -1.0612 -1.0331 -1.1048
   68SAPC   H8Y 5793   5.898   5.721   7.818  1.1936 -2.2102  1.8368
   68SAPC   C39 5794   6.070   5.848   7.801  0.3624  0.1338 -0.2716
   68SAPC   H9X 5795   6.033   5.945   7.761  0.2076 -0.1313 -0.7665
   68SAPC   H9Y 5796   6.175   5.840   7.767 -0.3103 -3.7816 -1.6300
   68SAPC  C310 5797   6.071   5.859   7.953 -0.1668  0.0531 -0.0073
   68SAPC  H10X 5798   5.963   5.866   7.981 -0.6907 -0.5638 -1.7878
   68SAPC  H10Y 5799   6.118   5.957   7.975 -0.0776 -0.4547  2.1536
   68SAPC  C311 5800   6.136   5.741   8.034 -0.1475  0.8488 -0.0228
   68SAPC  H11X 5801   6.105   5.642   7.996 -0.1197  0.3820  1.1446
   68SAPC  H11Y 5802   6.114   5.751   8.143  0.5835 -0.2726  0.2342
   68SAPC  C312 5803   6.289   5.733   8.027 -0.1050 -0.0906  1.1409
   68SAPC  H12X 5804   6.329   5.827   8.070 -0.8618  2.5133 -3.4756
   68SAPC  H12Y 5805   6.321   5.739   7.921 -2.6340  0.5093  0.3569
   68SAPC  C313 5806   6.353   5.601   8.088  0.0535  0.1134  0.4056
   68SAPC  H13X 5807   6.463   5.620   8.093 -0.2076  2.0439 -0.5514
   68SAPC  H13Y 5808   6.345   5.509   8.027 -0.3048  1.3028 -1.3863
   68SAPC  C314 5809   6.320   5.571   8.236 -0.1240 -0.6558  0.4086
   68SAPC  H14X 5810   6.209   5.562   8.241  0.0457 -3.4315  0.3152
   68SAPC  H14Y 5811   6.353   5.650   8.306 -0.9064  1.5466 -1.6241
   68SAPC  C315 5812   6.370   5.432   8.271  0.3619 -0.5287 -0.0811
   68SAPC  H15X 5813   6.480   5.429   8.283  0.3702 -3.5717 -0.5985
   68SAPC  H15Y 5814   6.349   5.365   8.185 -0.9562 -1.3516  0.8678
   68SAPC  C316 5815   6.312   5.367   8.397 -0.4759  0.5080  0.3410
   68SAPC  H16X 5816   6.202   5.361   8.412 -0.8015  0.1606 -2.0186
   68SAPC  H16Y 5817   6.347   5.433   8.479  0.6634 -0.6844  0.8183
   68SAPC  C317 5818   6.373   5.225   8.409  0.0477  0.5013  0.7235
   68SAPC  H17X 5819   6.481   5.245   8.394  0.6301 -2.1870  1.1231
   68SAPC  H17Y 5820   6.342   5.159   8.326 -3.5887  1.6347  1.0892
   68SAPC  C318 5821   6.351   5.164   8.545  0.5500 -0.3421  0.2273
   68SAPC  H18X 5822   6.381   5.230   8.629  0.6585 -0.0446 -0.0442
   68SAPC  H18Y 5823   6.386   5.061   8.564 -3.0900 -1.2161  2.6619
   68SAPC  H18Z 5824   6.242   5.143   8.542  0.4378  0.3412 -1.0890
   69SLPC     N 5825   3.401   3.791  11.127 -0.3054  0.6401 -0.1191
   69SLPC   C13 5826   3.380   3.842  11.269  0.3487 -0.4245  0.0204
   69SLPC  H13A 5827   3.377   3.950  11.277 -0.9719 -0.6448  3.7769
   69SLPC  H13B 5828   3.291   3.802  11.313 -0.4014 -0.4859 -1.5383
   69SLPC  H13C 5829   3.463   3.810  11.331 -0.8704 -1.9640  0.8886
   69SLPC   C14 5830   3.434   3.645  11.134  0.6421  0.1503  0.0069
   69SLPC  H14A 5831   3.507   3.626  11.211  1.1304  0.5076 -0.3637
   69SLPC  H14B 5832   3.339   3.595  11.151  0.0820  1.1859 -0.0340
   69SLPC  H14C 5833   3.467   3.610  11.037  1.4812  1.4604 -0.1929
   69SLPC   C15 5834   3.518   3.858  11.065  0.6273  1.0998  0.0095
   69SLPC  H15A 5835   3.606   3.840  11.126  0.5694 -0.3955 -0.3144
   69SLPC  H15B 5836   3.534   3.822  10.964  1.9675 -3.0289  1.5733
   69SLPC  H15C 5837   3.490   3.962  11.061 -0.2054  0.9370  1.2241
   69SLPC   C12 5838   3.279   3.819  11.045  1.2633 -0.1991 -0.0744
   69SLPC  H12A 5839   3.272   3.927  11.038 -1.3992 -0.3344 -0.1503
   69SLPC  H12B 5840   3.190   3.788  11.098  0.5162 -0.1059 -1.2626
   69SLPC   C11 5841   3.260   3.759  10.906 -0.0783  0.1921 -0.3466
   69SLPC  H11A 5842   3.345   3.791  10.841 -0.3816  0.5366 -0.5728
   69SLPC  H11B 5843   3.171   3.809  10.862 -1.2328  1.3025  3.1067
   69SLPC     P 5844   3.119   3.544  10.954 -0.3784  0.1594  0.2725
   69SLPC   O13 5845   3.137   3.409  11.007  0.2487  0.0743  0.3460
   69SLPC   O14 5846   3.039   3.634  11.040  0.0384  0.0903  0.2620
   69SLPC   O12 5847   3.252   3.615  10.903  0.2372 -0.3275  0.2223
   69SLPC   O11 5848   3.042   3.525  10.822  0.1640 -0.0743 -0.0603
   69SLPC    C1 5849   3.097   3.468  10.706  0.3690 -0.5939  0.3121
   69SLPC    HA 5850   3.186   3.408  10.734 -0.2271 -1.4562  0.3598
   69SLPC    HB 5851   3.011   3.409  10.668  0.6647 -1.5640  1.1382
   69SLPC    C2 5852   3.143   3.581  10.599  0.5826 -0.0049  0.0879
   69SLPC    HS 5853   3.184   3.665  10.659 -0.4412  0.6122 -0.0581
   69SLPC   O21 5854   3.037   3.623  10.520  0.0350  0.0452  0.0690
   69SLPC   C21 5855   2.939   3.689  10.573  0.2955 -0.5623 -0.0850
   69SLPC   O22 5856   2.938   3.746  10.686 -0.3057  0.1499 -0.0519
   69SLPC   C22 5857   2.829   3.705  10.464  0.6358 -0.4414 -0.0154
   69SLPC   H2R 5858   2.828   3.612  10.404  0.2841  0.0661 -0.8127
   69SLPC   H2S 5859   2.733   3.703  10.519 -0.6191 -1.3158 -2.1895
   69SLPC    C3 5860   3.266   3.537  10.514 -1.1155  0.1984 -0.0926
   69SLPC    HX 5861   3.256   3.428  10.497 -2.0311  0.2941 -0.1838
   69SLPC    HY 5862   3.364   3.533  10.566  0.3829 -1.1894 -2.9320
   69SLPC   O31 5863   3.279   3.604  10.387  0.2534 -0.5244  0.1500
   69SLPC   C31 5864   3.337   3.723  10.392 -0.5109 -0.5635 -0.2730
   69SLPC   O32 5865   3.391   3.766  10.496  0.5528  0.0648  0.0668
   69SLPC   C32 5866   3.330   3.801  10.264 -0.4862 -0.0220 -0.6643
   69SLPC   H2X 5867   3.221   3.801  10.242 -0.4878 -1.2298 -0.7204
   69SLPC   H2Y 5868   3.382   3.751  10.180 -0.8017 -0.2319 -0.7398
   69SLPC   C23 5869   2.838   3.842  10.383 -0.3096  0.0488  0.0426
   69SLPC   H3R 5870   2.899   3.918  10.436  1.0280 -1.3033  0.4803
   69SLPC   H3S 5871   2.732   3.875  10.387 -1.3814 -3.2255  0.4495
   69SLPC   C24 5872   2.896   3.826  10.242  0.1062 -0.1557  0.5638
   69SLPC   H4R 5873   2.841   3.742  10.192  0.0844 -0.3359  0.8872
   69SLPC   H4S 5874   2.999   3.787  10.257  0.9010  1.9524  0.6667
   69SLPC   C25 5875   2.889   3.957  10.155 -0.2504 -0.2166 -0.2879
   69SLPC   H5R 5876   2.952   4.032  10.209  0.8929 -3.1169  2.6199
   69SLPC   H5S 5877   2.783   3.988  10.143 -0.1777  0.6725  1.2247
   69SLPC   C26 5878   2.940   3.938  10.014 -0.0845 -0.1707 -0.1753
   69SLPC   H6R 5879   2.875   3.873   9.952 -2.6042  1.4825  0.6535
   69SLPC   H6S 5880   3.035   3.881  10.008 -0.2894 -0.3906 -1.4450
   69SLPC   C27 5881   2.968   4.073   9.947 -0.1741  0.4154 -1.0010
   69SLPC   H7R 5882   3.039   4.051   9.865 -0.2055 -1.1922 -0.6101
   69SLPC   H7S 5883   3.035   4.131  10.015 -0.1208  0.2047 -0.8731
   69SLPC   C28 5884   2.841   4.148   9.898 -1.2155  0.3588  0.2310
   69SLPC   H8R 5885   2.883   4.242   9.857 -0.5881  0.0598  0.1818
   69SLPC   H8S 5886   2.785   4.180   9.989 -0.8781  0.5020  0.3874
   69SLPC   C29 5887   2.759   4.063   9.814 -0.1934  1.1357  0.5965
   69SLPC   H9R 5888   2.700   3.985   9.863 -0.5156  1.3681  0.5818
   69SLPC  C210 5889   2.764   4.077   9.676 -0.3812 -0.1556  0.2794
   69SLPC  H10R 5890   2.714   4.000   9.615 -1.1440 -0.0225  0.7246
   69SLPC  C211 5891   2.836   4.176   9.588  0.1737 -0.2855  0.3938
   69SLPC  H11R 5892   2.880   4.258   9.648 -2.3748  0.1669  1.6924
   69SLPC  H11S 5893   2.758   4.227   9.528  1.8760  0.8203 -0.9198
   69SLPC  C212 5894   2.935   4.119   9.477 -0.3956  0.1954  0.3109
   69SLPC  H12R 5895   3.030   4.074   9.512 -0.1011  0.8027  0.3064
   69SLPC  C213 5896   2.905   4.115   9.347  0.9144 -0.3234  0.3575
   69SLPC  H13R 5897   2.979   4.061   9.286 -0.6662  0.3572 -2.2402
   69SLPC  C214 5898   2.783   4.169   9.269  0.5802  0.2416  0.5076
   69SLPC  H14R 5899   2.711   4.219   9.338  1.9504 -1.9785  3.6976
   69SLPC  H14S 5900   2.723   4.086   9.228  0.1295 -0.0228  1.6715
   69SLPC  C215 5901   2.804   4.280   9.167  0.5621 -0.9463  0.6391
   69SLPC  H15R 5902   2.874   4.355   9.209  0.5138  0.5457 -1.8269
   69SLPC  H15S 5903   2.708   4.332   9.148 -0.1027 -2.7769 -1.2919
   69SLPC  C216 5904   2.852   4.229   9.030 -0.2913  0.1566 -0.2148
   69SLPC  H16R 5905   2.773   4.154   9.008  0.1596 -0.9994  1.9508
   69SLPC  H16S 5906   2.950   4.181   9.047 -0.1290  1.2288  2.0869
   69SLPC  C217 5907   2.854   4.325   8.920 -0.3332 -0.0179  0.2686
   69SLPC  H17R 5908   2.904   4.421   8.945  0.2506 -0.4272  0.6810
   69SLPC  H17S 5909   2.749   4.353   8.898 -0.8641 -2.1139  0.0311
   69SLPC  C218 5910   2.905   4.278   8.784  0.0544  0.1053 -0.1970
   69SLPC  H18R 5911   2.866   4.338   8.699  1.1252 -2.4924 -2.5856
   69SLPC  H18S 5912   2.883   4.170   8.770 -0.7674 -0.1701  2.9342
   69SLPC  H18T 5913   3.016   4.283   8.774  0.2185 -0.6786  1.1845
   69SLPC   C33 5914   3.388   3.946  10.276 -1.0527 -0.7088  0.3446
   69SLPC   H3X 5915   3.498   3.945  10.294 -1.3275  3.8437  2.8015
   69SLPC   H3Y 5916   3.337   4.005  10.356  0.3770  1.4407 -0.2904
   69SLPC   C34 5917   3.355   4.018  10.142 -0.4708 -0.7469 -0.1831
   69SLPC   H4X 5918   3.385   4.123  10.162 -1.3873 -0.4163 -0.5316
   69SLPC   H4Y 5919   3.247   4.019  10.118 -0.4424 -0.5814 -0.3037
   69SLPC   C35 5920   3.428   3.964  10.017  0.1759  0.1432 -0.4302
   69SLPC   H5X 5921   3.388   3.862  10.000  2.7971 -0.9309 -0.3537
   69SLPC   H5Y 5922   3.535   3.956  10.042  0.1054 -0.8572 -0.4429
   69SLPC   C36 5923   3.398   4.052   9.888 -0.2065  0.6409 -0.8759
   69SLPC   H6X 5924   3.494   4.108   9.886  0.5418 -0.2690  3.4691
   69SLPC   H6Y 5925   3.318   4.128   9.902 -2.7536 -2.2497  1.1021
   69SLPC   C37 5926   3.388   3.971   9.755  0.3513 -0.1963 -0.3703
   69SLPC   H7X 5927   3.474   3.900   9.753  0.0767 -0.5641  0.5904
   69SLPC   H7Y 5928   3.406   4.042   9.671  1.9379  0.3841  0.4382
   69SLPC   C38 5929   3.253   3.915   9.726 -0.0599 -0.7764 -0.2789
   69SLPC   H8X 5930   3.169   3.988   9.721  0.1551 -0.5740 -1.0636
   69SLPC   H8Y 5931   3.218   3.843   9.803  0.4545 -0.2834  0.4139
   69SLPC   C39 5932   3.255   3.831   9.592 -0.4676  0.0670  0.6166
   69SLPC   H9X 5933   3.163   3.768   9.586 -1.6488  1.8048  0.0721
   69SLPC   H9Y 5934   3.337   3.757   9.593  0.7372  1.3789  3.4656
   69SLPC  C310 5935   3.275   3.916   9.462 -0.4376 -0.1731  0.3361
   69SLPC  H10X 5936   3.383   3.939   9.457 -0.1628 -0.7528  3.1972
   69SLPC  H10Y 5937   3.221   4.012   9.475 -1.0913 -0.6426  1.1315
   69SLPC  C311 5938   3.231   3.834   9.335 -0.3300 -0.8809 -0.5718
   69SLPC  H11X 5939   3.121   3.819   9.347 -0.7510  2.2119  0.1068
   69SLPC  H11Y 5940   3.300   3.747   9.340  1.9967  0.8938 -0.8421
   69SLPC  C312 5941   3.247   3.916   9.206 -0.2308  0.2485  0.4633
   69SLPC  H12X 5942   3.347   3.964   9.211 -0.4209  0.4066  3.8255
   69SLPC  H12Y 5943   3.168   3.995   9.203 -1.5548 -1.1452 -2.6427
   69SLPC  C313 5944   3.211   3.833   9.081 -0.5469  0.7522 -0.4285
   69SLPC  H13X 5945   3.108   3.793   9.096  0.3111 -0.5596  2.3427
   69SLPC  H13Y 5946   3.268   3.740   9.058 -1.2442 -0.3711  2.1588
   69SLPC  C314 5947   3.209   3.924   8.960 -0.7682 -1.1627 -0.4185
   69SLPC  H14X 5948   3.311   3.950   8.923 -1.3689  0.9118 -0.7132
   69SLPC  H14Y 5949   3.155   4.017   8.989  0.6171 -0.9880  1.7512
   69SLPC  C315 5950   3.129   3.869   8.844 -0.6967  0.5400 -0.6978
   69SLPC  H15X 5951   3.134   3.953   8.771  0.5684  0.5176 -0.6565
   69SLPC  H15Y 5952   3.021   3.864   8.871 -0.9999  3.1213 -1.3072
   69SLPC  C316 5953   3.192   3.749   8.769  0.5400 -1.1126 -0.5110
   69SLPC  H16X 5954   3.191   3.655   8.829  0.2133  0.7221  2.4411
   69SLPC  H16Y 5955   3.295   3.775   8.738  0.4097 -0.2431 -0.2335
   69SLPC  C317 5956   3.114   3.706   8.643 -0.1407 -0.3171 -0.3821
   69SLPC  H17X 5957   3.122   3.794   8.575  0.5146  2.1903  2.7789
   69SLPC  H17Y 5958   3.006   3.697   8.667 -0.2059  4.0743  1.4474
   69SLPC  C318 5959   3.168   3.589   8.561 -0.0597  0.2436  0.5282
   69SLPC  H18X 5960   3.259   3.620   8.505  1.2740 -0.0226  2.5043
   69SLPC  H18Y 5961   3.087   3.568   8.488  2.4105 -0.3359 -2.1702
   69SLPC  H18Z 5962   3.186   3.495   8.618 -1.0105 -0.2459  0.0388
   70SLPC     N 5963   3.899   2.174  11.131 -0.0942 -0.4965  0.0716
   70SLPC   C13 5964   3.855   2.291  11.041 -0.6325 -0.2006  0.3910
   70SLPC  H13A 5965   3.752   2.324  11.046 -1.1723 -1.1847 -3.0799
   70SLPC  H13B 5966   3.915   2.378  11.065 -1.4254  0.1208  1.2732
   70SLPC  H13C 5967   3.874   2.271  10.937  0.4940  1.5097  0.2476
   70SLPC   C14 5968   3.852   2.193  11.272  0.1290  0.0746 -0.6778
   70SLPC  H14A 5969   3.899   2.124  11.340  1.3190 -0.4761 -2.0330
   70SLPC  H14B 5970   3.880   2.288  11.315  0.9240  0.2423 -1.5414
   70SLPC  H14C 5971   3.745   2.183  11.284  0.1384  4.0350  4.4502
   70SLPC   C15 5972   4.045   2.171  11.144  0.3802  0.0222 -0.1026
   70SLPC  H15A 5973   4.097   2.160  11.050  1.5296 -0.4150  0.5794
   70SLPC  H15B 5974   4.078   2.260  11.196  0.6436 -1.4455  2.3056
   70SLPC  H15C 5975   4.078   2.091  11.208  1.0564 -0.0954 -0.5910
   70SLPC   C12 5976   3.845   2.042  11.076  0.0974  0.5550 -0.3315
   70SLPC  H12A 5977   3.737   2.031  11.068  0.1926 -1.1083  0.4383
   70SLPC  H12B 5978   3.867   1.970  11.153 -1.2809 -0.5926 -0.9870
   70SLPC   C11 5979   3.915   1.975  10.958 -0.0271  0.2571  0.4466
   70SLPC  H11A 5980   3.918   2.059  10.885  0.0026  1.5533  1.9228
   70SLPC  H11B 5981   3.854   1.904  10.898  0.4210  1.3138 -1.2759
   70SLPC     P 5982   4.069   1.775  11.028 -0.5712  0.2106  0.1799
   70SLPC   O13 5983   4.213   1.752  11.059 -0.6811 -0.3877  0.1777
   70SLPC   O14 5984   3.968   1.732  11.130 -0.0532  0.2994 -0.0171
   70SLPC   O12 5985   4.046   1.930  10.990 -0.2057 -0.7817 -0.2052
   70SLPC   O11 5986   4.046   1.695  10.890 -0.2321  0.5461 -0.6589
   70SLPC    C1 5987   4.118   1.725  10.774  0.4238 -0.5752  0.0186
   70SLPC    HA 5988   4.054   1.792  10.712  0.6414 -0.1681  0.2330
   70SLPC    HB 5989   4.210   1.783  10.799  0.6885 -0.8652 -0.2886
   70SLPC    C2 5990   4.165   1.602  10.704 -0.0065 -0.1490 -0.0292
   70SLPC    HS 5991   4.196   1.529  10.782 -0.6880 -1.0283 -0.5690
   70SLPC   O21 5992   4.269   1.633  10.608 -0.0547 -0.2027 -0.3501
   70SLPC   C21 5993   4.336   1.519  10.567  0.4531 -0.1345 -0.6206
   70SLPC   O22 5994   4.331   1.416  10.631  0.0769  0.1352  0.6105
   70SLPC   C22 5995   4.426   1.549  10.454 -0.5360  0.7733 -0.0707
   70SLPC   H2R 5996   4.387   1.641  10.404  0.3508  0.6236 -1.0623
   70SLPC   H2S 5997   4.525   1.564  10.503 -0.7632  1.1006  0.2867
   70SLPC    C3 5998   4.042   1.529  10.630  0.3805  0.5098  0.2414
   70SLPC    HX 5999   3.977   1.511  10.718 -0.7776  2.5903 -0.1452
   70SLPC    HY 6000   4.065   1.426  10.597 -1.4180 -0.0273  0.6279
   70SLPC   O31 6001   3.968   1.610  10.530  0.5010  0.2963 -0.0478
   70SLPC   C31 6002   4.011   1.604  10.401  0.7470  0.2206 -0.2169
   70SLPC   O32 6003   4.092   1.535  10.343  0.8587  0.2217 -0.6179
   70SLPC   C32 6004   3.930   1.711  10.323  1.1574 -0.2326  0.2478
   70SLPC   H2X 6005   3.932   1.810  10.373 -2.6747  0.5154 -0.9611
   70SLPC   H2Y 6006   3.823   1.680  10.324  1.3179 -0.8240 -0.5627
   70SLPC   C23 6007   4.449   1.425  10.358  0.7074 -0.4288 -0.1078
   70SLPC   H3R 6008   4.360   1.361  10.342 -0.4664  1.3942 -1.0699
   70SLPC   H3S 6009   4.532   1.358  10.389  0.4097 -0.8153 -0.1402
   70SLPC   C24 6010   4.471   1.467  10.209  0.2078  0.4933 -0.2232
   70SLPC   H4R 6011   4.546   1.549  10.202 -2.6141  3.2393  0.5268
   70SLPC   H4S 6012   4.382   1.521  10.169  0.1771  0.9638  0.4766
   70SLPC   C25 6013   4.504   1.362  10.105 -0.0192  0.5137 -0.3858
   70SLPC   H5R 6014   4.429   1.280  10.102  1.1290 -0.5333 -1.2793
   70SLPC   H5S 6015   4.600   1.319  10.142 -1.0490 -0.8112  0.8221
   70SLPC   C26 6016   4.506   1.417   9.964 -0.3983 -0.9750  0.4314
   70SLPC   H6R 6017   4.589   1.491   9.959 -1.4011  0.2726  1.7987
   70SLPC   H6S 6018   4.411   1.472   9.943 -0.7694 -2.1217 -0.9721
   70SLPC   C27 6019   4.541   1.316   9.850  0.0726  0.2295 -0.0864
   70SLPC   H7R 6020   4.481   1.223   9.852 -0.4980  0.6091  1.7868
   70SLPC   H7S 6021   4.647   1.283   9.859  0.3137  0.9877 -0.0666
   70SLPC   C28 6022   4.529   1.371   9.711  0.5815 -0.5857  0.6316
   70SLPC   H8R 6023   4.616   1.321   9.664  0.4294  0.4257 -0.7563
   70SLPC   H8S 6024   4.555   1.478   9.694  2.9249 -1.3225 -0.5848
   70SLPC   C29 6025   4.397   1.333   9.647  0.4731  0.1332 -0.0511
   70SLPC   H9R 6026   4.309   1.329   9.711  0.0368 -1.9947 -0.7198
   70SLPC  C210 6027   4.383   1.305   9.520 -0.2054 -0.6877  0.6332
   70SLPC  H10R 6028   4.283   1.268   9.494 -0.1769 -1.3486  1.4367
   70SLPC  C211 6029   4.483   1.306   9.406 -0.1613  0.1800 -0.3840
   70SLPC  H11R 6030   4.452   1.224   9.337 -1.3021 -0.5285  0.9536
   70SLPC  H11S 6031   4.581   1.291   9.456  1.0707  3.4188 -1.7304
   70SLPC  C212 6032   4.507   1.445   9.347  0.6401 -0.7312 -0.2645
   70SLPC  H12R 6033   4.575   1.519   9.392  0.6095 -0.5003 -0.6021
   70SLPC  C213 6034   4.453   1.476   9.226 -0.0472 -0.1989 -0.0179
   70SLPC  H13R 6035   4.469   1.576   9.182  2.6769 -0.9141 -0.7103
   70SLPC  C214 6036   4.368   1.383   9.143  1.0956 -0.8308  0.0748
   70SLPC  H14R 6037   4.277   1.356   9.201  0.4146  1.0892 -0.0679
   70SLPC  H14S 6038   4.426   1.294   9.112  0.1375 -0.8207 -1.8147
   70SLPC  C215 6039   4.336   1.440   8.999  0.7782 -0.2147  0.3074
   70SLPC  H15R 6040   4.419   1.465   8.930 -0.8101 -1.8771 -2.2951
   70SLPC  H15S 6041   4.267   1.525   9.016 -1.0891 -1.4711 -0.8146
   70SLPC  C216 6042   4.252   1.344   8.910  0.0675  0.4256  0.4908
   70SLPC  H16R 6043   4.152   1.329   8.955 -0.6053 -1.6996 -1.5557
   70SLPC  H16S 6044   4.297   1.243   8.901 -1.6843 -0.4480  1.1965
   70SLPC  C217 6045   4.238   1.381   8.762  0.5960 -0.1049 -0.3655
   70SLPC  H17R 6046   4.337   1.402   8.717  1.0125 -0.0620  0.5530
   70SLPC  H17S 6047   4.187   1.478   8.747 -0.3070 -0.6688 -0.9923
   70SLPC  C218 6048   4.172   1.269   8.678 -0.1535  0.3224 -0.2178
   70SLPC  H18R 6049   4.107   1.209   8.745 -0.4672 -0.7913 -1.5073
   70SLPC  H18S 6050   4.253   1.204   8.639 -0.1214  0.7167 -0.8099
   70SLPC  H18T 6051   4.110   1.315   8.598  1.3184  0.5358 -1.2566
   70SLPC   C33 6052   3.977   1.731  10.171  0.0066 -0.4541 -0.2040
   70SLPC   H3X 6053   4.087   1.717  10.165 -0.1498 -1.7032 -0.1712
   70SLPC   H3Y 6054   3.946   1.833  10.140 -1.6152 -0.2982  1.7886
   70SLPC   C34 6055   3.893   1.647  10.076  0.4136  0.3763  0.6263
   70SLPC   H4X 6056   3.788   1.683  10.087  0.3650  0.5954 -0.5363
   70SLPC   H4Y 6057   3.908   1.546  10.119 -0.5811  0.8639  2.1682
   70SLPC   C35 6058   3.943   1.662   9.931  0.0933  0.2216 -1.0070
   70SLPC   H5X 6059   4.054   1.662   9.940 -0.0948  3.1394  2.5229
   70SLPC   H5Y 6060   3.917   1.766   9.900  0.4279  1.1050  1.5573
   70SLPC   C36 6061   3.884   1.558   9.836 -0.0276  0.4997 -0.4278
   70SLPC   H6X 6062   3.774   1.575   9.834 -0.2164 -0.0818  2.4776
   70SLPC   H6Y 6063   3.907   1.452   9.858 -2.9241 -0.0932 -0.1443
   70SLPC   C37 6064   3.921   1.593   9.688  0.1919  0.1172 -0.2766
   70SLPC   H7X 6065   4.027   1.624   9.678 -0.7369  4.2340  1.4587
   70SLPC   H7Y 6066   3.863   1.681   9.652  1.4545  0.8766 -0.4631
   70SLPC   C38 6067   3.886   1.484   9.585 -0.0190 -0.0345  0.8602
   70SLPC   H8X 6068   3.776   1.467   9.578 -0.1571 -0.3645  3.4496
   70SLPC   H8Y 6069   3.926   1.387   9.621 -1.4710 -0.5867  1.0195
   70SLPC   C39 6070   3.942   1.513   9.446  0.3289 -1.4067  0.9041
   70SLPC   H9X 6071   4.052   1.502   9.454  0.6560 -0.8437 -2.0678
   70SLPC   H9Y 6072   3.932   1.622   9.426 -0.1523 -1.5506  0.3447
   70SLPC  C310 6073   3.883   1.431   9.337  0.6453 -0.0546 -0.5927
   70SLPC  H10X 6074   3.773   1.449   9.344  0.4108 -1.3508 -0.9073
   70SLPC  H10Y 6075   3.903   1.324   9.362  0.2425  0.2646  1.2148
   70SLPC  C311 6076   3.927   1.460   9.199  0.3697  0.6361 -0.0809
   70SLPC  H11X 6077   4.034   1.436   9.178  0.3832  0.5405  0.0951
   70SLPC  H11Y 6078   3.920   1.566   9.167 -0.8422  0.3509 -0.7822
   70SLPC  C312 6079   3.837   1.377   9.106 -0.8683 -0.4333  0.0878
   70SLPC  H12X 6080   3.731   1.384   9.138 -1.0915  0.9928 -0.9115
   70SLPC  H12Y 6081   3.863   1.269   9.117 -1.0912 -0.3528  1.5079
   70SLPC  C313 6082   3.856   1.408   8.956 -0.1004 -0.5134 -0.2909
   70SLPC  H13X 6083   3.948   1.363   8.911  0.1512 -1.8846  1.5347
   70SLPC  H13Y 6084   3.861   1.516   8.930  0.3442 -0.8249 -1.5346
   70SLPC  C314 6085   3.737   1.361   8.868  0.4933 -0.3016  0.5992
   70SLPC  H14X 6086   3.647   1.423   8.889  0.3293 -0.3046 -0.0802
   70SLPC  H14Y 6087   3.725   1.252   8.887  0.8669 -0.8876 -2.2869
   70SLPC  C315 6088   3.775   1.379   8.717 -0.0043  0.5287  0.3196
   70SLPC  H15X 6089   3.869   1.323   8.698  0.8510  2.0352 -0.0443
   70SLPC  H15Y 6090   3.781   1.486   8.686 -1.9141  0.0920 -1.6040
   70SLPC  C316 6091   3.667   1.319   8.624  0.1567 -0.0245  0.0177
   70SLPC  H16X 6092   3.679   1.354   8.519  0.1152  2.2975  0.7435
   70SLPC  H16Y 6093   3.566   1.359   8.648 -0.4582 -0.3022 -2.0359
   70SLPC  C317 6094   3.641   1.168   8.641 -0.1402  0.1598  0.4813
   70SLPC  H17X 6095   3.624   1.154   8.750  0.0900  1.5809  0.7098
   70SLPC  H17Y 6096   3.735   1.113   8.623  0.6898  1.1911  1.5629
   70SLPC  C318 6097   3.517   1.117   8.562  0.1888 -0.4559 -0.5099
   70SLPC  H18X 6098   3.547   1.113   8.455 -0.5689 -0.7884 -0.7121
   70SLPC  H18Y 6099   3.427   1.180   8.577 -0.4967 -1.6270  0.4960
   70SLPC  H18Z 6100   3.497   1.011   8.589 -1.4267 -0.0634 -0.1361
   71SLPC     N 6101   3.599   6.306  10.799 -0.6543 -0.2957 -0.1256
   71SLPC   C13 6102   3.483   6.368  10.729  0.1355  0.9040  0.6840
   71SLPC  H13A 6103   3.402   6.301  10.704  0.4023  0.9061 -0.2105
   71SLPC  H13B 6104   3.446   6.455  10.781 -3.0469 -1.5939  2.8219
   71SLPC  H13C 6105   3.522   6.400  10.634 -0.5639  0.0301  0.0965
   71SLPC   C14 6106   3.654   6.207  10.696  0.4574 -0.3281  0.1805
   71SLPC  H14A 6107   3.572   6.150  10.656 -0.1249 -0.0991  1.0282
   71SLPC  H14B 6108   3.707   6.253  10.613  0.2517 -1.4266 -0.5693
   71SLPC  H14C 6109   3.719   6.138  10.748 -0.4588 -1.2435  0.1075
   71SLPC   C15 6110   3.558   6.234  10.928 -0.2260  0.3032  1.2356
   71SLPC  H15A 6111   3.640   6.178  10.971 -0.1700 -0.6118 -0.0451
   71SLPC  H15B 6112   3.518   6.303  11.001  1.2147  1.7114  0.7137
   71SLPC  H15C 6113   3.473   6.169  10.918  1.3897 -2.2830  3.5214
   71SLPC   C12 6114   3.697   6.419  10.839  0.1038  0.3744 -0.4798
   71SLPC  H12A 6115   3.757   6.450  10.755  0.3915 -0.6600 -0.6572
   71SLPC  H12B 6116   3.771   6.372  10.901 -1.3173 -2.0403 -0.5693
   71SLPC   C11 6117   3.644   6.552  10.907  0.5197 -0.4682 -0.1707
   71SLPC  H11A 6118   3.719   6.611  10.963 -1.1282  1.2808  0.2331
   71SLPC  H11B 6119   3.573   6.520  10.986 -0.7155 -0.5643 -1.3051
   71SLPC     P 6120   3.624   6.737  10.715  0.0300 -0.3190 -0.3258
   71SLPC   O13 6121   3.528   6.773  10.609 -0.3561 -0.0549  0.0147
   71SLPC   O14 6122   3.676   6.851  10.788 -0.1703 -0.0719 -0.5791
   71SLPC   O12 6123   3.557   6.635  10.817  0.3203  0.1072  0.2317
   71SLPC   O11 6124   3.747   6.653  10.666  0.5072  0.3439 -0.1218
   71SLPC    C1 6125   3.875   6.712  10.630 -0.2533 -0.7582 -0.3342
   71SLPC    HA 6126   3.912   6.778  10.711 -0.4300 -0.4820 -0.4768
   71SLPC    HB 6127   3.953   6.633  10.629 -0.8556 -1.3583 -0.3044
   71SLPC    C2 6128   3.877   6.761  10.483 -0.3459 -0.4957 -0.1756
   71SLPC    HS 6129   3.803   6.843  10.478  0.9361  0.9175  2.4822
   71SLPC   O21 6130   3.853   6.638  10.405  0.5784  0.4189  0.2715
   71SLPC   C21 6131   3.790   6.665  10.293 -0.2525 -0.2351 -0.0711
   71SLPC   O22 6132   3.744   6.775  10.271 -0.2774 -0.2637 -0.5231
   71SLPC   C22 6133   3.784   6.547  10.202 -0.7045 -0.2690  0.4276
   71SLPC   H2R 6134   3.884   6.534  10.156 -0.1849  1.4600  1.0218
   71SLPC   H2S 6135   3.760   6.460  10.267 -2.4202  0.5160  0.8682
   71SLPC    C3 6136   4.015   6.827  10.448 -0.3256 -0.1897 -0.1175
   71SLPC    HX 6137   4.091   6.752  10.478 -0.3366 -0.7177 -1.3680
   71SLPC    HY 6138   4.027   6.911  10.519  1.8818 -0.5365 -0.0486
   71SLPC   O31 6139   4.042   6.863  10.310 -0.3021  0.0626 -0.2398
   71SLPC   C31 6140   4.010   6.978  10.273 -0.5974 -0.6877  0.0786
   71SLPC   O32 6141   3.949   7.062  10.338  0.4673  0.1849  0.5710
   71SLPC   C32 6142   4.060   6.999  10.128 -0.0542 -0.8087 -0.0678
   71SLPC   H2X 6143   4.171   7.000  10.123 -0.1221 -0.3424 -1.4759
   71SLPC   H2Y 6144   4.015   7.099  10.116  1.0185 -0.2499  0.4542
   71SLPC   C23 6145   3.678   6.560  10.097  0.4225  0.4103  0.1181
   71SLPC   H3R 6146   3.705   6.640  10.024  0.6074 -0.7737 -1.1325
   71SLPC   H3S 6147   3.586   6.597  10.147 -0.5611  0.4156 -1.6498
   71SLPC   C24 6148   3.626   6.431  10.036 -0.2235 -0.0128 -0.0852
   71SLPC   H4R 6149   3.588   6.366  10.118  0.4469  1.5447  1.4745
   71SLPC   H4S 6150   3.709   6.366  10.001  0.2375  0.9041 -0.7068
   71SLPC   C25 6151   3.522   6.450   9.928 -0.9231 -0.3417  0.1955
   71SLPC   H5R 6152   3.422   6.472   9.971  0.0711 -0.3647  2.6371
   71SLPC   H5S 6153   3.509   6.342   9.906 -0.2183 -0.7762  1.8493
   71SLPC   C26 6154   3.571   6.537   9.811 -0.1395 -0.0560  0.0748
   71SLPC   H6R 6155   3.670   6.499   9.779 -0.3925  1.3331 -2.5025
   71SLPC   H6S 6156   3.586   6.641   9.848  1.5816 -0.4043  0.3932
   71SLPC   C27 6157   3.480   6.536   9.682  0.2617 -0.6942  0.1491
   71SLPC   H7R 6158   3.383   6.585   9.706  1.0889  1.4980 -0.8660
   71SLPC   H7S 6159   3.453   6.431   9.658  0.6664 -0.6693 -0.4073
   71SLPC   C28 6160   3.546   6.607   9.561 -0.4070  0.1017  0.4147
   71SLPC   H8R 6161   3.649   6.566   9.558 -0.6346 -0.6336  1.9283
   71SLPC   H8S 6162   3.563   6.715   9.580 -0.0096  0.4854 -1.9503
   71SLPC   C29 6163   3.453   6.596   9.439 -0.0117  0.5621  0.1742
   71SLPC   H9R 6164   3.359   6.651   9.451 -1.1709 -1.6299  1.3077
   71SLPC  C210 6165   3.480   6.544   9.318 -0.5110 -0.1120  0.0105
   71SLPC  H10R 6166   3.402   6.549   9.240 -0.2880 -1.8837 -0.3481
   71SLPC  C211 6167   3.607   6.490   9.269 -0.1847  0.0518  0.1178
   71SLPC  H11R 6168   3.617   6.389   9.315 -1.9017 -0.5181 -0.7298
   71SLPC  H11S 6169   3.700   6.539   9.304 -0.1810  1.3750 -1.7096
   71SLPC  C212 6170   3.619   6.497   9.118  0.3757  0.3992  0.9512
   71SLPC  H12R 6171   3.622   6.601   9.083  0.7952  0.5162  1.3391
   71SLPC  C213 6172   3.587   6.399   9.034  0.0717 -0.0356  0.5354
   71SLPC  H13R 6173   3.598   6.418   8.926 -0.9284 -2.0467  0.0608
   71SLPC  C214 6174   3.530   6.264   9.069 -0.1127  0.7125 -0.1220
   71SLPC  H14R 6175   3.421   6.275   9.090  0.0018  2.0875 -0.1628
   71SLPC  H14S 6176   3.566   6.230   9.168  0.7303  3.0568  0.4092
   71SLPC  C215 6177   3.547   6.153   8.962  1.2412 -0.2673  0.5829
   71SLPC  H15R 6178   3.515   6.056   9.007 -1.3314 -0.0516 -0.7180
   71SLPC  H15S 6179   3.653   6.144   8.931  1.2718  3.3554 -0.4768
   71SLPC  C216 6180   3.467   6.178   8.832 -0.2298  0.1536  0.5332
   71SLPC  H16R 6181   3.508   6.264   8.775  1.9803 -1.2473 -0.0471
   71SLPC  H16S 6182   3.365   6.212   8.861 -1.8059 -3.4122 -0.4936
   71SLPC  C217 6183   3.438   6.053   8.739 -0.1705  0.3773  0.2949
   71SLPC  H17R 6184   3.370   5.994   8.804  1.4961 -0.4679  1.3130
   71SLPC  H17S 6185   3.536   6.002   8.723 -1.8379 -2.3566 -1.7326
   71SLPC  C218 6186   3.385   6.103   8.606  1.1244 -0.0588 -0.2738
   71SLPC  H18R 6187   3.469   6.146   8.546  1.0131  1.0146  0.3291
   71SLPC  H18S 6188   3.308   6.181   8.618  2.3999  1.1241  0.2714
   71SLPC  H18T 6189   3.352   6.020   8.540  1.1209  0.1715 -0.5633
   71SLPC   C33 6190   4.008   6.898  10.028 -0.7872 -0.3658  0.4377
   71SLPC   H3X 6191   3.898   6.903  10.033 -0.8137  1.9836 -1.5259
   71SLPC   H3Y 6192   4.052   6.800  10.055  0.8493  0.1099 -0.4193
   71SLPC   C34 6193   4.036   6.924   9.887 -0.2696  0.2001  0.1728
   71SLPC   H4X 6194   4.145   6.924   9.866  0.1151 -2.2806  1.9538
   71SLPC   H4Y 6195   4.005   7.026   9.857 -0.9424 -0.3683 -1.1127
   71SLPC   C35 6196   3.965   6.829   9.788 -0.3121  0.4298  0.0726
   71SLPC   H5X 6197   3.860   6.847   9.821  0.6246  2.6667  1.9301
   71SLPC   H5Y 6198   3.990   6.723   9.812  2.4333  0.1928 -3.3851
   71SLPC   C36 6199   3.977   6.856   9.639  0.4277 -0.5418  0.5343
   71SLPC   H6X 6200   3.949   6.962   9.620 -0.3650 -1.2694 -2.7108
   71SLPC   H6Y 6201   3.901   6.796   9.585  1.6792 -0.6594 -1.1430
   71SLPC   C37 6202   4.123   6.853   9.587  0.5513  0.5566 -0.1838
   71SLPC   H7X 6203   4.176   6.756   9.601  0.3723 -0.1089 -3.7114
   71SLPC   H7Y 6204   4.169   6.935   9.646  0.7875  0.8479 -0.7745
   71SLPC   C38 6205   4.118   6.885   9.438  0.4123 -0.4591 -0.5345
   71SLPC   H8X 6206   4.214   6.929   9.404 -0.2624  1.0463 -0.5470
   71SLPC   H8Y 6207   4.064   6.980   9.419  1.1671  0.1100  0.1707
   71SLPC   C39 6208   4.068   6.782   9.337  0.8827 -0.0196 -0.7187
   71SLPC   H9X 6209   3.958   6.790   9.337  0.9031  0.2626 -0.0935
   71SLPC   H9Y 6210   4.091   6.679   9.371 -0.8057 -0.1443  0.0566
   71SLPC  C310 6211   4.128   6.813   9.197 -0.2487  0.3552  0.0318
   71SLPC  H10X 6212   4.234   6.830   9.223  0.0040  1.6290 -1.7374
   71SLPC  H10Y 6213   4.075   6.904   9.162 -4.1998 -2.0387 -0.5366
   71SLPC  C311 6214   4.107   6.702   9.092  0.2238  0.0134 -0.2083
   71SLPC  H11X 6215   4.122   6.605   9.142  0.8355  0.1019 -0.2109
   71SLPC  H11Y 6216   4.186   6.710   9.013 -0.6289  0.6959 -1.0074
   71SLPC  C312 6217   3.965   6.697   9.040  0.2467  0.4545 -0.0624
   71SLPC  H12X 6218   3.934   6.802   9.021  2.6029  1.3650  0.8573
   71SLPC  H12Y 6219   3.900   6.653   9.119  0.8705 -2.7359 -1.2255
   71SLPC  C313 6220   3.953   6.621   8.901 -0.5295 -0.4392 -0.5193
   71SLPC  H13X 6221   4.019   6.657   8.818 -1.3333  1.3147 -0.4062
   71SLPC  H13Y 6222   3.848   6.643   8.872 -0.7447 -1.8582 -0.8649
   71SLPC  C314 6223   3.969   6.468   8.921 -0.2591 -0.3417 -0.6583
   71SLPC  H14X 6224   3.927   6.447   9.022  1.5434 -1.9098 -0.2078
   71SLPC  H14Y 6225   4.080   6.461   8.926 -0.0484  2.5171 -0.7876
   71SLPC  C315 6226   3.889   6.386   8.821  0.0666 -0.1166 -1.0886
   71SLPC  H15X 6227   3.783   6.421   8.823 -0.2181 -0.8899 -2.2427
   71SLPC  H15Y 6228   3.898   6.282   8.860  3.8360  0.4592 -0.2527
   71SLPC  C316 6229   3.942   6.387   8.676  0.7296 -0.5191  0.0798
   71SLPC  H16X 6230   4.047   6.350   8.679  0.0532 -2.3922  1.6313
   71SLPC  H16Y 6231   3.933   6.484   8.624  0.4130 -1.7263 -2.2188
   71SLPC  C317 6232   3.875   6.280   8.583  0.2252 -0.5697 -0.6047
   71SLPC  H17X 6233   3.766   6.300   8.585  0.1178 -0.7137 -3.0970
   71SLPC  H17Y 6234   3.892   6.175   8.613 -0.2841 -0.8231 -1.1748
   71SLPC  C318 6235   3.927   6.294   8.438 -0.2898  0.4139  0.7919
   71SLPC  H18X 6236   3.856   6.229   8.382  3.9072 -1.9471 -2.1118
   71SLPC  H18Y 6237   4.033   6.259   8.438 -0.4507 -0.1065  2.0831
   71SLPC  H18Z 6238   3.913   6.398   8.401 -0.0822 -0.1767 -1.0291
   72SLPC     N 6239   5.073   5.531  11.025  0.2228  0.2239 -0.6291
   72SLPC   C13 6240   5.099   5.672  10.979 -0.2032  0.0057  0.6083
   72SLPC  H13A 6241   5.159   5.660  10.890 -0.5563 -2.9643  0.7213
   72SLPC  H13B 6242   5.006   5.720  10.950  0.4694  0.1620 -1.3515
   72SLPC  H13C 6243   5.163   5.725  11.048  0.5369 -0.3925  0.2382
   72SLPC   C14 6244   4.996   5.527  11.160  1.1770  1.0679  0.4762
   72SLPC  H14A 6245   5.048   5.557  11.250  1.2892 -1.3871  1.2607
   72SLPC  H14B 6246   4.902   5.579  11.152  0.0730 -0.8316  0.8478
   72SLPC  H14C 6247   4.957   5.427  11.170 -0.4277  1.6320 -0.0386
   72SLPC   C15 6248   5.207   5.464  11.048 -0.2625 -1.0805  0.0102
   72SLPC  H15A 6249   5.278   5.498  10.973 -2.2410  2.2787 -0.4256
   72SLPC  H15B 6250   5.259   5.515  11.128  1.4437 -0.9099 -1.1642
   72SLPC  H15C 6251   5.206   5.357  11.061  1.3243 -1.1284 -0.1106
   72SLPC   C12 6252   4.987   5.449  10.927  0.4478  0.1090  0.0374
   72SLPC  H12A 6253   4.883   5.475  10.938  0.5285 -0.0548  1.2398
   72SLPC  H12B 6254   5.004   5.347  10.959  0.0130  0.0410  0.0573
   72SLPC   C11 6255   5.020   5.453  10.772  0.1652 -0.2321 -0.1043
   72SLPC  H11A 6256   5.028   5.562  10.750 -2.7719 -0.2634 -1.6366
   72SLPC  H11B 6257   4.936   5.411  10.712  2.0335 -1.6513 -1.7800
   72SLPC     P 6258   5.138   5.222  10.745  0.0947 -0.1255 -0.1540
   72SLPC   O13 6259   5.258   5.177  10.670  0.0252  0.5319  0.9621
   72SLPC   O14 6260   5.117   5.172  10.883  0.4102  0.2822  0.1044
   72SLPC   O12 6261   5.139   5.382  10.753 -0.2071 -0.0594  0.5015
   72SLPC   O11 6262   5.009   5.181  10.653 -0.3059  0.7148 -1.0039
   72SLPC    C1 6263   5.021   5.222  10.514 -0.0334  1.0532 -0.1393
   72SLPC    HA 6264   5.022   5.333  10.509  0.8404  1.0457 -0.2858
   72SLPC    HB 6265   5.111   5.177  10.468 -0.1961  0.1467  0.4161
   72SLPC    C2 6266   4.900   5.176  10.426  0.0104 -0.7863 -0.1109
   72SLPC    HS 6267   4.814   5.212  10.488  0.5221  0.9154 -0.3779
   72SLPC   O21 6268   4.903   5.033  10.426  0.0153 -0.2770  0.2139
   72SLPC   C21 6269   4.785   4.979  10.429  0.0452 -0.2210  0.3833
   72SLPC   O22 6270   4.679   5.034  10.443  0.4904 -0.5011  0.0738
   72SLPC   C22 6271   4.796   4.829  10.411 -0.2213  0.6190 -0.7319
   72SLPC   H2R 6272   4.829   4.787  10.508  1.5630 -0.9167 -1.9810
   72SLPC   H2S 6273   4.694   4.788  10.396  0.3905 -0.3260 -2.4226
   72SLPC    C3 6274   4.901   5.240  10.282  0.1669  0.2805 -0.2376
   72SLPC    HX 6275   4.993   5.209  10.229  0.5381  2.4619 -0.9338
   72SLPC    HY 6276   4.906   5.351  10.282 -1.6307  0.3909 -1.4790
   72SLPC   O31 6277   4.791   5.206  10.202  0.0248 -0.8490 -0.0724
   72SLPC   C31 6278   4.687   5.274  10.238  0.2570  0.2784  0.2659
   72SLPC   O32 6279   4.672   5.352  10.331  0.0129 -0.4498 -0.4174
   72SLPC   C32 6280   4.567   5.246  10.149  0.5626  1.1656 -0.5633
   72SLPC   H2X 6281   4.519   5.344  10.129 -1.1514  0.4485 -0.0188
   72SLPC   H2Y 6282   4.501   5.195  10.223  2.3651 -1.4959 -0.6973
   72SLPC   C23 6283   4.898   4.793  10.302 -0.7637 -0.4761 -0.2671
   72SLPC   H3R 6284   4.910   4.683  10.308 -1.1329 -0.6426 -2.1637
   72SLPC   H3S 6285   5.000   4.832  10.321 -1.2084  0.6714 -0.2166
   72SLPC   C24 6286   4.839   4.826  10.167 -0.3791  0.3019 -0.0622
   72SLPC   H4R 6287   4.839   4.935  10.142 -0.7258  0.8748  2.3510
   72SLPC   H4S 6288   4.736   4.786  10.170 -0.2230 -0.1619 -0.7752
   72SLPC   C25 6289   4.918   4.771  10.049 -0.1124 -0.5220 -1.0845
   72SLPC   H5R 6290   4.873   4.808   9.954  2.8664  3.7145 -1.0228
   72SLPC   H5S 6291   4.897   4.662  10.048  1.0830 -0.7908  0.6309
   72SLPC   C26 6292   5.074   4.802  10.056  0.2621  0.0250 -0.1526
   72SLPC   H6R 6293   5.110   4.752   9.963  0.2881  0.3737 -0.3330
   72SLPC   H6S 6294   5.117   4.757  10.148 -0.3364  0.4534  0.3349
   72SLPC   C27 6295   5.112   4.948  10.046  0.2444  0.5489 -0.0551
   72SLPC   H7R 6296   5.138   4.990  10.145  2.5712 -1.1843  0.0994
   72SLPC   H7S 6297   5.020   5.004  10.017 -0.6674  0.4185  2.4447
   72SLPC   C28 6298   5.230   4.984   9.951 -0.1193  0.8710 -1.2090
   72SLPC   H8R 6299   5.192   4.958   9.850 -1.1539  0.8348 -0.8177
   72SLPC   H8S 6300   5.324   4.927   9.967 -1.5194 -1.1133  0.2220
   72SLPC   C29 6301   5.247   5.133   9.951  0.1517  0.2454 -0.3775
   72SLPC   H9R 6302   5.199   5.186  10.034 -1.0054  1.1597 -1.5954
   72SLPC  C210 6303   5.320   5.200   9.861  0.2479  0.5348 -0.3363
   72SLPC  H10R 6304   5.334   5.308   9.879  2.3796  0.0839  0.9119
   72SLPC  C211 6305   5.393   5.155   9.738 -0.0335 -0.3237  0.9287
   72SLPC  H11R 6306   5.318   5.149   9.656  0.6940  1.8284  0.0861
   72SLPC  H11S 6307   5.432   5.054   9.764  0.7034  0.3851  2.6890
   72SLPC  C212 6308   5.501   5.249   9.690  0.6948 -0.0782  0.4867
   72SLPC  H12R 6309   5.502   5.342   9.748  0.1257  0.2251  0.0091
   72SLPC  C213 6310   5.601   5.233   9.603  0.3078  0.0631  1.0912
   72SLPC  H13R 6311   5.672   5.316   9.588  0.3244 -0.1015  0.2431
   72SLPC  C214 6312   5.635   5.103   9.530  0.1134 -0.1888 -0.4243
   72SLPC  H14R 6313   5.561   5.025   9.559  1.3998 -0.8536  1.1446
   72SLPC  H14S 6314   5.736   5.063   9.553  0.1784  0.8002  1.0634
   72SLPC  C215 6315   5.627   5.110   9.371 -0.9159  0.3101 -0.6575
   72SLPC  H15R 6316   5.536   5.159   9.332 -0.3494  0.8825 -1.2673
   72SLPC  H15S 6317   5.621   5.004   9.340 -1.6029 -0.6728  2.6023
   72SLPC  C216 6318   5.758   5.174   9.315 -0.9606  0.8657  0.4056
   72SLPC  H16R 6319   5.840   5.130   9.375 -0.8405 -1.3657 -1.3114
   72SLPC  H16S 6320   5.767   5.277   9.354  0.9238  0.2110  1.7881
   72SLPC  C217 6321   5.766   5.167   9.158  0.7509  0.6085 -0.0562
   72SLPC  H17R 6322   5.746   5.062   9.129  0.0722  0.3757  1.1989
   72SLPC  H17S 6323   5.871   5.196   9.136  1.1077 -0.2693  0.4786
   72SLPC  C218 6324   5.673   5.260   9.075  0.7078  0.4349  0.2585
   72SLPC  H18R 6325   5.714   5.277   8.973 -0.2158 -2.0465 -0.5441
   72SLPC  H18S 6326   5.664   5.358   9.127 -0.7714  1.3467 -1.6507
   72SLPC  H18T 6327   5.569   5.224   9.062  0.5756  0.6739  0.6254
   72SLPC   C33 6328   4.581   5.164  10.020 -0.0696  0.3865  0.0015
   72SLPC   H3X 6329   4.487   5.133   9.970  0.6992 -2.4715  0.2218
   72SLPC   H3Y 6330   4.635   5.076  10.062  0.8105  0.7470 -0.3627
   72SLPC   C34 6331   4.676   5.231   9.918  0.0663 -0.6542 -0.1069
   72SLPC   H4X 6332   4.697   5.160   9.835  1.5640 -0.7643  0.3526
   72SLPC   H4Y 6333   4.772   5.253   9.968 -0.2763 -1.2212  0.8149
   72SLPC   C35 6334   4.600   5.351   9.857 -0.0554  0.2828  0.0329
   72SLPC   H5X 6335   4.598   5.437   9.928 -1.7786  0.4886 -0.2356
   72SLPC   H5Y 6336   4.495   5.327   9.832  0.0237 -0.5511  0.4968
   72SLPC   C36 6337   4.668   5.392   9.724 -0.4590 -0.1581  0.6835
   72SLPC   H6X 6338   4.595   5.451   9.666 -0.9286 -1.1498  0.2632
   72SLPC   H6Y 6339   4.687   5.297   9.669 -1.2397 -1.1414  2.0563
   72SLPC   C37 6340   4.800   5.469   9.732 -0.1509 -0.3165  0.5074
   72SLPC   H7X 6341   4.881   5.434   9.799 -0.2835 -0.0336  0.8137
   72SLPC   H7Y 6342   4.779   5.574   9.762 -2.3079 -0.8183  0.8304
   72SLPC   C38 6343   4.872   5.477   9.596  0.3834 -0.5451  0.5908
   72SLPC   H8X 6344   4.877   5.383   9.537  0.4223 -0.3740  0.3171
   72SLPC   H8Y 6345   4.979   5.506   9.606  0.4527 -0.6466  0.1607
   72SLPC   C39 6346   4.810   5.593   9.513 -0.1807 -0.9340 -0.1964
   72SLPC   H9X 6347   4.801   5.696   9.555  0.5141 -0.5869 -0.8686
   72SLPC   H9Y 6348   4.707   5.556   9.495 -0.7307  0.6036 -0.3176
   72SLPC  C310 6349   4.862   5.627   9.371 -0.5643  0.1189  0.8820
   72SLPC  H10X 6350   4.968   5.654   9.389 -0.3326 -0.6200  0.6568
   72SLPC  H10Y 6351   4.818   5.720   9.329  1.4571  0.7788  0.1855
   72SLPC  C311 6352   4.854   5.509   9.273  0.1502  0.2294 -0.0157
   72SLPC  H11X 6353   4.747   5.484   9.253 -0.0047  2.7943 -2.8238
   72SLPC  H11Y 6354   4.923   5.432   9.314  0.9967  1.0043  0.0264
   72SLPC  C312 6355   4.921   5.546   9.134 -0.2727  0.0510  0.3841
   72SLPC  H12X 6356   5.030   5.557   9.151 -0.4790  1.9319  0.5919
   72SLPC  H12Y 6357   4.885   5.640   9.087  1.5156  1.5172  1.8608
   72SLPC  C313 6358   4.910   5.421   9.045  0.5096 -0.3964 -0.0572
   72SLPC  H13X 6359   4.800   5.401   9.049  0.3108  0.7732  0.7576
   72SLPC  H13Y 6360   4.962   5.336   9.093  0.4405  1.5367  3.6096
   72SLPC  C314 6361   4.935   5.444   8.899  0.2812 -0.0147  0.0699
   72SLPC  H14X 6362   4.910   5.548   8.867 -0.6874 -0.1790  0.3029
   72SLPC  H14Y 6363   4.880   5.361   8.850 -0.2827 -0.1312  0.8965
   72SLPC  C315 6364   5.091   5.423   8.868 -0.4910  0.5238 -0.9002
   72SLPC  H15X 6365   5.120   5.322   8.903  3.2928  2.0909  0.8177
   72SLPC  H15Y 6366   5.143   5.506   8.921 -0.2356 -1.7902  2.5792
   72SLPC  C316 6367   5.118   5.449   8.721  0.0753 -0.0768 -0.2805
   72SLPC  H16X 6368   5.172   5.545   8.706  0.6777 -0.5652 -1.2521
   72SLPC  H16Y 6369   5.021   5.462   8.670 -1.4425 -0.8719  2.2898
   72SLPC  C317 6370   5.187   5.331   8.646  0.1704 -0.7121 -0.2387
   72SLPC  H17X 6371   5.283   5.309   8.697  1.3720  1.9410 -1.2316
   72SLPC  H17Y 6372   5.191   5.375   8.544 -2.4142  2.8778  1.0726
   72SLPC  C318 6373   5.105   5.203   8.649 -0.4079  0.5630  0.0966
   72SLPC  H18X 6374   5.135   5.135   8.731 -0.3312  0.9987  0.4287
   72SLPC  H18Y 6375   5.126   5.153   8.552  0.4571  3.9191 -1.5418
   72SLPC  H18Z 6376   4.995   5.214   8.660 -0.2035  1.2556  1.5630
   73SLPC     N 6377   5.266   4.050  10.862 -0.3008 -0.4061  0.4913
   73SLPC   C13 6378   5.397   3.977  10.875  0.0692  0.2623  0.1691
   73SLPC  H13A 6379   5.455   4.005  10.789 -0.6508  3.5363  0.6723
   73SLPC  H13B 6380   5.446   4.005  10.967 -1.3167  0.2300  0.9440
   73SLPC  H13C 6381   5.385   3.870  10.876  0.4983  0.1397 -2.8059
   73SLPC   C14 6382   5.208   4.016  10.729  0.1071  0.5142 -0.2430
   73SLPC  H14A 6383   5.157   3.921  10.733  1.5173 -0.2629 -0.7187
   73SLPC  H14B 6384   5.145   4.100  10.705  0.0220  0.2690 -0.8739
   73SLPC  H14C 6385   5.284   4.023  10.654 -0.5606 -0.9720 -1.0744
   73SLPC   C15 6386   5.294   4.200  10.857  0.1158  0.3833 -0.1967
   73SLPC  H15A 6387   5.346   4.224  10.765 -0.9572  2.8692 -0.1867
   73SLPC  H15B 6388   5.202   4.255  10.853  0.3898  0.7755 -1.5799
   73SLPC  H15C 6389   5.361   4.232  10.935  0.8880 -1.4839 -0.0640
   73SLPC   C12 6390   5.177   4.018  10.978  0.0870 -0.2263  0.0458
   73SLPC  H12A 6391   5.085   4.073  10.960  0.3086  0.2591  0.3776
   73SLPC  H12B 6392   5.218   4.040  11.076 -1.4936 -1.1393  0.9486
   73SLPC   C11 6393   5.128   3.870  11.001  0.1131 -0.7804 -0.1313
   73SLPC  H11A 6394   5.091   3.863  11.105  0.1688 -1.3785 -0.1516
   73SLPC  H11B 6395   5.224   3.813  11.000  1.9557  2.2003  0.9640
   73SLPC     P 6396   4.896   3.874  10.889 -0.4183 -0.3132 -0.8736
   73SLPC   O13 6397   4.834   3.827  11.013 -0.2941 -0.0419  0.0035
   73SLPC   O14 6398   4.900   4.020  10.862 -0.6541  0.4831  0.0714
   73SLPC   O12 6399   5.050   3.830  10.892  0.3202  0.1488  0.2880
   73SLPC   O11 6400   4.837   3.807  10.758 -0.1563  0.1488 -0.3796
   73SLPC    C1 6401   4.864   3.872  10.636 -0.3501  0.0620  1.1092
   73SLPC    HA 6402   4.801   3.961  10.615  1.1440  0.6907 -0.7676
   73SLPC    HB 6403   4.971   3.903  10.634  0.0029 -1.1909 -0.3834
   73SLPC    C2 6404   4.858   3.778  10.508  0.0666  0.5118  0.1573
   73SLPC    HS 6405   4.929   3.829  10.438  3.3328 -0.3703  2.6901
   73SLPC   O21 6406   4.732   3.752  10.453 -0.2179 -0.2269  0.2756
   73SLPC   C21 6407   4.670   3.851  10.388 -0.1679  0.4061 -0.2268
   73SLPC   O22 6408   4.717   3.962  10.376  0.5872 -0.1339 -0.5101
   73SLPC   C22 6409   4.524   3.822  10.345  0.5303  0.4654  0.0104
   73SLPC   H2R 6410   4.495   3.763  10.434  0.1719 -1.3433 -1.2814
   73SLPC   H2S 6411   4.461   3.914  10.343  1.5958  1.1964 -2.3929
   73SLPC    C3 6412   4.923   3.636  10.521 -0.2188 -0.1390  0.4661
   73SLPC    HX 6413   4.852   3.580  10.586 -1.4960  1.1487  0.1985
   73SLPC    HY 6414   5.022   3.643  10.570  0.7074 -1.4481 -1.1482
   73SLPC   O31 6415   4.940   3.561  10.397  0.5146  0.0839  0.9541
   73SLPC   C31 6416   5.061   3.502  10.368 -0.9561 -0.5149  0.1115
   73SLPC   O32 6417   5.160   3.518  10.436 -0.4103 -0.2012 -0.3278
   73SLPC   C32 6418   5.049   3.419  10.243 -0.0463 -0.5054  0.5125
   73SLPC   H2X 6419   4.979   3.476  10.178  0.8247  2.5980  2.2257
   73SLPC   H2Y 6420   5.005   3.319  10.264 -0.6071  0.1112  2.3188
   73SLPC   C23 6421   4.521   3.722  10.223 -0.1357  0.6347  0.3224
   73SLPC   H3R 6422   4.415   3.690  10.211 -0.2276  1.4362 -1.0735
   73SLPC   H3S 6423   4.582   3.631  10.244  1.2189  1.2492 -0.8309
   73SLPC   C24 6424   4.575   3.797  10.095  0.3568  0.8465 -0.1390
   73SLPC   H4R 6425   4.547   3.728  10.012  1.2247  0.9269 -0.5058
   73SLPC   H4S 6426   4.686   3.796  10.102  0.4047 -2.3680 -0.5585
   73SLPC   C25 6427   4.529   3.947  10.074 -0.1613  0.5774  0.1265
   73SLPC   H5R 6428   4.570   4.017  10.150  0.2408  2.0007 -1.3671
   73SLPC   H5S 6429   4.420   3.938  10.092 -0.0521 -2.3644 -0.4722
   73SLPC   C26 6430   4.575   3.999   9.939 -0.0367 -0.0349  0.1801
   73SLPC   H6R 6431   4.676   3.958   9.917 -0.9213 -0.6062 -2.9694
   73SLPC   H6S 6432   4.580   4.109   9.953 -3.9223  0.1350  0.7622
   73SLPC   C27 6433   4.480   3.967   9.825  0.3559 -0.0250  0.4570
   73SLPC   H7R 6434   4.375   3.970   9.862  0.2053 -1.3771  0.1482
   73SLPC   H7S 6435   4.489   3.860   9.799 -1.2483 -0.7024  2.5618
   73SLPC   C28 6436   4.502   4.036   9.684  0.1358 -0.2080  0.5319
   73SLPC   H8R 6437   4.480   4.144   9.671 -1.8828 -0.9199 -2.4668
   73SLPC   H8S 6438   4.430   3.987   9.614  0.4072  0.6988 -0.3902
   73SLPC   C29 6439   4.643   4.016   9.637 -0.5474  0.1568  0.5508
   73SLPC   H9R 6440   4.716   4.088   9.677  1.7019 -1.3817 -0.6775
   73SLPC  C210 6441   4.694   3.925   9.555  1.3100  0.0572 -0.6915
   73SLPC  H10R 6442   4.801   3.942   9.538  1.4680 -0.5320 -0.2934
   73SLPC  C211 6443   4.621   3.810   9.487 -0.2660 -0.3359 -0.0393
   73SLPC  H11R 6444   4.608   3.831   9.379  0.4296 -0.3312 -0.1258
   73SLPC  H11S 6445   4.518   3.815   9.528 -0.1845 -2.2655  0.4796
   73SLPC  C212 6446   4.687   3.678   9.515 -0.3443  0.5646 -0.5801
   73SLPC  H12R 6447   4.721   3.665   9.619  1.2813  0.4526 -1.1169
   73SLPC  C213 6448   4.684   3.569   9.440  0.7943  0.4994  0.0991
   73SLPC  H13R 6449   4.738   3.476   9.463 -0.1178 -0.4540 -1.4878
   73SLPC  C214 6450   4.622   3.556   9.297 -0.6892 -0.3524 -0.1347
   73SLPC  H14R 6451   4.537   3.625   9.273 -1.9248 -1.9425 -0.4336
   73SLPC  H14S 6452   4.589   3.450   9.294  0.7709 -0.8480  0.8843
   73SLPC  C215 6453   4.715   3.598   9.189 -1.4016  0.8161  0.6507
   73SLPC  H15R 6454   4.753   3.701   9.204  0.0752  0.0486  2.2744
   73SLPC  H15S 6455   4.659   3.591   9.093  0.5105  0.1765 -0.4336
   73SLPC  C216 6456   4.827   3.489   9.178 -0.1095 -0.5182 -1.2132
   73SLPC  H16R 6457   4.781   3.393   9.211 -0.2827  0.7090  2.2962
   73SLPC  H16S 6458   4.908   3.513   9.250 -3.3393 -1.7524  3.0144
   73SLPC  C217 6459   4.886   3.473   9.040 -0.3507 -0.2555  0.2269
   73SLPC  H17R 6460   4.987   3.430   9.055  0.3452  1.8193  1.7852
   73SLPC  H17S 6461   4.896   3.573   8.992 -1.4406  0.5452  1.6032
   73SLPC  C218 6462   4.806   3.374   8.947 -0.0555 -0.2823  0.3065
   73SLPC  H18R 6463   4.853   3.348   8.850 -1.7338  0.7422 -0.7930
   73SLPC  H18S 6464   4.701   3.410   8.935  0.5878  0.9226 -1.9823
   73SLPC  H18T 6465   4.793   3.283   9.010 -0.3202 -0.3679  0.1312
   73SLPC   C33 6466   5.178   3.389  10.164  1.0996  0.0775  0.2680
   73SLPC   H3X 6467   5.232   3.486  10.159  3.5449 -1.2612  0.0970
   73SLPC   H3Y 6468   5.156   3.350  10.062 -0.3377 -0.8107  0.8927
   73SLPC   C34 6469   5.264   3.282  10.229 -0.1498  0.1111 -0.0209
   73SLPC   H4X 6470   5.213   3.183  10.220  0.7011 -0.5314  1.8514
   73SLPC   H4Y 6471   5.265   3.298  10.339  0.6809  0.0840 -0.0217
   73SLPC   C35 6472   5.397   3.263  10.173  1.1460 -0.0855  0.1156
   73SLPC   H5X 6473   5.446   3.181  10.229  0.0775 -0.9094 -0.1361
   73SLPC   H5Y 6474   5.452   3.358  10.188  0.1431  0.5416 -0.1333
   73SLPC   C36 6475   5.408   3.226  10.021  0.2517  0.1108 -0.1927
   73SLPC   H6X 6476   5.516   3.223   9.997  0.4793  0.9574  0.6651
   73SLPC   H6Y 6477   5.367   3.313   9.965  1.3206 -0.2592 -1.5758
   73SLPC   C37 6478   5.341   3.096   9.970  0.0922  0.1884 -0.1781
   73SLPC   H7X 6479   5.232   3.114   9.969 -0.1781 -1.0015  2.8184
   73SLPC   H7Y 6480   5.353   3.014  10.043  0.6334 -0.3720 -0.8891
   73SLPC   C38 6481   5.408   3.052   9.842  0.0349 -0.3702  0.4898
   73SLPC   H8X 6482   5.368   2.950   9.822 -0.6030  0.4097 -2.4900
   73SLPC   H8Y 6483   5.519   3.041   9.848 -0.0752 -1.8165  0.1937
   73SLPC   C39 6484   5.358   3.135   9.714  0.5170  0.6482 -0.2499
   73SLPC   H9X 6485   5.355   3.243   9.739 -1.4976  0.3391  0.9888
   73SLPC   H9Y 6486   5.257   3.094   9.695  0.8573 -0.6494  0.6607
   73SLPC  C310 6487   5.449   3.115   9.594  0.1522 -0.6648  0.1355
   73SLPC  H10X 6488   5.551   3.085   9.627  0.2514  0.3223  0.7415
   73SLPC  H10Y 6489   5.447   3.209   9.534  0.3389 -0.1313  0.9507
   73SLPC  C311 6490   5.404   3.003   9.506  0.5431  0.4796 -0.6419
   73SLPC  H11X 6491   5.304   3.012   9.459  0.1881 -0.3598 -0.0509
   73SLPC  H11Y 6492   5.415   2.912   9.568  3.8004 -0.2221 -2.1071
   73SLPC  C312 6493   5.506   2.984   9.393 -0.2795 -0.1066 -0.2215
   73SLPC  H12X 6494   5.494   2.889   9.338  0.2083  0.1145 -0.7186
   73SLPC  H12Y 6495   5.610   2.978   9.431 -1.1688 -0.5046  2.2448
   73SLPC  C313 6496   5.517   3.109   9.295  0.0302 -0.3501  0.1984
   73SLPC  H13X 6497   5.559   3.200   9.344  1.0452  0.4013 -1.9919
   73SLPC  H13Y 6498   5.419   3.132   9.249 -0.0199 -1.6309 -0.3362
   73SLPC  C314 6499   5.615   3.073   9.187  0.2261 -0.2722  0.1203
   73SLPC  H14X 6500   5.572   2.984   9.136 -1.4743  1.9063 -2.4054
   73SLPC  H14Y 6501   5.716   3.043   9.224 -0.0982 -1.5841 -0.0306
   73SLPC  C315 6502   5.623   3.187   9.084  0.8839  0.7837  0.0840
   73SLPC  H15X 6503   5.639   3.280   9.141  1.7544 -0.0283  1.1926
   73SLPC  H15Y 6504   5.533   3.201   9.020  0.8362  0.3647  0.0569
   73SLPC  C316 6505   5.728   3.159   8.979  0.9777 -0.0405 -0.3016
   73SLPC  H16X 6506   5.715   3.063   8.924 -1.1866 -0.0336  0.1474
   73SLPC  H16Y 6507   5.821   3.151   9.040  0.9143 -1.4869 -0.3799
   73SLPC  C317 6508   5.755   3.268   8.871  0.9288  0.4931 -0.3768
   73SLPC  H17X 6509   5.840   3.226   8.813  1.4166  4.1433 -2.4138
   73SLPC  H17Y 6510   5.771   3.368   8.917 -1.9597  1.7011 -1.9095
   73SLPC  C318 6511   5.645   3.272   8.763  1.3025  0.9398 -0.4487
   73SLPC  H18X 6512   5.550   3.295   8.816  0.6760 -2.7176  0.1508
   73SLPC  H18Y 6513   5.628   3.180   8.703 -0.5744  0.7638  0.3124
   73SLPC  H18Z 6514   5.665   3.358   8.695 -1.3359  1.4686 -0.6210
   74SLPC     N 6515   5.763   5.849  10.708  0.2940  0.3647 -0.5310
   74SLPC   C13 6516   5.749   5.964  10.806  0.6204  0.5300  0.2063
   74SLPC  H13A 6517   5.768   6.056  10.752  1.1096 -0.0331 -0.5872
   74SLPC  H13B 6518   5.648   5.969  10.844 -0.1725 -1.7066 -1.5379
   74SLPC  H13C 6519   5.831   5.963  10.876  0.6254  1.8955  0.2383
   74SLPC   C14 6520   5.634   5.837  10.623  0.1531  0.6494  0.4012
   74SLPC  H14A 6521   5.633   5.754  10.555 -1.1642  2.3913 -1.7578
   74SLPC  H14B 6522   5.553   5.834  10.695  0.1999  1.7569  0.5147
   74SLPC  H14C 6523   5.611   5.927  10.568  1.7995  0.1144 -1.1902
   74SLPC   C15 6524   5.781   5.721  10.771  0.4125  0.0217 -0.1629
   74SLPC  H15A 6525   5.776   5.644  10.696 -1.3575  0.0699 -0.1005
   74SLPC  H15B 6526   5.879   5.714  10.818  1.1691  0.9275 -1.5626
   74SLPC  H15C 6527   5.701   5.698  10.839 -1.2034 -0.5205 -2.2102
   74SLPC   C12 6528   5.879   5.877  10.615  0.2076  0.6487  0.2938
   74SLPC  H12A 6529   5.966   5.890  10.677 -1.4199  0.0286  2.7775
   74SLPC  H12B 6530   5.866   5.972  10.566 -1.7733  0.2113 -0.0871
   74SLPC   C11 6531   5.914   5.776  10.505 -0.2979 -0.9789  0.4969
   74SLPC  H11A 6532   5.827   5.771  10.436  0.1493 -1.7844 -0.0143
   74SLPC  H11B 6533   5.946   5.676  10.542 -2.0471 -1.0244  1.9589
   74SLPC     P 6534   6.178   5.809  10.489  0.0709 -0.0349  0.1975
   74SLPC   O13 6535   6.266   5.896  10.412  0.4570  0.7600  0.0959
   74SLPC   O14 6536   6.179   5.822  10.631 -0.1428  0.2737  1.4055
   74SLPC   O12 6537   6.028   5.830  10.438 -0.5630  0.2617  0.3826
   74SLPC   O11 6538   6.218   5.658  10.457 -0.1681  0.1131  0.5789
   74SLPC    C1 6539   6.154   5.592  10.345  0.4216 -0.1496 -0.5397
   74SLPC    HA 6540   6.150   5.483  10.365  4.3693 -0.4998 -1.2780
   74SLPC    HB 6541   6.052   5.616  10.306  1.1982  0.5073 -2.2347
   74SLPC    C2 6542   6.249   5.617  10.218  0.7107  0.1147  0.2055
   74SLPC    HS 6543   6.348   5.588  10.260  0.7573  1.3377  0.9504
   74SLPC   O21 6544   6.233   5.750  10.174 -0.1126  0.2213 -0.3384
   74SLPC   C21 6545   6.347   5.816  10.137 -0.1244 -0.1823  0.3471
   74SLPC   O22 6546   6.459   5.765  10.147 -0.2756 -0.0707  0.4558
   74SLPC   C22 6547   6.313   5.960  10.091 -0.7181 -0.2759  0.4861
   74SLPC   H2R 6548   6.227   5.989  10.155 -0.0355 -0.6781  1.5842
   74SLPC   H2S 6549   6.396   6.029  10.116  0.8632 -1.2907 -1.7222
   74SLPC    C3 6550   6.201   5.512  10.115 -0.5833  0.4920  0.3750
   74SLPC    HX 6551   6.097   5.528  10.080 -0.6188  1.8951  1.0803
   74SLPC    HY 6552   6.206   5.405  10.144 -2.0033  0.0953 -0.7536
   74SLPC   O31 6553   6.288   5.530   9.998  0.1841  0.7885 -0.0880
   74SLPC   C31 6554   6.414   5.479  10.004  0.6069  0.0369 -0.0481
   74SLPC   O32 6555   6.451   5.415  10.099  0.0407  0.6345  0.7402
   74SLPC   C32 6556   6.478   5.504   9.868  0.0920  0.3152 -0.0941
   74SLPC   H2X 6557   6.588   5.504   9.881 -0.0482 -0.5463  1.2478
   74SLPC   H2Y 6558   6.439   5.602   9.834 -0.5069  0.9956  2.4066
   74SLPC   C23 6559   6.292   5.978   9.942 -0.2273  0.4855 -0.2129
   74SLPC   H3R 6560   6.236   6.073   9.926  0.2317  0.5610 -1.4542
   74SLPC   H3S 6561   6.226   5.897   9.904 -0.5827  0.2355  0.9157
   74SLPC   C24 6562   6.424   5.976   9.856  0.1765 -0.2814  0.3149
   74SLPC   H4R 6563   6.480   5.884   9.881 -0.3086 -0.0371  2.3922
   74SLPC   H4S 6564   6.487   6.066   9.870 -0.8540  0.4118  0.5398
   74SLPC   C25 6565   6.389   5.988   9.709  0.1291 -0.0583  0.0224
   74SLPC   H5R 6566   6.371   6.094   9.684 -1.0590 -0.3094 -0.2035
   74SLPC   H5S 6567   6.300   5.922   9.700 -0.4319  0.8833 -1.3969
   74SLPC   C26 6568   6.493   5.917   9.622  0.4362 -1.0019  0.2918
   74SLPC   H6R 6569   6.525   5.826   9.677  0.1942 -1.4373 -0.2830
   74SLPC   H6S 6570   6.582   5.982   9.609 -0.9756  1.3325  2.0701
   74SLPC   C27 6571   6.438   5.866   9.493  0.6291  0.5267 -0.0631
   74SLPC   H7R 6572   6.391   5.950   9.437 -0.7383  0.6815  1.3072
   74SLPC   H7S 6573   6.364   5.792   9.530  2.0355 -0.6524  0.4647
   74SLPC   C28 6574   6.552   5.798   9.411  0.3657  0.7822 -0.2040
   74SLPC   H8R 6575   6.590   5.723   9.484 -0.6248 -0.3875 -0.8586
   74SLPC   H8S 6576   6.637   5.863   9.381  2.2804 -2.0162 -1.0937
   74SLPC   C29 6577   6.494   5.729   9.294  0.0835  0.2126  0.6529
   74SLPC   H9R 6578   6.458   5.625   9.308  0.4951  0.0307  0.3687
   74SLPC  C210 6579   6.498   5.769   9.170  0.1334  0.1168 -0.0090
   74SLPC  H10R 6580   6.453   5.709   9.089 -4.2229 -0.8479  2.9482
   74SLPC  C211 6581   6.557   5.903   9.127 -0.8479  0.4549  0.5010
   74SLPC  H11R 6582   6.564   5.980   9.207  1.5046  0.4577  0.3463
   74SLPC  H11S 6583   6.478   5.936   9.057 -0.3121 -2.1099 -1.3500
   74SLPC  C212 6584   6.685   5.873   9.051  0.8650  0.2466 -0.2242
   74SLPC  H12R 6585   6.752   5.806   9.107  0.6161 -1.4231 -1.8850
   74SLPC  C213 6586   6.727   5.898   8.931 -0.0409 -0.2303 -0.1690
   74SLPC  H13R 6587   6.828   5.863   8.905  0.1240  0.0442  0.0943
   74SLPC  C214 6588   6.653   5.978   8.822 -0.4095  0.2650 -0.3638
   74SLPC  H14R 6589   6.552   6.015   8.849  0.1079  1.7638 -0.4516
   74SLPC  H14S 6590   6.651   5.905   8.738  1.8087  0.7505 -0.8583
   74SLPC  C215 6591   6.732   6.105   8.779 -0.0568 -0.3416 -0.1340
   74SLPC  H15R 6592   6.819   6.070   8.719 -0.8886 -0.0686 -1.5436
   74SLPC  H15S 6593   6.767   6.158   8.870  0.0779 -0.4497 -0.1208
   74SLPC  C216 6594   6.645   6.207   8.717  0.5979  0.1901 -0.8529
   74SLPC  H16R 6595   6.594   6.157   8.632 -2.1644 -0.3521  1.0685
   74SLPC  H16S 6596   6.711   6.289   8.680  0.3859  0.3906 -0.7916
   74SLPC  C217 6597   6.529   6.269   8.810  0.1388  0.6904 -0.2078
   74SLPC  H17R 6598   6.531   6.380   8.808 -0.7453  0.7758  1.9198
   74SLPC  H17S 6599   6.549   6.238   8.915 -2.7548  1.8541  0.7464
   74SLPC  C218 6600   6.392   6.206   8.770 -0.8815 -0.2359  0.7884
   74SLPC  H18R 6601   6.313   6.258   8.829 -0.3445 -0.4459  1.6990
   74SLPC  H18S 6602   6.372   6.099   8.790  0.0904 -0.5496  0.1429
   74SLPC  H18T 6603   6.369   6.241   8.667  1.0446  1.5852  0.9234
   74SLPC   C33 6604   6.438   5.404   9.763 -0.4182  0.5689 -0.1971
   74SLPC   H3X 6605   6.327   5.396   9.759 -0.2944 -1.1845 -0.5551
   74SLPC   H3Y 6606   6.469   5.299   9.786  0.6220  0.9714  0.2621
   74SLPC   C34 6607   6.489   5.439   9.622  0.4994 -0.3748 -0.9739
   74SLPC   H4X 6608   6.467   5.544   9.595  1.6358 -0.0734 -0.7473
   74SLPC   H4Y 6609   6.423   5.381   9.554 -0.8536 -2.0766  1.6869
   74SLPC   C35 6610   6.638   5.419   9.620 -0.5984  0.0043  0.0584
   74SLPC   H5X 6611   6.667   5.326   9.674 -0.3776  0.7036  1.1518
   74SLPC   H5Y 6612   6.687   5.504   9.671  1.0972 -1.6202  1.1799
   74SLPC   C36 6613   6.689   5.403   9.482 -0.0685 -0.3088 -0.4146
   74SLPC   H6X 6614   6.798   5.381   9.485  0.5965  2.7986 -0.3922
   74SLPC   H6Y 6615   6.680   5.503   9.434  0.7864  0.0918  0.2529
   74SLPC   C37 6616   6.620   5.292   9.394  0.7773 -0.1540  0.0089
   74SLPC   H7X 6617   6.510   5.302   9.383  0.8074 -0.4235 -0.5349
   74SLPC   H7Y 6618   6.635   5.189   9.433  1.5021 -0.5311 -1.2470
   74SLPC   C38 6619   6.675   5.296   9.256 -0.0643  0.8275  0.4578
   74SLPC   H8X 6620   6.786   5.304   9.259  0.0868 -1.3442  1.3523
   74SLPC   H8Y 6621   6.628   5.387   9.214 -3.1448 -1.2741 -0.7991
   74SLPC   C39 6622   6.646   5.165   9.187  0.5189  0.2324  0.5458
   74SLPC   H9X 6623   6.536   5.150   9.195  0.8031 -1.6422  1.0960
   74SLPC   H9Y 6624   6.696   5.081   9.239  1.2395  0.6907  0.6043
   74SLPC  C310 6625   6.684   5.160   9.037  0.2986 -0.0065  0.1193
   74SLPC  H10X 6626   6.791   5.186   9.027 -0.0758  1.1337 -1.0627
   74SLPC  H10Y 6627   6.632   5.232   8.970  1.1286  1.8340  1.4430
   74SLPC  C311 6628   6.685   5.022   8.967 -0.2938 -0.0107  0.2765
   74SLPC  H11X 6629   6.584   5.004   8.927  0.3651 -1.9760 -0.5525
   74SLPC  H11Y 6630   6.709   4.952   9.050 -1.9861 -0.7177  0.1805
   74SLPC  C312 6631   6.776   4.998   8.853 -0.5653  0.8709  0.6440
   74SLPC  H12X 6632   6.817   4.895   8.862  1.0916  1.5482  1.0571
   74SLPC  H12Y 6633   6.863   5.067   8.861 -1.8558  2.4892  0.9571
   74SLPC  C313 6634   6.717   5.018   8.708  0.7186 -0.7013  0.7245
   74SLPC  H13X 6635   6.609   5.035   8.722  0.5856  1.6200 -2.3458
   74SLPC  H13Y 6636   6.728   4.930   8.640 -0.0491  1.6322 -2.5510
   74SLPC  C314 6637   6.785   5.132   8.630 -0.2150  0.0664 -0.1804
   74SLPC  H14X 6638   6.793   5.227   8.686 -1.3410  0.1269 -0.1094
   74SLPC  H14Y 6639   6.710   5.157   8.552 -0.0884 -1.0534 -0.6788
   74SLPC  C315 6640   6.924   5.100   8.571  0.5627 -0.9985 -0.0801
   74SLPC  H15X 6641   6.926   5.002   8.520 -2.0630 -0.3943 -1.3873
   74SLPC  H15Y 6642   6.992   5.106   8.659 -1.5976 -0.1482  1.5971
   74SLPC  C316 6643   6.983   5.218   8.475 -0.3958  0.2966 -0.4650
   74SLPC  H16X 6644   7.087   5.196   8.443 -0.3259 -1.0089  0.5998
   74SLPC  H16Y 6645   6.978   5.313   8.531  0.5067  0.7657 -1.1565
   74SLPC  C317 6646   6.889   5.232   8.347  0.7418 -0.4571 -0.1679
   74SLPC  H17X 6647   6.908   5.322   8.284  0.1133 -1.3864 -1.7338
   74SLPC  H17Y 6648   6.787   5.254   8.384  1.1433 -0.4122  0.9361
   74SLPC  C318 6649   6.894   5.119   8.243 -0.0177 -0.2361  1.1341
   74SLPC  H18X 6650   6.996   5.126   8.200 -0.5878 -1.4894 -0.4933
   74SLPC  H18Y 6651   6.813   5.135   8.168  1.2565 -0.2051 -0.2546
   74SLPC  H18Z 6652   6.866   5.020   8.285 -1.1898 -0.3251  0.1801
   75SLPC     N 6653   3.825   2.230   6.392  0.3675 -0.8522  0.1016
   75SLPC   C13 6654   3.970   2.241   6.424  0.9060  0.3504  0.1600
   75SLPC  H13A 6655   3.980   2.304   6.511  0.0495 -0.7042  1.0331
   75SLPC  H13B 6656   4.028   2.153   6.449  3.0187  1.2360 -1.4564
   75SLPC  H13C 6657   4.026   2.282   6.342  3.3684 -1.5808  0.8128
   75SLPC   C14 6658   3.812   2.145   6.265 -0.4777  0.1672 -0.0311
   75SLPC  H14A 6659   3.848   2.044   6.282 -0.9840  0.2980  1.9918
   75SLPC  H14B 6660   3.708   2.143   6.236 -0.4485 -3.1511 -0.1171
   75SLPC  H14C 6661   3.883   2.183   6.193 -1.2136 -0.6966 -1.2389
   75SLPC   C15 6662   3.771   2.365   6.371 -0.7763  0.0999 -0.2521
   75SLPC  H15A 6663   3.774   2.411   6.468  0.4942 -0.5394  0.0159
   75SLPC  H15B 6664   3.820   2.428   6.298 -0.4563 -1.0516 -1.0354
   75SLPC  H15C 6665   3.665   2.352   6.351 -0.9132 -0.3589  0.7451
   75SLPC   C12 6666   3.754   2.167   6.500  0.1509 -0.3936  0.1217
   75SLPC  H12A 6667   3.765   2.215   6.596  0.4684 -2.3223  1.0821
   75SLPC  H12B 6668   3.799   2.070   6.511  0.2459 -0.3720 -0.0692
   75SLPC   C11 6669   3.599   2.129   6.485 -0.1609  0.0730  1.0814
   75SLPC  H11A 6670   3.563   2.064   6.567  0.1471  0.9126  1.8974
   75SLPC  H11B 6671   3.595   2.064   6.395  2.7588 -0.2217  1.1187
   75SLPC     P 6672   3.477   2.336   6.581 -0.4953 -0.5543  0.1336
   75SLPC   O13 6673   3.549   2.464   6.565  0.1949  0.4096  0.2239
   75SLPC   O14 6674   3.333   2.337   6.594  0.4440  0.5327 -0.1520
   75SLPC   O12 6675   3.519   2.242   6.462 -0.6112 -0.1195  0.7041
   75SLPC   O11 6676   3.529   2.271   6.719  0.3043  0.8741  0.2508
   75SLPC    C1 6677   3.534   2.340   6.838  0.5354  0.1191  0.9714
   75SLPC    HA 6678   3.595   2.431   6.821 -0.4700  1.0466  2.2361
   75SLPC    HB 6679   3.433   2.371   6.872 -0.9916 -2.9647 -0.4891
   75SLPC    C2 6680   3.598   2.260   6.950 -0.1345  0.1046 -0.4183
   75SLPC    HS 6681   3.544   2.163   6.962  0.6500 -0.4889 -1.6977
   75SLPC   O21 6682   3.591   2.344   7.068 -0.2936 -0.8753 -0.9206
   75SLPC   C21 6683   3.542   2.290   7.185 -0.2460  0.0241  0.6396
   75SLPC   O22 6684   3.497   2.181   7.199 -0.6032 -0.0096 -0.2463
   75SLPC   C22 6685   3.547   2.397   7.291  0.3162  0.4664  0.1917
   75SLPC   H2R 6686   3.592   2.487   7.245 -0.3850 -0.5529 -2.6233
   75SLPC   H2S 6687   3.442   2.422   7.318 -0.1761 -0.1729 -1.0898
   75SLPC    C3 6688   3.751   2.226   6.926 -0.2016  0.7772 -0.1878
   75SLPC    HX 6689   3.807   2.321   6.937 -0.3099  1.1061 -2.3730
   75SLPC    HY 6690   3.771   2.194   6.822  0.0809 -0.4339  0.2281
   75SLPC   O31 6691   3.795   2.125   7.020 -0.1706 -0.2926  0.2525
   75SLPC   C31 6692   3.779   1.997   6.987  0.5693 -0.6787  0.3569
   75SLPC   O32 6693   3.711   1.957   6.892 -0.4356 -0.7069 -0.2398
   75SLPC   C32 6694   3.831   1.902   7.094  0.1734  0.0754 -0.5453
   75SLPC   H2X 6695   3.935   1.937   7.113  0.0996 -0.1841  0.3568
   75SLPC   H2Y 6696   3.825   1.795   7.067 -0.3422 -0.4903  1.6948
   75SLPC   C23 6697   3.611   2.344   7.420  0.1869 -0.3523  0.2085
   75SLPC   H3R 6698   3.696   2.281   7.386  0.9435  2.0584 -2.6090
   75SLPC   H3S 6699   3.545   2.277   7.479  0.8552 -0.2621  1.0561
   75SLPC   C24 6700   3.670   2.452   7.513  0.0322  0.1476  0.2885
   75SLPC   H4R 6701   3.758   2.500   7.465  1.3940 -3.0468 -0.5873
   75SLPC   H4S 6702   3.709   2.402   7.604 -0.8280  1.4678  1.3844
   75SLPC   C25 6703   3.574   2.558   7.563 -0.1169 -0.1407  0.1547
   75SLPC   H5R 6704   3.477   2.519   7.601  0.2977 -1.6508 -0.3135
   75SLPC   H5S 6705   3.554   2.621   7.474 -0.6852  0.8457  0.9623
   75SLPC   C26 6706   3.640   2.674   7.646 -0.2526  0.0071  0.7967
   75SLPC   H6R 6707   3.557   2.744   7.670 -0.1680  0.1608  0.6416
   75SLPC   H6S 6708   3.723   2.731   7.599  1.1585 -1.8755  0.9424
   75SLPC   C27 6709   3.692   2.630   7.780  0.6275  0.0334  0.7131
   75SLPC   H7R 6710   3.782   2.567   7.765 -1.1044 -2.0248 -1.4400
   75SLPC   H7S 6711   3.628   2.554   7.830 -1.6928  0.3175 -1.6930
   75SLPC   C28 6712   3.705   2.740   7.882  0.1333 -0.2728 -0.0589
   75SLPC   H8R 6713   3.607   2.790   7.867 -0.8631 -2.1053  0.1355
   75SLPC   H8S 6714   3.784   2.812   7.851  1.1549 -1.4601 -0.2455
   75SLPC   C29 6715   3.743   2.691   8.020 -0.6238 -0.0035  0.0201
   75SLPC   H9R 6716   3.850   2.686   8.043 -0.9847  0.3937  1.8355
   75SLPC  C210 6717   3.652   2.651   8.110  0.1670 -0.3511 -0.4771
   75SLPC  H10R 6718   3.686   2.631   8.213 -0.9866 -0.8223 -0.1818
   75SLPC  C211 6719   3.503   2.643   8.112 -0.7978 -0.3056  0.3120
   75SLPC  H11R 6720   3.462   2.543   8.088 -0.2204 -0.4845  0.0497
   75SLPC  H11S 6721   3.459   2.710   8.035 -0.9102 -1.3765 -0.5749
   75SLPC  C212 6722   3.446   2.700   8.242 -0.0046  0.6478 -0.5913
   75SLPC  H12R 6723   3.382   2.788   8.224  0.5247  1.2017  0.2325
   75SLPC  C213 6724   3.456   2.663   8.373  0.3780 -0.1522 -0.3166
   75SLPC  H13R 6725   3.398   2.715   8.450  0.7602 -1.0664  0.5992
   75SLPC  C214 6726   3.537   2.549   8.421  0.3801  0.0258 -0.5819
   75SLPC  H14R 6727   3.567   2.476   8.343  2.7679 -1.3708  1.5950
   75SLPC  H14S 6728   3.467   2.497   8.490  0.1280  0.0725 -0.7999
   75SLPC  C215 6729   3.670   2.596   8.490  0.2666  0.3146  0.3337
   75SLPC  H15R 6730   3.708   2.686   8.436  1.5488  0.5600  1.6036
   75SLPC  H15S 6731   3.738   2.508   8.482 -0.3245  0.0571 -2.0323
   75SLPC  C216 6732   3.664   2.627   8.643 -0.5863 -0.5920 -0.4438
   75SLPC  H16R 6733   3.768   2.646   8.676 -0.6405 -0.0490 -0.5793
   75SLPC  H16S 6734   3.637   2.533   8.694  1.0166 -0.1510  1.2641
   75SLPC  C217 6735   3.566   2.734   8.680 -0.2832 -0.2804 -0.0436
   75SLPC  H17R 6736   3.463   2.708   8.646 -1.4472  1.7204  1.8077
   75SLPC  H17S 6737   3.592   2.820   8.614 -1.3327  1.7511  2.1131
   75SLPC  C218 6738   3.563   2.774   8.828  0.0610 -0.3135  0.2752
   75SLPC  H18R 6739   3.562   2.680   8.887  1.6615 -1.0143 -0.7747
   75SLPC  H18S 6740   3.474   2.838   8.845  0.2572  0.2978 -0.9686
   75SLPC  H18T 6741   3.652   2.832   8.861 -0.3569 -1.2650  3.1798
   75SLPC   C33 6742   3.750   1.915   7.223 -0.1760  0.2002  0.0189
   75SLPC   H3X 6743   3.762   2.020   7.255  0.3354  0.2819 -0.4264
   75SLPC   H3Y 6744   3.643   1.901   7.197 -0.0055 -0.4624 -0.3421
   75SLPC   C34 6745   3.790   1.818   7.335  0.5233 -0.3577 -0.4102
   75SLPC   H4X 6746   3.896   1.840   7.361  0.8872 -1.6625 -0.7544
   75SLPC   H4Y 6747   3.798   1.716   7.291 -0.6766 -0.2506 -0.8971
   75SLPC   C35 6748   3.692   1.823   7.449  0.2989  0.0057 -0.1790
   75SLPC   H5X 6749   3.727   1.757   7.532 -0.1269 -0.2173 -0.1801
   75SLPC   H5Y 6750   3.588   1.792   7.428  0.0584  1.7286 -1.6119
   75SLPC   C36 6751   3.687   1.964   7.515 -0.2827  0.9270  0.0053
   75SLPC   H6X 6752   3.629   2.033   7.450  1.1832 -0.5124 -2.9057
   75SLPC   H6Y 6753   3.782   2.022   7.524  0.5477 -0.3625 -0.3664
   75SLPC   C37 6754   3.608   1.952   7.643 -1.2249  0.0339  0.1721
   75SLPC   H7X 6755   3.662   1.892   7.720 -0.9907 -1.1836 -0.9294
   75SLPC   H7Y 6756   3.514   1.894   7.626 -0.4659 -1.4849  1.0601
   75SLPC   C38 6757   3.536   2.085   7.688  0.4411 -0.0357  0.4281
   75SLPC   H8X 6758   3.470   2.134   7.614  0.4944  0.6938  0.8548
   75SLPC   H8Y 6759   3.617   2.159   7.707  0.0942  0.2916  0.6272
   75SLPC   C39 6760   3.464   2.046   7.826  0.7184  0.2354  0.4315
   75SLPC   H9X 6761   3.534   1.970   7.865  2.2286  0.1076 -2.3408
   75SLPC   H9Y 6762   3.366   1.998   7.807  0.5998  1.0058 -1.0073
   75SLPC  C310 6763   3.447   2.168   7.920 -0.3455 -0.3878  0.2668
   75SLPC  H10X 6764   3.387   2.233   7.853 -1.0842 -0.5924  0.7268
   75SLPC  H10Y 6765   3.547   2.213   7.937  0.5288 -1.5341 -1.7147
   75SLPC  C311 6766   3.379   2.122   8.047  0.2962  0.3851  0.2005
   75SLPC  H11X 6767   3.456   2.082   8.117  0.7893 -0.3546 -0.7490
   75SLPC  H11Y 6768   3.306   2.044   8.016 -0.4117  1.0842  0.0737
   75SLPC  C312 6769   3.313   2.248   8.115  0.4669  0.7933  1.0762
   75SLPC  H12X 6770   3.249   2.295   8.038  0.9941  1.7176  1.1914
   75SLPC  H12Y 6771   3.397   2.312   8.152  2.6900 -0.2783 -1.9247
   75SLPC  C313 6772   3.238   2.219   8.244 -0.5763  0.0821  0.4387
   75SLPC  H13X 6773   3.313   2.171   8.311  1.8387 -0.4009 -2.5173
   75SLPC  H13Y 6774   3.159   2.145   8.220 -0.8197  0.6731 -0.6126
   75SLPC  C314 6775   3.164   2.334   8.304  0.0663 -0.3348 -0.4682
   75SLPC  H14X 6776   3.112   2.393   8.225  0.4339  1.7808  0.8235
   75SLPC  H14Y 6777   3.228   2.398   8.368 -0.8213  0.6733 -0.5711
   75SLPC  C315 6778   3.064   2.279   8.407 -0.5185 -0.3015 -0.4245
   75SLPC  H15X 6779   3.118   2.216   8.481  0.2863  1.3559  0.4423
   75SLPC  H15Y 6780   2.979   2.219   8.368 -0.5315 -0.1553 -0.6181
   75SLPC  C316 6781   3.005   2.395   8.500 -0.2410  0.0916 -0.3378
   75SLPC  H16X 6782   3.089   2.455   8.542 -0.8442 -0.4887  1.7548
   75SLPC  H16Y 6783   2.948   2.346   8.582 -1.3144 -0.9014 -1.6644
   75SLPC  C317 6784   2.909   2.483   8.427 -0.8279  0.0571  0.2734
   75SLPC  H17X 6785   2.830   2.417   8.383 -0.0264 -2.9903  3.2460
   75SLPC  H17Y 6786   2.960   2.535   8.343 -2.2216  0.1132 -0.5689
   75SLPC  C318 6787   2.844   2.581   8.522  0.4387 -0.2112  0.0926
   75SLPC  H18X 6788   2.785   2.648   8.456  1.2014  0.0568 -0.3249
   75SLPC  H18Y 6789   2.908   2.650   8.579  2.2451 -0.7133 -1.2748
   75SLPC  H18Z 6790   2.782   2.521   8.592 -0.6681 -0.4305 -1.0394
   76SLPC     N 6791   4.974   0.361   6.108 -0.0493  0.5299 -0.2811
   76SLPC   C13 6792   4.859   0.415   6.200 -0.0118 -0.0351  0.0249
   76SLPC  H13A 6793   4.797   0.340   6.248 -1.7407  1.2304 -0.1550
   76SLPC  H13B 6794   4.893   0.487   6.273 -3.2831  1.3079  0.3476
   76SLPC  H13C 6795   4.791   0.465   6.132 -1.1265 -2.3159 -0.5634
   76SLPC   C14 6796   5.053   0.477   6.056 -0.4178 -0.6029  0.6887
   76SLPC  H14A 6797   4.986   0.522   5.984 -0.9994 -1.5506  0.6260
   76SLPC  H14B 6798   5.079   0.546   6.135  1.6921 -0.1647 -0.3638
   76SLPC  H14C 6799   5.139   0.437   6.006 -2.3314 -1.5427 -1.9604
   76SLPC   C15 6800   4.908   0.288   5.998  0.0363  0.1177  0.5127
   76SLPC  H15A 6801   4.863   0.353   5.924 -0.7126  1.2172  1.8982
   76SLPC  H15B 6802   4.981   0.222   5.954 -0.5277 -0.2493  0.1158
   76SLPC  H15C 6803   4.826   0.222   6.025  0.0664 -0.3816 -0.5646
   76SLPC   C12 6804   5.060   0.278   6.200 -0.4165  0.0431 -0.5763
   76SLPC  H12A 6805   4.999   0.197   6.237 -2.9201  3.4541  3.2015
   76SLPC  H12B 6806   5.084   0.345   6.281 -0.1881  0.8909 -1.3249
   76SLPC   C11 6807   5.192   0.218   6.153 -0.0094  0.4484 -0.4451
   76SLPC  H11A 6808   5.186   0.157   6.061  0.2524  0.9938 -0.8239
   76SLPC  H11B 6809   5.227   0.143   6.227  0.7906  0.5860 -0.6865
   76SLPC     P 6810   5.372   0.389   6.233 -0.4918  0.2008  0.1229
   76SLPC   O13 6811   5.501   0.438   6.179 -0.0038  0.1847 -0.3517
   76SLPC   O14 6812   5.297   0.486   6.312 -0.6511 -0.3638 -0.3330
   76SLPC   O12 6813   5.280   0.323   6.121  0.0867 -0.6224  0.1031
   76SLPC   O11 6814   5.403   0.267   6.335  0.0372  0.5831  0.0425
   76SLPC    C1 6815   5.480   0.297   6.460  0.6380 -0.0993  0.0138
   76SLPC    HA 6816   5.587   0.314   6.435  0.5771 -1.6568 -1.4166
   76SLPC    HB 6817   5.449   0.391   6.510  0.6481 -0.3496  0.4909
   76SLPC    C2 6818   5.462   0.185   6.563  0.9182  0.3537  0.8588
   76SLPC    HS 6819   5.352   0.177   6.576  0.9536 -0.6904  0.4983
   76SLPC   O21 6820   5.532   0.232   6.684  0.8296  0.2492 -0.5068
   76SLPC   C21 6821   5.473   0.173   6.792  0.9239  0.0257 -0.1430
   76SLPC   O22 6822   5.377   0.097   6.795 -0.0210  0.3427 -0.1674
   76SLPC   C22 6823   5.542   0.226   6.921  0.2838 -0.4385 -0.5520
   76SLPC   H2R 6824   5.651   0.231   6.903  0.3464 -0.2161 -0.1151
   76SLPC   H2S 6825   5.501   0.326   6.948  0.7198  0.0181 -1.5656
   76SLPC    C3 6826   5.521   0.053   6.509  0.3160 -0.7840  0.0301
   76SLPC    HX 6827   5.630   0.066   6.497  0.1473  0.9310  0.3047
   76SLPC    HY 6828   5.475   0.051   6.408 -2.2072  1.3851  1.0659
   76SLPC   O31 6829   5.478  -0.057   6.581  0.8212 -0.2133  0.0188
   76SLPC   C31 6830   5.577  -0.104   6.656  0.3798 -0.4507  0.5135
   76SLPC   O32 6831   5.687  -0.055   6.676 -0.5910 -0.0864 -0.5516
   76SLPC   C32 6832   5.531  -0.244   6.700 -0.0032 -0.2850 -0.0506
   76SLPC   H2X 6833   5.563  -0.315   6.621 -2.2224 -2.0481  0.5858
   76SLPC   H2Y 6834   5.422  -0.242   6.718  0.0176 -0.4180  0.0865
   76SLPC   C23 6835   5.501   0.146   7.054 -0.8820 -0.2294 -0.1618
   76SLPC   H3R 6836   5.567   0.057   7.062  0.3878  0.4786 -2.3852
   76SLPC   H3S 6837   5.394   0.118   7.045 -1.2717  0.9663  0.5631
   76SLPC   C24 6838   5.528   0.223   7.182 -0.7724  0.3988 -0.5907
   76SLPC   H4R 6839   5.515   0.150   7.265 -0.2647  0.4159 -0.4964
   76SLPC   H4S 6840   5.459   0.310   7.182 -0.3219  0.7561  0.0805
   76SLPC   C25 6841   5.665   0.296   7.189  0.7347 -0.0412 -0.2667
   76SLPC   H5R 6842   5.662   0.377   7.114 -0.4221  0.3044  0.1406
   76SLPC   H5S 6843   5.726   0.208   7.159 -0.3952 -0.6543 -0.8170
   76SLPC   C26 6844   5.718   0.347   7.317 -0.4930 -0.1296  0.2519
   76SLPC   H6R 6845   5.821   0.387   7.307 -0.1684 -1.1647 -0.4996
   76SLPC   H6S 6846   5.734   0.264   7.389  1.3799 -0.2264 -0.2465
   76SLPC   C27 6847   5.631   0.447   7.397  0.7571 -0.0589 -0.2096
   76SLPC   H7R 6848   5.543   0.384   7.419  0.3567  1.4139  2.6831
   76SLPC   H7S 6849   5.606   0.528   7.325  0.6574 -1.3112 -1.6044
   76SLPC   C28 6850   5.694   0.497   7.531  0.4737  0.2313 -0.0676
   76SLPC   H8R 6851   5.803   0.508   7.513  0.9043 -1.2825  1.4347
   76SLPC   H8S 6852   5.664   0.601   7.558 -2.0043 -0.6159  0.6472
   76SLPC   C29 6853   5.686   0.400   7.641 -0.5907  0.1528  0.2802
   76SLPC   H9R 6854   5.690   0.293   7.615 -0.2734  0.3786 -0.6157
   76SLPC  C210 6855   5.664   0.430   7.770  0.5796 -0.3561  0.0379
   76SLPC  H10R 6856   5.653   0.342   7.835  1.9933  0.0963  0.9118
   76SLPC  C211 6857   5.630   0.562   7.828 -0.0857  0.4086 -0.2994
   76SLPC  H11R 6858   5.528   0.558   7.871  0.1471  3.2165  0.5765
   76SLPC  H11S 6859   5.633   0.642   7.750  0.0947  1.1842  0.5010
   76SLPC  C212 6860   5.732   0.610   7.928  0.0779  0.3823 -0.0246
   76SLPC  H12R 6861   5.828   0.627   7.877 -0.8629  0.7058 -1.7270
   76SLPC  C213 6862   5.719   0.634   8.061 -0.0260 -0.0912  0.0075
   76SLPC  H13R 6863   5.803   0.685   8.110 -0.3928  1.6632 -1.1674
   76SLPC  C214 6864   5.588   0.625   8.130 -0.4708  0.0317 -0.6423
   76SLPC  H14R 6865   5.539   0.526   8.121 -0.9485 -0.0490  2.3277
   76SLPC  H14S 6866   5.531   0.708   8.082  0.0428  1.0170  0.4071
   76SLPC  C215 6867   5.586   0.642   8.281  0.5588 -0.0489 -0.0510
   76SLPC  H15R 6868   5.489   0.681   8.321  0.2322  0.5423 -1.3770
   76SLPC  H15S 6869   5.656   0.726   8.299  1.0861 -0.5127  0.0619
   76SLPC  C216 6870   5.624   0.521   8.348  0.0207 -0.4489 -0.5538
   76SLPC  H16R 6871   5.732   0.503   8.325 -0.0971 -0.0803 -1.3997
   76SLPC  H16S 6872   5.561   0.435   8.316 -1.2271  1.0992 -2.3208
   76SLPC  C217 6873   5.592   0.537   8.495 -0.7227 -0.0532 -0.0895
   76SLPC  H17R 6874   5.574   0.437   8.541  1.9655 -0.7243 -0.4067
   76SLPC  H17S 6875   5.497   0.592   8.504 -0.4828  0.6267 -1.6610
   76SLPC  C218 6876   5.701   0.618   8.569  0.2223  0.4155 -0.3849
   76SLPC  H18R 6877   5.754   0.679   8.492  1.6819  0.2039  0.4214
   76SLPC  H18S 6878   5.778   0.552   8.615  0.8429  1.7652  0.5504
   76SLPC  H18T 6879   5.655   0.689   8.641  0.1409 -2.2930  2.3298
   76SLPC   C33 6880   5.602  -0.291   6.833  0.3653 -0.7495 -0.8206
   76SLPC   H3X 6881   5.711  -0.265   6.835 -0.4665  2.9908  1.6801
   76SLPC   H3Y 6882   5.596  -0.402   6.827 -0.2910 -0.8611  1.3916
   76SLPC   C34 6883   5.547  -0.235   6.968 -0.4057 -0.8031 -0.2566
   76SLPC   H4X 6884   5.438  -0.255   6.964 -0.3981 -1.6532  2.5717
   76SLPC   H4Y 6885   5.573  -0.127   6.970  1.1698 -1.1800  2.0278
   76SLPC   C35 6886   5.603  -0.305   7.097  0.4910  0.0461 -0.1114
   76SLPC   H5X 6887   5.554  -0.262   7.187  2.2640 -0.1351  0.9624
   76SLPC   H5Y 6888   5.713  -0.299   7.103  0.4225  0.4827  0.7991
   76SLPC   C36 6889   5.581  -0.460   7.102 -0.2137 -0.3719 -0.2229
   76SLPC   H6X 6890   5.654  -0.509   7.034 -0.7679 -2.0743  0.3901
   76SLPC   H6Y 6891   5.478  -0.487   7.070 -0.5645  0.8494 -0.1407
   76SLPC   C37 6892   5.589  -0.522   7.241  0.2452  0.1040 -0.1781
   76SLPC   H7X 6893   5.511  -0.483   7.310  0.6039  0.7548 -0.1332
   76SLPC   H7Y 6894   5.690  -0.493   7.278  0.8287 -1.3293 -0.6225
   76SLPC   C38 6895   5.569  -0.671   7.246 -0.7744 -0.5520 -0.1705
   76SLPC   H8X 6896   5.649  -0.706   7.177 -1.8084  0.0934 -1.7416
   76SLPC   H8Y 6897   5.470  -0.701   7.206 -1.3534  1.6530 -0.4742
   76SLPC   C39 6898   5.602  -0.732   7.387 -0.1199  0.1416  0.0220
   76SLPC   H9X 6899   5.550  -0.660   7.454  1.0133  0.1435  0.9044
   76SLPC   H9Y 6900   5.708  -0.734   7.420 -0.4427 -1.8491  1.0163
   76SLPC  C310 6901   5.551  -0.874   7.410 -0.2927 -0.6709  0.1092
   76SLPC  H10X 6902   5.593  -0.927   7.322  0.4338  0.7318 -0.3940
   76SLPC  H10Y 6903   5.440  -0.870   7.398 -0.2595 -1.5412 -0.5184
   76SLPC  C311 6904   5.570  -0.946   7.546 -0.6425 -0.1002 -0.0042
   76SLPC  H11X 6905   5.680  -0.956   7.557 -0.7444 -1.5337 -0.2297
   76SLPC  H11Y 6906   5.516  -1.043   7.539 -0.5395 -0.1801  0.3118
   76SLPC  C312 6907   5.508  -0.857   7.661 -0.5076 -0.1573 -0.4484
   76SLPC  H12X 6908   5.416  -0.812   7.618 -0.7616 -1.4206 -1.2531
   76SLPC  H12Y 6909   5.577  -0.771   7.668 -0.3517 -0.0936 -2.4626
   76SLPC  C313 6910   5.476  -0.919   7.792 -0.3562  0.1401 -0.3278
   76SLPC  H13X 6911   5.394  -0.993   7.779  0.5427 -0.5790 -1.9835
   76SLPC  H13Y 6912   5.435  -0.836   7.854  1.7028  0.2086  0.9951
   76SLPC  C314 6913   5.597  -0.987   7.853  0.3992 -0.0650  0.0487
   76SLPC  H14X 6914   5.683  -0.917   7.848 -0.2220  0.7236  0.2283
   76SLPC  H14Y 6915   5.621  -1.079   7.796 -0.2067 -0.0821 -0.1871
   76SLPC  C315 6916   5.583  -1.021   8.002  0.2539 -0.4044  0.6760
   76SLPC  H15X 6917   5.481  -1.062   8.017  0.8492 -2.1498  0.0051
   76SLPC  H15Y 6918   5.579  -0.923   8.055  1.7111 -0.6485  1.2429
   76SLPC  C316 6919   5.691  -1.111   8.064 -1.0366  0.8114  0.2580
   76SLPC  H16X 6920   5.788  -1.075   8.025  0.0730 -1.8398  0.4447
   76SLPC  H16Y 6921   5.677  -1.214   8.026 -2.2083 -0.2141  3.3117
   76SLPC  C317 6922   5.691  -1.109   8.215  0.0061  0.0005 -0.1683
   76SLPC  H17X 6923   5.762  -1.188   8.249 -1.7658 -1.4675  0.2077
   76SLPC  H17Y 6924   5.588  -1.122   8.255  0.3800 -0.1970  0.7526
   76SLPC  C318 6925   5.751  -0.980   8.277 -0.1558  0.6529  0.2578
   76SLPC  H18X 6926   5.856  -0.979   8.241  0.5702  1.4898  2.3022
   76SLPC  H18Y 6927   5.742  -0.975   8.388  1.8054 -0.4572  0.4765
   76SLPC  H18Z 6928   5.701  -0.889   8.237  0.3100  0.4917 -0.6979
   77SLPC     N 6929   1.113   6.136   6.237 -0.2333 -0.6949 -0.1177
   77SLPC   C13 6930   1.073   6.013   6.313  0.0598 -0.1143 -0.1007
   77SLPC  H13A 6931   0.980   6.038   6.361  1.7672  0.7182  2.9200
   77SLPC  H13B 6932   1.055   5.938   6.238 -0.4235 -0.9392  0.8397
   77SLPC  H13C 6933   1.150   5.977   6.379 -1.1076 -0.7262  0.9474
   77SLPC   C14 6934   0.984   6.174   6.165 -0.1236  0.7847 -0.2387
   77SLPC  H14A 6935   0.947   6.096   6.101 -2.5473  2.4181 -0.9194
   77SLPC  H14B 6936   0.902   6.199   6.232  1.0655  1.0614  1.1440
   77SLPC  H14C 6937   1.000   6.269   6.116 -0.1033  1.3070  0.7564
   77SLPC   C15 6938   1.226   6.103   6.143  0.8786 -0.6504  1.0731
   77SLPC  H15A 6939   1.250   6.189   6.083 -0.8417 -0.7492  0.1938
   77SLPC  H15B 6940   1.314   6.088   6.203  1.2367 -1.0734  0.4450
   77SLPC  H15C 6941   1.203   6.012   6.090  1.2886 -0.0267 -0.2010
   77SLPC   C12 6942   1.162   6.248   6.340  0.1025  0.3121 -0.5329
   77SLPC  H12A 6943   1.078   6.294   6.389 -0.1294  0.9186 -1.4795
   77SLPC  H12B 6944   1.211   6.322   6.279  2.3328 -1.2981 -0.7453
   77SLPC   C11 6945   1.269   6.222   6.447 -0.1510 -0.5895 -0.9832
   77SLPC  H11A 6946   1.227   6.141   6.510  0.5898 -0.6552 -0.5736
   77SLPC  H11B 6947   1.270   6.317   6.504 -0.8258  0.9482 -3.4607
   77SLPC     P 6948   1.486   6.272   6.335  0.4251 -0.3970  0.5732
   77SLPC   O13 6949   1.590   6.219   6.242 -0.4317  0.1626 -0.0929
   77SLPC   O14 6950   1.407   6.385   6.279  0.0580  0.0957  0.0303
   77SLPC   O12 6951   1.384   6.172   6.390  0.3121 -0.2833 -0.2022
   77SLPC   O11 6952   1.556   6.317   6.465  0.2994 -0.4178  0.0487
   77SLPC    C1 6953   1.616   6.233   6.559  0.2371 -0.0507 -0.1235
   77SLPC    HA 6954   1.646   6.138   6.511  0.2898  0.2470 -0.6888
   77SLPC    HB 6955   1.711   6.281   6.590 -0.1662  1.4253 -1.1413
   77SLPC    C2 6956   1.525   6.216   6.678 -0.8599  0.2783 -0.1228
   77SLPC    HS 6957   1.421   6.192   6.645 -1.0799 -1.5184  1.7637
   77SLPC   O21 6958   1.520   6.345   6.743  0.1178  0.2023 -0.4993
   77SLPC   C21 6959   1.428   6.356   6.837 -0.4610 -0.0098  0.2769
   77SLPC   O22 6960   1.349   6.268   6.874  0.2229  0.3391  0.6010
   77SLPC   C22 6961   1.459   6.480   6.924  0.0912 -0.0914 -0.3767
   77SLPC   H2R 6962   1.569   6.496   6.914  0.1185 -1.1935 -2.0882
   77SLPC   H2S 6963   1.403   6.558   6.868  0.8115  0.2440 -0.6491
   77SLPC    C3 6964   1.584   6.109   6.773 -0.8599  0.0554 -0.0597
   77SLPC    HX 6965   1.681   6.147   6.812 -0.4903  3.0596 -3.6119
   77SLPC    HY 6966   1.608   6.013   6.723 -0.2333 -1.3466  2.8477
   77SLPC   O31 6967   1.502   6.070   6.888 -0.5550 -0.1968 -0.1693
   77SLPC   C31 6968   1.480   5.940   6.915  0.5491 -1.0561 -0.1660
   77SLPC   O32 6969   1.529   5.847   6.853  0.3337 -0.3792 -0.1199
   77SLPC   C32 6970   1.386   5.925   7.040  0.0611 -0.2449  0.1565
   77SLPC   H2X 6971   1.321   5.841   7.009  0.4812 -0.8143  0.8156
   77SLPC   H2Y 6972   1.329   6.020   7.049  0.5006  0.0408 -0.0549
   77SLPC   C23 6973   1.413   6.461   7.071  0.1782 -0.3875  0.1958
   77SLPC   H3R 6974   1.441   6.359   7.105 -2.1212 -0.5325  1.7709
   77SLPC   H3S 6975   1.303   6.467   7.058 -0.0817  1.7861  2.9652
   77SLPC   C24 6976   1.465   6.556   7.173  0.3826  0.0118 -0.3657
   77SLPC   H4R 6977   1.427   6.656   7.143  1.2980  0.8466  1.1770
   77SLPC   H4S 6978   1.575   6.553   7.161  0.4691  0.7043  0.2386
   77SLPC   C25 6979   1.409   6.524   7.318 -0.3160 -0.4504  0.6110
   77SLPC   H5R 6980   1.433   6.421   7.352  1.3505 -0.3686 -0.2669
   77SLPC   H5S 6981   1.298   6.536   7.316 -0.0745  1.9782  0.2297
   77SLPC   C26 6982   1.465   6.629   7.416 -0.1357  0.1791 -0.6843
   77SLPC   H6R 6983   1.425   6.728   7.388  2.2733  1.8438  1.6085
   77SLPC   H6S 6984   1.575   6.642   7.410 -0.2637  1.0471 -1.2960
   77SLPC   C27 6985   1.429   6.573   7.556 -0.2665  0.3668 -0.2433
   77SLPC   H7R 6986   1.479   6.476   7.575  2.3226  1.4715 -1.2398
   77SLPC   H7S 6987   1.321   6.548   7.553  0.2793 -1.9505 -0.8855
   77SLPC   C28 6988   1.462   6.673   7.668 -0.0702 -0.8944  0.2028
   77SLPC   H8R 6989   1.414   6.646   7.765 -1.9027  0.6281 -0.2706
   77SLPC   H8S 6990   1.417   6.769   7.637 -1.1177 -1.5092 -0.2065
   77SLPC   C29 6991   1.611   6.705   7.687  0.3789 -0.7030 -0.5388
   77SLPC   H9R 6992   1.658   6.742   7.595 -1.0176 -0.3834 -1.1281
   77SLPC  C210 6993   1.686   6.713   7.793 -0.2227 -0.6443 -0.0573
   77SLPC  H10R 6994   1.784   6.763   7.783 -0.8039  0.7106  0.8644
   77SLPC  C211 6995   1.640   6.681   7.928 -0.1524  0.4566  0.8203
   77SLPC  H11R 6996   1.604   6.577   7.944  0.1338  0.1555 -0.4179
   77SLPC  H11S 6997   1.553   6.740   7.963  0.4663  1.5015  0.5945
   77SLPC  C212 6998   1.743   6.696   8.038  0.1015 -0.4669 -0.2002
   77SLPC  H12R 6999   1.832   6.758   8.019 -0.8065  0.3017 -2.0859
   77SLPC  C213 7000   1.737   6.628   8.153 -0.3367 -0.5350  0.6464
   77SLPC  H13R 7001   1.814   6.645   8.230  2.4588 -0.9593 -1.9806
   77SLPC  C214 7002   1.629   6.527   8.186 -0.5943  0.2167 -0.1517
   77SLPC  H14R 7003   1.534   6.541   8.131  0.2574 -0.3437 -1.7914
   77SLPC  H14S 7004   1.610   6.540   8.295 -0.2391 -0.1081 -0.0488
   77SLPC  C215 7005   1.662   6.377   8.163  0.2237  0.1067  0.3840
   77SLPC  H15R 7006   1.748   6.374   8.093 -1.2158 -0.1220 -1.4175
   77SLPC  H15S 7007   1.579   6.326   8.109 -0.2897  0.5291  0.7601
   77SLPC  C216 7008   1.695   6.308   8.291  0.5468 -0.2102 -0.3607
   77SLPC  H16R 7009   1.598   6.301   8.345  0.5410  1.4805 -0.1222
   77SLPC  H16S 7010   1.764   6.374   8.348  0.5353  0.8023 -1.5043
   77SLPC  C217 7011   1.774   6.185   8.276 -0.0256  0.9460  0.1164
   77SLPC  H17R 7012   1.881   6.205   8.253  0.2917  0.1539  0.8980
   77SLPC  H17S 7013   1.753   6.126   8.184  2.0382  0.8907 -0.3539
   77SLPC  C218 7014   1.780   6.103   8.401 -0.3642  0.4634  0.2397
   77SLPC  H18R 7015   1.679   6.102   8.447 -0.0386  1.9780  1.0271
   77SLPC  H18S 7016   1.833   6.158   8.481 -0.8710 -0.7358  1.4054
   77SLPC  H18T 7017   1.822   6.001   8.396 -0.7500  0.3443 -0.7189
   77SLPC   C33 7018   1.467   5.893   7.169 -0.0857  0.0390 -0.2872
   77SLPC   H3X 7019   1.551   5.825   7.144  0.0933  0.4796 -0.9048
   77SLPC   H3Y 7020   1.398   5.853   7.246 -1.7178  2.8156 -0.2171
   77SLPC   C34 7021   1.506   6.026   7.233  0.1797  0.7831  0.2295
   77SLPC   H4X 7022   1.422   6.074   7.288 -0.1586 -1.3130  1.6396
   77SLPC   H4Y 7023   1.539   6.091   7.149 -2.4268 -1.6024 -2.7630
   77SLPC   C35 7024   1.623   6.019   7.331 -0.2005 -0.6505 -0.2601
   77SLPC   H5X 7025   1.708   5.979   7.272  0.3497  0.8600 -0.5156
   77SLPC   H5Y 7026   1.601   5.937   7.403 -1.9416 -0.8937 -1.0487
   77SLPC   C36 7027   1.653   6.152   7.408  0.5343  0.2108 -0.4647
   77SLPC   H6X 7028   1.573   6.197   7.471 -1.0845 -1.3917 -1.3312
   77SLPC   H6Y 7029   1.660   6.234   7.334  0.5259  0.4412 -0.2116
   77SLPC   C37 7030   1.786   6.145   7.481  0.0706 -0.3527 -0.0201
   77SLPC   H7X 7031   1.831   6.246   7.468 -0.0779 -0.3260 -0.3297
   77SLPC   H7Y 7032   1.838   6.061   7.431 -0.6076 -0.6927 -0.1614
   77SLPC   C38 7033   1.777   6.105   7.623  0.8499  0.7024  1.1426
   77SLPC   H8X 7034   1.714   6.014   7.630  0.4778  0.8799  0.2045
   77SLPC   H8Y 7035   1.740   6.177   7.699  2.4304 -0.9777  3.5976
   77SLPC   C39 7036   1.915   6.068   7.666  0.2350 -0.7450  0.2176
   77SLPC   H9X 7037   1.986   6.147   7.634  2.3818 -2.5632  0.4263
   77SLPC   H9Y 7038   1.961   5.982   7.612  1.4066 -0.3578  0.5842
   77SLPC  C310 7039   1.919   6.047   7.818 -1.1817 -0.1469  0.0386
   77SLPC  H10X 7040   1.877   6.139   7.865  3.5709  0.8703  2.5584
   77SLPC  H10Y 7041   2.024   6.038   7.852 -0.6969 -1.2666 -1.6517
   77SLPC  C311 7042   1.859   5.913   7.859  0.7082  0.4545 -0.2972
   77SLPC  H11X 7043   1.904   5.838   7.790  2.4684  1.3755 -0.1828
   77SLPC  H11Y 7044   1.750   5.916   7.839  0.6347  1.2050  0.1896
   77SLPC  C312 7045   1.894   5.871   8.002 -0.8314  0.2524  0.6956
   77SLPC  H12X 7046   1.851   5.946   8.072  0.3115  0.3637  1.3047
   77SLPC  H12Y 7047   2.004   5.886   8.017 -0.6414  1.1771 -1.4437
   77SLPC  C313 7048   1.878   5.726   8.045 -0.1692  0.6908  0.4395
   77SLPC  H13X 7049   1.905   5.659   7.960  0.2543  0.9077  0.3996
   77SLPC  H13Y 7050   1.776   5.701   8.082 -0.1365 -1.3918 -0.8397
   77SLPC  C314 7051   1.969   5.687   8.164 -0.2327  0.3823 -0.6936
   77SLPC  H14X 7052   1.930   5.744   8.251 -1.0554 -2.9586  1.1837
   77SLPC  H14Y 7053   2.073   5.721   8.142  0.3774  1.3335  3.1864
   77SLPC  C315 7054   1.980   5.537   8.200  0.8149 -0.5197 -1.0678
   77SLPC  H15X 7055   2.041   5.524   8.292  0.8844 -0.8187 -1.1545
   77SLPC  H15Y 7056   2.047   5.489   8.125  3.3236  0.4604  0.4893
   77SLPC  C316 7057   1.839   5.471   8.235  0.2697 -0.3972 -0.5000
   77SLPC  H16X 7058   1.804   5.438   8.135  0.5574 -1.0931 -0.3746
   77SLPC  H16Y 7059   1.768   5.547   8.275 -2.7978 -3.0804 -0.5959
   77SLPC  C317 7060   1.848   5.346   8.320 -0.4423  0.6209 -0.6161
   77SLPC  H17X 7061   1.867   5.365   8.428  0.8997 -0.4149 -0.6542
   77SLPC  H17Y 7062   1.932   5.286   8.279 -0.7904 -0.0942 -0.2880
   77SLPC  C318 7063   1.727   5.258   8.307 -0.1564 -0.6516 -0.1590
   77SLPC  H18X 7064   1.633   5.304   8.344  0.0746  0.3433 -0.7938
   77SLPC  H18Y 7065   1.735   5.161   8.361 -0.5450 -1.3042 -1.2561
   77SLPC  H18Z 7066   1.713   5.235   8.199 -0.0202 -1.8038  0.0642
   78SLPC     N 7067   4.288   1.136   6.080 -0.2286 -0.8588 -0.1193
   78SLPC   C13 7068   4.366   1.247   6.148 -0.0993  0.7694  0.2859
   78SLPC  H13A 7069   4.386   1.325   6.076 -3.2849 -0.5393 -2.0814
   78SLPC  H13B 7070   4.307   1.293   6.226 -2.7889 -0.0001 -1.2336
   78SLPC  H13C 7071   4.454   1.204   6.194 -1.4244 -1.3094  0.9730
   78SLPC   C14 7072   4.379   1.087   5.972  0.8343  0.8619  0.4889
   78SLPC  H14A 7073   4.387   1.162   5.895  2.8174  1.2707  1.0757
   78SLPC  H14B 7074   4.476   1.054   6.007  0.3790 -0.3995  0.5981
   78SLPC  H14C 7075   4.327   1.002   5.931  1.3414  1.4840 -1.5149
   78SLPC   C15 7076   4.170   1.197   6.016 -0.1091  0.8089  0.2257
   78SLPC  H15A 7077   4.095   1.212   6.092  0.0061  0.5087  0.3984
   78SLPC  H15B 7078   4.203   1.289   5.969  1.4154  1.1152  1.8514
   78SLPC  H15C 7079   4.138   1.127   5.940  1.4613  0.5271 -0.1957
   78SLPC   C12 7080   4.253   1.038   6.192  0.3504 -0.4131 -0.2434
   78SLPC  H12A 7081   4.349   1.002   6.225  1.2294  0.7908 -1.4449
   78SLPC  H12B 7082   4.197   0.961   6.141  1.8302 -1.8825  0.3225
   78SLPC   C11 7083   4.155   1.083   6.305 -0.1383  0.1605 -0.5601
   78SLPC  H11A 7084   4.192   1.175   6.356  0.5547 -0.5187  0.1748
   78SLPC  H11B 7085   4.156   1.004   6.383 -0.1261  0.0019 -0.7212
   78SLPC     P 7086   3.900   1.019   6.268  0.4796  0.1752 -0.4326
   78SLPC   O13 7087   3.785   1.096   6.205 -0.1449 -0.3634  0.4319
   78SLPC   O14 7088   3.930   0.884   6.218 -0.0582 -0.3994  0.3361
   78SLPC   O12 7089   4.024   1.107   6.246 -0.2677 -0.3941 -0.4038
   78SLPC   O11 7090   3.877   0.998   6.424  0.2170 -0.1008 -0.3684
   78SLPC    C1 7091   3.875   1.112   6.509  0.6901 -0.1123 -0.6444
   78SLPC    HA 7092   3.977   1.152   6.522  0.9123 -1.1427  0.8245
   78SLPC    HB 7093   3.807   1.194   6.477 -0.9503 -1.8713 -1.8328
   78SLPC    C2 7094   3.835   1.067   6.650  0.7237  0.5356  0.3710
   78SLPC    HS 7095   3.844   1.155   6.717 -1.5806  3.0122 -2.4514
   78SLPC   O21 7096   3.924   0.968   6.709  0.5736 -0.3341 -0.0869
   78SLPC   C21 7097   4.046   1.013   6.740  0.1296  0.2324  0.3084
   78SLPC   O22 7098   4.071   1.135   6.751  0.1887  0.5435 -0.1816
   78SLPC   C22 7099   4.146   0.904   6.770 -0.1120  0.5918 -0.0903
   78SLPC   H2R 7100   4.121   0.820   6.839 -1.1160  1.0373  0.0978
   78SLPC   H2S 7101   4.181   0.861   6.674  0.7189 -0.7546  0.8011
   78SLPC    C3 7102   3.689   1.004   6.642  0.2805 -0.0334  0.1198
   78SLPC    HX 7103   3.706   0.910   6.585  1.7739  0.3535 -0.0940
   78SLPC    HY 7104   3.621   1.079   6.596  0.5600 -0.9099 -1.7410
   78SLPC   O31 7105   3.645   0.991   6.782  0.0148 -0.3392 -0.0384
   78SLPC   C31 7106   3.518   0.951   6.787  0.4093 -0.3379 -0.0291
   78SLPC   O32 7107   3.452   0.927   6.687  0.0943  0.5856  0.2838
   78SLPC   C32 7108   3.479   0.930   6.929  0.2617 -0.5577 -0.5471
   78SLPC   H2X 7109   3.487   1.032   6.972 -0.6214 -1.2548  1.3172
   78SLPC   H2Y 7110   3.561   0.867   6.969  1.0494  1.2566  0.7826
   78SLPC   C23 7111   4.271   0.971   6.837  0.6638 -0.0580 -0.0690
   78SLPC   H3R 7112   4.298   1.054   6.768 -0.3557  0.6651  0.3933
   78SLPC   H3S 7113   4.365   0.912   6.829  0.8947  0.5816 -2.6389
   78SLPC   C24 7114   4.245   1.034   6.967  0.3342  0.3412  0.0435
   78SLPC   H4R 7115   4.157   1.101   6.957 -1.3604 -2.1365 -1.9572
   78SLPC   H4S 7116   4.330   1.100   6.996  1.0190  0.1848 -1.5497
   78SLPC   C25 7117   4.219   0.937   7.084  0.0044  0.1755 -0.4590
   78SLPC   H5R 7118   4.297   0.859   7.073 -1.4412 -1.3570 -0.0685
   78SLPC   H5S 7119   4.114   0.901   7.077 -0.4742  1.3691  0.4136
   78SLPC   C26 7120   4.244   1.005   7.226 -0.5184  0.0708  0.2357
   78SLPC   H6R 7121   4.163   1.081   7.221  1.3548  2.1935  0.9960
   78SLPC   H6S 7122   4.338   1.065   7.230 -0.8660  0.6151  0.4081
   78SLPC   C27 7123   4.237   0.919   7.345 -0.6512 -0.1802  0.0338
   78SLPC   H7R 7124   4.331   0.864   7.362  0.0056  1.0645  0.4931
   78SLPC   H7S 7125   4.146   0.855   7.338 -1.1143  0.2896  1.4463
   78SLPC   C28 7126   4.222   1.009   7.471 -0.0780 -0.0084 -0.6705
   78SLPC   H8R 7127   4.212   0.940   7.557  2.1535  0.5720  0.1133
   78SLPC   H8S 7128   4.132   1.073   7.461  0.8483  1.2435 -1.1361
   78SLPC   C29 7129   4.344   1.087   7.509 -0.3245  0.7945  0.0384
   78SLPC   H9R 7130   4.351   1.188   7.466  0.8444 -0.2863 -2.4170
   78SLPC  C210 7131   4.443   1.041   7.585 -0.3393  0.3849 -0.0676
   78SLPC  H10R 7132   4.521   1.114   7.613  0.8628  1.5330 -5.8823
   78SLPC  C211 7133   4.454   0.902   7.647 -0.4833 -0.1417  0.2128
   78SLPC  H11R 7134   4.429   0.833   7.564 -1.8835  2.4805 -1.5996
   78SLPC  H11S 7135   4.370   0.896   7.719  0.1329  1.0345  1.0415
   78SLPC  C212 7136   4.586   0.872   7.720 -0.0695  0.4323  0.5624
   78SLPC  H12R 7137   4.580   0.875   7.829 -1.1925  0.8602  0.4891
   78SLPC  C213 7138   4.709   0.835   7.672 -0.2051 -0.2499 -0.2527
   78SLPC  H13R 7139   4.795   0.818   7.737  0.4104 -0.1069 -1.0213
   78SLPC  C214 7140   4.739   0.811   7.527  0.1490 -0.3177  0.6789
   78SLPC  H14R 7141   4.800   0.719   7.515  2.2463  1.1168 -0.1270
   78SLPC  H14S 7142   4.797   0.900   7.494 -1.3597  1.1893  1.9827
   78SLPC  C215 7143   4.623   0.784   7.423  0.5878  0.2534  0.2206
   78SLPC  H15R 7144   4.571   0.882   7.416  1.8285  0.8123 -1.2617
   78SLPC  H15S 7145   4.553   0.709   7.466  0.2841  0.8383  0.7583
   78SLPC  C216 7146   4.663   0.722   7.289 -0.2994 -0.1038 -0.0461
   78SLPC  H16R 7147   4.726   0.635   7.318 -0.7473 -0.7786 -1.0763
   78SLPC  H16S 7148   4.732   0.789   7.234 -0.2390 -1.4056 -1.5845
   78SLPC  C217 7149   4.545   0.679   7.207 -0.2546  1.2008  0.0648
   78SLPC  H17R 7150   4.453   0.733   7.238  0.9145  2.4027  1.5088
   78SLPC  H17S 7151   4.535   0.571   7.232 -1.3116  1.4236  0.5980
   78SLPC  C218 7152   4.573   0.698   7.056  0.4282  0.1178 -0.0592
   78SLPC  H18R 7153   4.676   0.663   7.037  1.2966  1.5904  1.7396
   78SLPC  H18S 7154   4.560   0.803   7.021  1.4792  0.7948  1.5247
   78SLPC  H18T 7155   4.498   0.635   7.003  0.8610 -0.4667  0.0142
   78SLPC   C33 7156   3.337   0.869   6.933  0.4399 -0.8157  0.0732
   78SLPC   H3X 7157   3.331   0.781   6.865  0.3540 -0.6303 -0.1620
   78SLPC   H3Y 7158   3.260   0.927   6.878 -0.2019 -0.8667  0.9062
   78SLPC   C34 7159   3.275   0.837   7.061 -0.0860 -0.1258 -0.3296
   78SLPC   H4X 7160   3.166   0.817   7.051 -0.5011  2.3190 -1.0403
   78SLPC   H4Y 7161   3.289   0.933   7.116 -1.3728  0.7804 -1.5665
   78SLPC   C35 7162   3.349   0.725   7.134 -0.5341  0.6901 -0.1909
   78SLPC   H5X 7163   3.457   0.748   7.137 -0.3958 -0.0786  2.3928
   78SLPC   H5Y 7164   3.315   0.628   7.091  0.5792  0.7622 -1.2401
   78SLPC   C36 7165   3.320   0.726   7.281 -0.4555 -0.8624 -0.0830
   78SLPC   H6X 7166   3.348   0.825   7.323 -1.0138 -0.4967 -0.5618
   78SLPC   H6Y 7167   3.382   0.653   7.336  2.2616  0.8693 -0.7514
   78SLPC   C37 7168   3.175   0.712   7.321  0.0124 -0.4129  0.4428
   78SLPC   H7X 7169   3.162   0.604   7.297 -1.8086 -0.0315 -0.4041
   78SLPC   H7Y 7170   3.110   0.777   7.259 -1.3287  0.4030  2.6399
   78SLPC   C38 7171   3.143   0.732   7.473  0.2770  0.7091 -0.3499
   78SLPC   H8X 7172   3.034   0.727   7.491  0.6922 -0.9964  1.8669
   78SLPC   H8Y 7173   3.176   0.830   7.514  5.2754 -1.2202  0.5510
   78SLPC   C39 7174   3.202   0.621   7.563  0.3965  0.3161 -0.4766
   78SLPC   H9X 7175   3.306   0.650   7.589  0.6402  0.7513 -1.8850
   78SLPC   H9Y 7176   3.194   0.529   7.500 -1.1194 -0.1530  0.3763
   78SLPC  C310 7177   3.123   0.603   7.696  0.5535  0.0648  0.3039
   78SLPC  H10X 7178   3.177   0.526   7.755  0.2464  0.7789  1.5224
   78SLPC  H10Y 7179   3.027   0.557   7.667  0.1280  0.9514  0.3037
   78SLPC  C311 7180   3.082   0.717   7.786  0.2480 -0.5287 -0.5948
   78SLPC  H11X 7181   3.026   0.803   7.743  0.3741  0.3218  0.9329
   78SLPC  H11Y 7182   3.181   0.755   7.820  0.8305 -1.0155 -1.7121
   78SLPC  C312 7183   2.999   0.662   7.899 -0.0791  0.4365 -0.2281
   78SLPC  H12X 7184   3.040   0.565   7.933 -1.6524  0.0046  0.4771
   78SLPC  H12Y 7185   2.903   0.628   7.855 -1.4622  2.2647  1.3441
   78SLPC  C313 7186   2.960   0.741   8.023  0.1349 -0.2703 -0.3050
   78SLPC  H13X 7187   2.921   0.838   7.986  0.6791  0.1984  0.3293
   78SLPC  H13Y 7188   3.054   0.756   8.080  0.4796  1.5651 -1.3232
   78SLPC  C314 7189   2.864   0.668   8.123 -0.4032 -0.6678 -0.3430
   78SLPC  H14X 7190   2.900   0.566   8.148  0.8958 -0.2618 -0.5268
   78SLPC  H14Y 7191   2.764   0.673   8.075 -0.9412 -1.2024  0.7002
   78SLPC  C315 7192   2.856   0.738   8.258  0.8052 -0.2849 -0.1258
   78SLPC  H15X 7193   2.851   0.849   8.247  2.9666  0.0143  1.4674
   78SLPC  H15Y 7194   2.953   0.723   8.310  0.2431  1.1814  1.3905
   78SLPC  C316 7195   2.736   0.691   8.339 -0.4615 -0.6579 -0.6619
   78SLPC  H16X 7196   2.771   0.602   8.396  1.2678 -0.7913 -1.8626
   78SLPC  H16Y 7197   2.645   0.667   8.280 -0.2863  0.2420 -1.2970
   78SLPC  C317 7198   2.692   0.803   8.433  0.8020 -0.5770 -0.4901
   78SLPC  H17X 7199   2.641   0.887   8.382 -1.5413 -0.1314  2.4540
   78SLPC  H17Y 7200   2.781   0.850   8.479  0.9546  0.4966 -1.8649
   78SLPC  C318 7201   2.589   0.758   8.542 -0.5316 -0.1737 -0.2386
   78SLPC  H18X 7202   2.505   0.699   8.500 -1.3796 -0.1149  1.3259
   78SLPC  H18Y 7203   2.548   0.844   8.599  1.5199  2.2234 -2.2305
   78SLPC  H18Z 7204   2.637   0.691   8.617  1.4726  1.3114 -0.1307
   79SLPC     N 7205   1.850   3.297   6.325 -0.5124 -0.4491  0.5164
   79SLPC   C13 7206   1.961   3.211   6.294  0.3805  0.4891  0.3893
   79SLPC  H13A 7207   2.020   3.180   6.379 -0.8193  1.0261  1.4214
   79SLPC  H13B 7208   1.913   3.129   6.242 -0.0114  0.8843  0.1181
   79SLPC  H13C 7209   2.020   3.264   6.221  1.8093  0.9784  1.8747
   79SLPC   C14 7210   1.781   3.325   6.192  0.1577 -0.2422  0.2391
   79SLPC  H14A 7211   1.731   3.233   6.166 -3.1101  1.2842  0.9620
   79SLPC  H14B 7212   1.706   3.403   6.196  1.2881  0.8375  0.8521
   79SLPC  H14C 7213   1.861   3.354   6.125  1.0357 -2.7265  0.1544
   79SLPC   C15 7214   1.907   3.426   6.390 -0.0320  0.3551  0.0983
   79SLPC  H15A 7215   1.956   3.409   6.485  1.0328  1.6374 -0.2063
   79SLPC  H15B 7216   1.972   3.476   6.320  0.1679 -0.7100 -0.4905
   79SLPC  H15C 7217   1.827   3.495   6.413 -0.3515 -0.5421  1.7865
   79SLPC   C12 7218   1.758   3.234   6.430 -0.0279 -0.3027  0.3240
   79SLPC  H12A 7219   1.668   3.294   6.430  0.0795 -0.0913 -1.8675
   79SLPC  H12B 7220   1.807   3.259   6.523  2.3043  0.6866 -1.1262
   79SLPC   C11 7221   1.734   3.088   6.431 -0.3795  0.6530  0.1653
   79SLPC  H11A 7222   1.652   3.073   6.505 -0.8114 -1.2476 -0.6786
   79SLPC  H11B 7223   1.828   3.034   6.457  0.0936  0.4807 -1.8116
   79SLPC     P 7224   1.521   3.043   6.279  0.1988 -0.3975 -0.4463
   79SLPC   O13 7225   1.460   3.182   6.288  0.1401  0.2891 -0.2894
   79SLPC   O14 7226   1.507   2.971   6.149 -0.3609  0.1229 -0.3698
   79SLPC   O12 7227   1.679   3.056   6.303  0.2542 -0.0888  0.8860
   79SLPC   O11 7228   1.470   2.959   6.398  0.1688 -0.2857 -0.2801
   79SLPC    C1 7229   1.520   2.828   6.429 -0.1131 -0.3257  0.1794
   79SLPC    HA 7230   1.502   2.778   6.331 -0.2687 -1.4264  0.7529
   79SLPC    HB 7231   1.627   2.825   6.460  0.4348 -0.0621 -1.6590
   79SLPC    C2 7232   1.429   2.761   6.540  0.2661 -0.4116 -0.3189
   79SLPC    HS 7233   1.326   2.741   6.502 -0.2180 -0.0445  0.7745
   79SLPC   O21 7234   1.434   2.857   6.651  0.3223  0.9195  0.4896
   79SLPC   C21 7235   1.320   2.857   6.725 -0.9487  0.3019 -0.4526
   79SLPC   O22 7236   1.218   2.795   6.696  0.3166 -0.4451 -0.1174
   79SLPC   C22 7237   1.329   2.959   6.850 -0.2344  1.0676  0.0524
   79SLPC   H2R 7238   1.426   3.010   6.833  0.4474 -0.2541 -0.1370
   79SLPC   H2S 7239   1.240   3.024   6.840 -0.4834  0.5600 -1.1148
   79SLPC    C3 7240   1.480   2.615   6.580  0.3326  0.0996  0.2693
   79SLPC    HX 7241   1.586   2.631   6.609  0.1082  1.8622  0.1340
   79SLPC    HY 7242   1.474   2.555   6.487  1.1542 -0.0690  0.3216
   79SLPC   O31 7243   1.399   2.566   6.689  0.3611  0.3189  0.1704
   79SLPC   C31 7244   1.300   2.489   6.667  0.0780 -0.0375 -0.4372
   79SLPC   O32 7245   1.256   2.458   6.556 -0.3052  0.0429 -0.5239
   79SLPC   C32 7246   1.253   2.435   6.807  0.4725 -0.7059 -0.3643
   79SLPC   H2X 7247   1.342   2.414   6.870  1.8083  1.8707 -1.2922
   79SLPC   H2Y 7248   1.201   2.341   6.780 -0.7302 -0.3189  0.5540
   79SLPC   C23 7249   1.339   2.877   6.975  0.4044 -0.0737 -0.2213
   79SLPC   H3R 7250   1.242   2.835   7.012  0.2881 -0.9838 -1.5522
   79SLPC   H3S 7251   1.367   2.945   7.058 -1.7725 -0.0072  0.5093
   79SLPC   C24 7252   1.444   2.775   6.959 -0.0827  0.0757 -0.4352
   79SLPC   H4R 7253   1.532   2.804   6.898 -0.5667 -0.9027 -1.6217
   79SLPC   H4S 7254   1.401   2.680   6.919  1.5686 -0.5497 -0.7618
   79SLPC   C25 7255   1.510   2.728   7.093  0.0795  0.2486  0.9566
   79SLPC   H5R 7256   1.582   2.805   7.126  0.7971  0.8151 -1.7823
   79SLPC   H5S 7257   1.574   2.638   7.085  0.5426  0.5028  1.7997
   79SLPC   C26 7258   1.401   2.692   7.198 -0.1131 -0.5230 -0.0826
   79SLPC   H6R 7259   1.301   2.669   7.155 -1.1634  0.4777  1.7523
   79SLPC   H6S 7260   1.378   2.785   7.255 -1.1881 -0.6429 -0.3012
   79SLPC   C27 7261   1.435   2.575   7.290  0.4022 -0.1983  0.7326
   79SLPC   H7R 7262   1.546   2.574   7.292  0.4786  1.0422 -1.3132
   79SLPC   H7S 7263   1.411   2.484   7.231 -2.5402  0.5950  0.6119
   79SLPC   C28 7264   1.366   2.584   7.430  0.8060 -0.4910 -0.4519
   79SLPC   H8R 7265   1.257   2.576   7.413  0.4953  1.1407  0.5929
   79SLPC   H8S 7266   1.386   2.680   7.482 -0.5079  0.2720 -1.3334
   79SLPC   C29 7267   1.425   2.472   7.520  0.8349 -0.2109  0.0808
   79SLPC   H9R 7268   1.416   2.373   7.471  0.0646  0.3911 -1.0232
   79SLPC  C210 7269   1.482   2.493   7.638 -0.3821  0.7926  0.0970
   79SLPC  H10R 7270   1.510   2.406   7.700 -0.2254  0.7888  0.0225
   79SLPC  C211 7271   1.513   2.621   7.722 -0.1735 -0.3013  0.1085
   79SLPC  H11R 7272   1.426   2.633   7.790  0.2717  2.1741  0.2885
   79SLPC  H11S 7273   1.517   2.708   7.653 -1.9682 -1.5821 -1.6538
   79SLPC  C212 7274   1.634   2.597   7.811 -0.4806  0.1199 -0.2254
   79SLPC  H12R 7275   1.721   2.656   7.778  0.0543 -0.6060 -0.1344
   79SLPC  C213 7276   1.636   2.518   7.921 -0.0128  0.0255  0.1385
   79SLPC  H13R 7277   1.729   2.505   7.978 -0.8801 -0.1659  1.5371
   79SLPC  C214 7278   1.529   2.438   7.987 -0.1199 -0.6315 -0.1714
   79SLPC  H14R 7279   1.454   2.413   7.909 -0.2881 -0.7076  0.0136
   79SLPC  H14S 7280   1.468   2.504   8.053 -0.9324 -1.5066 -0.0443
   79SLPC  C215 7281   1.564   2.306   8.058 -0.0817 -0.2840 -0.1779
   79SLPC  H15R 7282   1.614   2.230   7.993 -0.5962 -0.2076 -0.6621
   79SLPC  H15S 7283   1.465   2.259   8.075  0.0067 -0.5239 -0.3140
   79SLPC  C216 7284   1.634   2.314   8.194  0.6678 -0.2605  0.1585
   79SLPC  H16R 7285   1.576   2.373   8.269 -1.4900  0.9308 -2.3704
   79SLPC  H16S 7286   1.731   2.365   8.174 -0.0355  1.1155  0.1785
   79SLPC  C217 7287   1.651   2.175   8.253  1.4942  0.7763  0.2169
   79SLPC  H17R 7288   1.682   2.114   8.166 -0.9348  0.8894 -0.7663
   79SLPC  H17S 7289   1.556   2.125   8.283  0.7686  1.2243 -1.2896
   79SLPC  C218 7290   1.752   2.159   8.372  0.0112  0.3570  0.5834
   79SLPC  H18R 7291   1.859   2.132   8.362 -0.4398 -1.4032  0.3532
   79SLPC  H18S 7292   1.711   2.077   8.436  1.6598 -0.1935  0.9601
   79SLPC  H18T 7293   1.746   2.249   8.437 -2.3892  1.1509 -0.6648
   79SLPC   C33 7294   1.138   2.518   6.873  0.5968  0.7657  0.1003
   79SLPC   H3X 7295   1.046   2.525   6.811  0.4705 -1.2085  0.0391
   79SLPC   H3Y 7296   1.163   2.625   6.892  0.2805  0.9045 -0.2519
   79SLPC   C34 7297   1.079   2.450   6.997 -0.1425  0.1681  0.2117
   79SLPC   H4X 7298   1.167   2.440   7.064 -1.0020 -2.7123  0.9785
   79SLPC   H4Y 7299   1.036   2.348   6.990  2.8489 -1.3283  2.5661
   79SLPC   C35 7300   0.979   2.544   7.070 -0.0383  0.0262  0.1380
   79SLPC   H5X 7301   0.898   2.577   7.001  1.7151 -0.8775 -2.4191
   79SLPC   H5Y 7302   1.038   2.634   7.094  0.0929  0.2915 -1.1491
   79SLPC   C36 7303   0.928   2.491   7.205  0.0200  0.1920 -0.9373
   79SLPC   H6X 7304   1.010   2.442   7.261 -0.8818  0.2328  0.4448
   79SLPC   H6Y 7305   0.850   2.415   7.179  0.3515 -1.4175  2.5266
   79SLPC   C37 7306   0.865   2.609   7.282  0.5487 -0.2027 -0.2823
   79SLPC   H7X 7307   0.788   2.653   7.215 -1.1648 -2.7463 -0.0393
   79SLPC   H7Y 7308   0.938   2.690   7.302 -3.2282  2.5780  2.8096
   79SLPC   C38 7309   0.798   2.569   7.416  0.2042 -1.0554  0.4329
   79SLPC   H8X 7310   0.799   2.458   7.426  1.6890 -1.1047 -0.2397
   79SLPC   H8Y 7311   0.691   2.598   7.406  0.2812 -1.7782 -3.1903
   79SLPC   C39 7312   0.863   2.635   7.538 -0.0887  0.5139 -1.3582
   79SLPC   H9X 7313   0.803   2.603   7.626  2.4254 -1.4814 -0.3084
   79SLPC   H9Y 7314   0.856   2.744   7.515  1.5571  0.6947 -1.0817
   79SLPC  C310 7315   1.006   2.586   7.544  0.1580 -0.1820 -0.6049
   79SLPC  H10X 7316   1.065   2.611   7.454 -0.8987  2.4823 -0.6017
   79SLPC  H10Y 7317   1.020   2.476   7.532  0.1856 -0.1279 -1.0649
   79SLPC  C311 7318   1.071   2.625   7.675 -0.0991 -0.5742 -0.6831
   79SLPC  H11X 7319   1.054   2.734   7.688  0.5833 -0.6792  1.2731
   79SLPC  H11Y 7320   1.181   2.606   7.677  0.3409  1.8907 -0.2989
   79SLPC  C312 7321   1.009   2.555   7.797 -0.1123  1.2428 -0.0255
   79SLPC  H12X 7322   0.991   2.446   7.783 -1.5639  1.7750 -2.6616
   79SLPC  H12Y 7323   0.905   2.593   7.805 -1.1117 -1.5107  0.7273
   79SLPC  C313 7324   1.068   2.582   7.935  0.3674 -0.0883  0.2509
   79SLPC  H13X 7325   1.034   2.682   7.968  1.4894 -0.1100  1.5421
   79SLPC  H13Y 7326   1.178   2.586   7.923 -0.0431  1.5536 -3.6880
   79SLPC  C314 7327   1.030   2.473   8.036  0.1778 -0.0000  0.4304
   79SLPC  H14X 7328   1.018   2.382   7.972  0.8596  0.7178 -0.7469
   79SLPC  H14Y 7329   0.929   2.478   8.080  0.7398 -0.8410  1.8480
   79SLPC  C315 7330   1.142   2.445   8.136 -0.5484 -0.0765 -0.1799
   79SLPC  H15X 7331   1.171   2.543   8.180 -0.6025  0.5780 -1.5708
   79SLPC  H15Y 7332   1.230   2.411   8.077  0.5507  3.2955 -0.6002
   79SLPC  C316 7333   1.098   2.342   8.239  0.5328 -0.3704 -0.4430
   79SLPC  H16X 7334   1.192   2.316   8.292  0.0178 -0.8167  0.2544
   79SLPC  H16Y 7335   1.064   2.248   8.191  0.6955 -0.1910 -0.9118
   79SLPC  C317 7336   0.986   2.377   8.337 -0.2841  0.0380  0.0611
   79SLPC  H17X 7337   0.890   2.385   8.281 -0.6908 -0.0365  0.7381
   79SLPC  H17Y 7338   1.007   2.479   8.376 -0.5980 -0.1002  0.5923
   79SLPC  C318 7339   0.985   2.281   8.464  0.7520 -0.0274 -0.0637
   79SLPC  H18X 7340   1.087   2.292   8.509  0.3225 -0.1568  0.9516
   79SLPC  H18Y 7341   0.987   2.172   8.442  0.3333 -0.1296  0.4063
   79SLPC  H18Z 7342   0.913   2.321   8.538  0.8201 -0.1807  0.0867
   80SLPC     N 7343   2.601   1.039   6.257  0.5511  0.3815  0.3954
   80SLPC   C13 7344   2.668   1.026   6.127 -0.1049  0.7429  0.2463
   80SLPC  H13A 7345   2.769   1.064   6.129  0.0578  0.4867 -1.9460
   80SLPC  H13B 7346   2.678   0.923   6.093 -0.7565  1.7356 -3.1625
   80SLPC  H13C 7347   2.611   1.082   6.054 -0.5057 -1.1177 -0.9108
   80SLPC   C14 7348   2.576   1.184   6.279 -0.0597  0.2921 -0.5045
   80SLPC  H14A 7349   2.673   1.231   6.287  0.3091 -0.8550  2.7433
   80SLPC  H14B 7350   2.523   1.234   6.200  0.1804  1.7095  0.2160
   80SLPC  H14C 7351   2.521   1.187   6.372 -0.1534 -3.0456 -0.3893
   80SLPC   C15 7352   2.695   0.992   6.365  0.0270  0.0854  0.0452
   80SLPC  H15A 7353   2.644   1.009   6.459  2.2633  0.2126  1.2728
   80SLPC  H15B 7354   2.709   0.885   6.360 -0.7898 -0.0236 -0.0696
   80SLPC  H15C 7355   2.791   1.040   6.374  0.5983 -1.0367 -0.0516
   80SLPC   C12 7356   2.471   0.960   6.257  0.7939  0.0572  0.0829
   80SLPC  H12A 7357   2.413   0.983   6.345  0.6601  0.7962 -0.1919
   80SLPC  H12B 7358   2.494   0.855   6.262 -1.6483 -0.4770  0.7096
   80SLPC   C11 7359   2.383   0.966   6.132 -0.0479 -0.5969  0.1120
   80SLPC  H11A 7360   2.444   0.953   6.040  0.4555 -2.4193  0.6868
   80SLPC  H11B 7361   2.344   1.070   6.119 -0.3268 -0.8304 -0.9790
   80SLPC     P 7362   2.295   0.728   6.143 -0.4171 -0.2364 -0.0888
   80SLPC   O13 7363   2.165   0.665   6.127  0.2917 -0.6062  0.4073
   80SLPC   O14 7364   2.401   0.683   6.050  0.8550  0.2754  0.0494
   80SLPC   O12 7365   2.271   0.885   6.135  0.5916  0.4429  0.0577
   80SLPC   O11 7366   2.340   0.686   6.288 -0.1559 -0.1514 -0.0831
   80SLPC    C1 7367   2.285   0.751   6.407 -0.6230  0.3837  0.0885
   80SLPC    HA 7368   2.365   0.747   6.484 -1.9503 -0.7796  1.4256
   80SLPC    HB 7369   2.264   0.858   6.385 -2.8412 -0.1680 -0.6197
   80SLPC    C2 7370   2.157   0.679   6.459 -0.4185 -0.4082  0.2634
   80SLPC    HS 7371   2.098   0.652   6.369  0.1101  2.8464 -1.1072
   80SLPC   O21 7372   2.088   0.767   6.545 -0.3121  0.2739 -0.1645
   80SLPC   C21 7373   1.964   0.721   6.570  0.1672  0.8651  0.0842
   80SLPC   O22 7374   1.906   0.632   6.515 -0.0688  0.2579  0.2134
   80SLPC   C22 7375   1.899   0.821   6.658 -0.5291  0.7542  0.1062
   80SLPC   H2R 7376   1.930   0.924   6.628  0.0598 -0.2711 -2.9901
   80SLPC   H2S 7377   1.788   0.824   6.650 -0.5295 -1.1133 -0.8451
   80SLPC    C3 7378   2.196   0.543   6.528 -1.0020  0.0926  0.6459
   80SLPC    HX 7379   2.261   0.490   6.454  1.0771  0.5202  2.1122
   80SLPC    HY 7380   2.109   0.477   6.547 -0.9645  0.0999  0.8458
   80SLPC   O31 7381   2.271   0.559   6.654  0.1469  0.1453  0.0596
   80SLPC   C31 7382   2.206   0.536   6.771  0.0379  0.3177 -0.4870
   80SLPC   O32 7383   2.086   0.511   6.780  0.1591  0.1823 -0.3571
   80SLPC   C32 7384   2.306   0.513   6.883 -0.1583 -0.5793 -0.1602
   80SLPC   H2X 7385   2.381   0.593   6.863  0.9111 -1.4675  0.2321
   80SLPC   H2Y 7386   2.351   0.411   6.876  1.2781  0.0976 -1.2697
   80SLPC   C23 7387   1.939   0.781   6.802  0.5037  0.0035 -1.0009
   80SLPC   H3R 7388   2.048   0.762   6.812  0.1947 -0.9509  0.9105
   80SLPC   H3S 7389   1.880   0.693   6.837  1.3215 -0.3931 -0.6162
   80SLPC   C24 7390   1.910   0.914   6.880  0.1629 -0.4814 -0.1675
   80SLPC   H4R 7391   1.800   0.928   6.871 -0.1124 -3.0116 -1.3097
   80SLPC   H4S 7392   1.966   0.999   6.837 -0.5001 -1.3867 -2.9476
   80SLPC   C25 7393   1.946   0.893   7.025  0.2532 -0.5561 -0.7247
   80SLPC   H5R 7394   2.052   0.919   7.046 -0.4131  1.8499 -0.2050
   80SLPC   H5S 7395   1.932   0.786   7.052 -0.7503 -0.4755 -0.9278
   80SLPC   C26 7396   1.873   0.982   7.130 -0.4396 -0.1722  0.0963
   80SLPC   H6R 7397   1.774   0.937   7.153 -2.2751  3.1281 -0.8880
   80SLPC   H6S 7398   1.860   1.084   7.088  0.2659  1.0132  2.6146
   80SLPC   C27 7399   1.941   0.984   7.265 -0.4371  0.4055 -0.2631
   80SLPC   H7R 7400   2.051   0.987   7.251 -0.4222  0.1190 -0.2118
   80SLPC   H7S 7401   1.915   0.889   7.317 -1.7653  0.1043 -1.4136
   80SLPC   C28 7402   1.893   1.097   7.355  0.0236 -0.2054 -0.4914
   80SLPC   H8R 7403   1.805   1.060   7.412  0.9570 -2.4579 -0.4888
   80SLPC   H8S 7404   1.849   1.182   7.297 -1.6495  0.4052  1.6082
   80SLPC   C29 7405   2.008   1.144   7.442 -0.6996 -0.1687  0.1330
   80SLPC   H9R 7406   2.068   1.228   7.406  1.5755 -0.8663  2.1611
   80SLPC  C210 7407   2.042   1.082   7.559 -0.5290  0.7096 -0.0016
   80SLPC  H10R 7408   2.129   1.128   7.609 -1.8038  1.8425  1.1962
   80SLPC  C211 7409   1.977   0.963   7.616 -0.1188 -0.2640 -0.5248
   80SLPC  H11R 7410   2.043   0.873   7.615  0.2535 -0.0215  0.9364
   80SLPC  H11S 7411   1.895   0.926   7.551  0.3618 -0.5827 -0.9489
   80SLPC  C212 7412   1.934   0.997   7.760  0.2276 -0.0070 -0.0680
   80SLPC  H12R 7413   1.831   1.032   7.778  0.6345  0.8247  0.6612
   80SLPC  C213 7414   2.016   0.978   7.867  0.1145  0.2514 -0.1864
   80SLPC  H13R 7415   1.976   1.011   7.964 -2.2962 -0.1256 -1.0179
   80SLPC  C214 7416   2.161   0.921   7.864 -0.5488  0.5955  0.1318
   80SLPC  H14R 7417   2.226   0.983   7.928 -1.1242  0.9599  0.3663
   80SLPC  H14S 7418   2.196   0.924   7.758 -0.3253 -1.1585  0.1439
   80SLPC  C215 7419   2.166   0.774   7.906 -0.4740 -0.7328  0.1839
   80SLPC  H15R 7420   2.091   0.701   7.866  0.8951 -1.4900 -1.0775
   80SLPC  H15S 7421   2.159   0.766   8.016  1.1021  0.4637  0.3796
   80SLPC  C216 7422   2.306   0.717   7.865  0.2677 -0.3085 -0.2753
   80SLPC  H16R 7423   2.379   0.790   7.907  0.4018 -1.1506  0.9578
   80SLPC  H16S 7424   2.316   0.711   7.754  0.5304 -1.9898 -0.1684
   80SLPC  C217 7425   2.326   0.583   7.928 -0.3821  0.5712  0.2440
   80SLPC  H17R 7426   2.228   0.532   7.923 -2.1402  3.4880  2.9725
   80SLPC  H17S 7427   2.340   0.606   8.036 -1.6566  0.9712  0.3254
   80SLPC  C218 7428   2.439   0.499   7.867  0.3063 -0.4713  0.3133
   80SLPC  H18R 7429   2.422   0.465   7.762  3.1832 -2.7639  0.5093
   80SLPC  H18S 7430   2.447   0.407   7.928 -3.5672 -1.1904 -0.1193
   80SLPC  H18T 7431   2.529   0.564   7.866 -0.9492  1.2911  0.3712
   80SLPC   C33 7432   2.231   0.542   7.010 -0.2491  0.6527 -0.1335
   80SLPC   H3X 7433   2.154   0.462   7.023  3.0102 -2.3744  1.4415
   80SLPC   H3Y 7434   2.195   0.646   7.021 -0.4067  0.3182  3.1227
   80SLPC   C34 7435   2.330   0.529   7.135  0.0333 -0.4850  0.3850
   80SLPC   H4X 7436   2.413   0.601   7.117 -0.1975 -0.6963 -1.6286
   80SLPC   H4Y 7437   2.364   0.423   7.140  0.2852 -0.5177 -1.6152
   80SLPC   C35 7438   2.254   0.560   7.267  0.7772 -0.5779 -0.1152
   80SLPC   H5X 7439   2.174   0.492   7.302  0.7993  0.9247  3.0612
   80SLPC   H5Y 7440   2.213   0.661   7.244  0.8546  0.1911  2.9373
   80SLPC   C36 7441   2.355   0.569   7.388  1.0399 -0.0601  0.4638
   80SLPC   H6X 7442   2.322   0.657   7.446  1.7771  0.9214 -0.5992
   80SLPC   H6Y 7443   2.457   0.597   7.355 -0.0718  1.5721 -1.7254
   80SLPC   C37 7444   2.365   0.456   7.492 -0.1710 -0.2965  0.6095
   80SLPC   H7X 7445   2.265   0.447   7.540 -2.4222  0.0360 -3.7867
   80SLPC   H7Y 7446   2.432   0.492   7.573  1.6366  1.7917 -1.7189
   80SLPC   C38 7447   2.407   0.319   7.441 -0.1366  0.1899 -0.1724
   80SLPC   H8X 7448   2.509   0.327   7.398 -0.8907 -0.4594 -2.1606
   80SLPC   H8Y 7449   2.341   0.272   7.364 -2.3236  1.3092  0.9545
   80SLPC   C39 7450   2.414   0.216   7.559  0.8305 -0.6588  0.0070
   80SLPC   H9X 7451   2.359   0.267   7.641  0.7466 -0.0935 -0.3970
   80SLPC   H9Y 7452   2.521   0.205   7.586  1.3639 -3.5000 -2.8730
   80SLPC  C310 7453   2.347   0.080   7.517  0.3824 -0.8392  0.3517
   80SLPC  H10X 7454   2.395   0.037   7.426  1.0364  2.0802 -0.7348
   80SLPC  H10Y 7455   2.238   0.086   7.498  0.3243 -4.8566 -1.2317
   80SLPC  C311 7456   2.364  -0.026   7.632  0.8131 -0.6014 -0.4365
   80SLPC  H11X 7457   2.474  -0.035   7.640  0.7946 -1.3474 -0.9489
   80SLPC  H11Y 7458   2.318  -0.125   7.610  1.8431 -0.5063 -3.1623
   80SLPC  C312 7459   2.316   0.007   7.779 -0.0787  0.3426  0.2602
   80SLPC  H12X 7460   2.209   0.033   7.796 -0.1417  1.3100 -1.4871
   80SLPC  H12Y 7461   2.372   0.100   7.799  1.3018 -0.1298 -1.3249
   80SLPC  C313 7462   2.355  -0.078   7.888  0.1811 -0.2043 -0.3477
   80SLPC  H13X 7463   2.460  -0.112   7.898  0.7429  0.8505 -2.4591
   80SLPC  H13Y 7464   2.302  -0.175   7.881  0.2110 -0.3481  1.1315
   80SLPC  C314 7465   2.326  -0.017   8.028 -0.1869  0.0310 -0.6381
   80SLPC  H14X 7466   2.216  -0.001   8.031 -0.3804 -1.3969  1.0693
   80SLPC  H14Y 7467   2.373   0.083   8.035 -1.0332  0.5307 -1.9094
   80SLPC  C315 7468   2.365  -0.103   8.150  0.1827 -0.1145  0.1766
   80SLPC  H15X 7469   2.476  -0.103   8.153  0.2628  2.4215 -1.5308
   80SLPC  H15Y 7470   2.335  -0.206   8.118 -0.1119 -0.4546  1.5276
   80SLPC  C316 7471   2.303  -0.067   8.289  0.5680  0.8447  0.5666
   80SLPC  H16X 7472   2.314   0.043   8.289 -1.7978  1.1415 -1.1221
   80SLPC  H16Y 7473   2.368  -0.112   8.367  0.6241 -0.6669 -0.3323
   80SLPC  C317 7474   2.154  -0.100   8.302  0.6129  0.1637 -0.0947
   80SLPC  H17X 7475   2.082  -0.080   8.219 -3.3060 -0.6620  2.9732
   80SLPC  H17Y 7476   2.121  -0.050   8.395 -2.9556 -2.9215  0.4125
   80SLPC  C318 7477   2.130  -0.249   8.327  0.5258 -0.5784  0.1344
   80SLPC  H18X 7478   2.029  -0.277   8.363  0.5936 -1.0058 -0.0030
   80SLPC  H18Y 7479   2.211  -0.288   8.393  3.0320  0.0790 -2.4616
   80SLPC  H18Z 7480   2.135  -0.303   8.230 -1.2850  1.0341 -0.8676
   81SAPS     N 7481   2.634   2.570  11.055 -0.3468  0.3142  0.1022
   81SAPS   HN1 7482   2.539   2.549  11.017 -0.1403  1.6230 -1.1854
   81SAPS   HN2 7483   2.630   2.666  11.094 -1.8808  0.6676 -0.8600
   81SAPS   HN3 7484   2.696   2.576  10.973 -0.4089 -1.0463 -0.0536
   81SAPS   C12 7485   2.667   2.477  11.155  0.8217  0.3617 -0.1564
   81SAPS  H12A 7486   2.764   2.506  11.193  0.3795  0.1895  1.1172
   81SAPS   C13 7487   2.572   2.474  11.273 -0.1289 -0.0855 -0.1889
   81SAPS  O13A 7488   2.482   2.565  11.287 -0.1203  0.2685 -0.1896
   81SAPS  O13B 7489   2.584   2.388  11.369 -0.1602  0.0744  0.1380
   81SAPS   C11 7490   2.676   2.339  11.091  0.6210 -0.7492 -0.0810
   81SAPS  H11A 7491   2.574   2.298  11.075 -0.6024  2.8431 -1.9509
   81SAPS  H11B 7492   2.734   2.269  11.156  1.2449  1.0473  1.3421
   81SAPS     P 7493   2.828   2.218  10.926 -0.5435  0.4121  0.5921
   81SAPS   O13 7494   2.951   2.220  11.011 -0.3885  0.1745  0.7783
   81SAPS   O14 7495   2.743   2.096  10.922  0.0962  0.5853 -0.1207
   81SAPS   O12 7496   2.744   2.340  10.964 -0.5941 -0.0720 -0.8430
   81SAPS   O11 7497   2.869   2.246  10.777  0.5942 -0.8610 -0.1999
   81SAPS    C1 7498   2.779   2.275  10.669 -0.8638  0.2560 -0.5136
   81SAPS    HA 7499   2.701   2.196  10.659 -0.0573 -0.7199  0.6408
   81SAPS    HB 7500   2.741   2.376  10.695  0.3090  0.9536 -1.4549
   81SAPS    C2 7501   2.844   2.288  10.527  1.0425  0.4090 -0.2845
   81SAPS    HS 7502   2.778   2.315  10.441  0.7700 -1.8808 -0.8421
   81SAPS   O21 7503   2.916   2.155  10.498  0.0477 -0.6315  0.1492
   81SAPS   C21 7504   2.837   2.057  10.457  0.0374 -0.2787 -0.6985
   81SAPS   O22 7505   2.719   2.064  10.428 -0.1495  0.2568 -0.2409
   81SAPS   C22 7506   2.916   1.925  10.422  0.7948 -0.2402 -0.0136
   81SAPS   H2R 7507   3.022   1.956  10.412 -0.0726  2.8043 -0.5311
   81SAPS   H2S 7508   2.893   1.872  10.517  1.3632  2.1912  1.5475
   81SAPS    C3 7509   2.954   2.395  10.527  0.6163 -0.0467 -0.9095
   81SAPS    HX 7510   3.038   2.345  10.580 -0.8939 -0.3934  1.1809
   81SAPS    HY 7511   2.917   2.481  10.587 -0.3948 -0.4898 -0.8887
   81SAPS   O31 7512   2.979   2.429  10.391  0.0554  0.5547  0.0063
   81SAPS   C31 7513   3.065   2.354  10.317 -1.0206  0.3739 -0.0792
   81SAPS   O32 7514   3.144   2.274  10.363  0.5865 -0.5192  0.2389
   81SAPS   C32 7515   3.045   2.377  10.169  0.4113  0.4432  0.6301
   81SAPS   H2X 7516   3.080   2.479  10.141  1.0589 -0.0098 -0.2242
   81SAPS   H2Y 7517   2.938   2.388  10.143  0.7159 -1.0675 -1.3701
   81SAPS   C23 7518   2.865   1.844  10.307 -0.1329  0.3786 -0.7282
   81SAPS   H3R 7519   2.755   1.844  10.323  0.3297  1.2098  2.7704
   81SAPS   H3S 7520   2.894   1.739  10.328  0.0097  0.6626  0.5453
   81SAPS   C24 7521   2.910   1.905  10.166 -0.3417  0.3029  0.2300
   81SAPS   H4R 7522   2.891   2.014  10.168 -0.5542  0.4321 -4.2063
   81SAPS   H4S 7523   2.858   1.864  10.076 -0.1268 -0.2984  0.3782
   81SAPS   C25 7524   3.057   1.878  10.158 -0.4858 -0.6188 -0.3151
   81SAPS   H5R 7525   3.116   1.850  10.247  0.3866 -0.3943 -0.8095
   81SAPS   C26 7526   3.123   1.874  10.042 -0.2396  0.0140  0.3499
   81SAPS   H6R 7527   3.230   1.847  10.047  0.1213  1.4487  0.5258
   81SAPS   C27 7528   3.064   1.901   9.905  0.4126 -0.5132  0.4542
   81SAPS   H7R 7529   3.121   1.986   9.862  0.9042 -0.5947  0.9365
   81SAPS   H7S 7530   2.964   1.947   9.914  0.9364  0.5208  1.0604
   81SAPS   C28 7531   3.056   1.778   9.817  0.4968 -0.3454 -0.0893
   81SAPS   H8R 7532   3.047   1.678   9.863 -1.4730  0.5174  1.4553
   81SAPS   C29 7533   3.032   1.786   9.687 -0.3103  0.8260 -0.0152
   81SAPS   H9R 7534   3.034   1.699   9.620 -0.7150 -0.7669  1.9752
   81SAPS  C210 7535   3.012   1.917   9.608 -0.4330  0.0185  0.0530
   81SAPS  H10R 7536   3.063   1.904   9.510 -1.4887 -0.6633 -0.4117
   81SAPS  H10S 7537   3.072   1.997   9.658  0.7863 -0.4867 -0.5893
   81SAPS  C211 7538   2.867   1.946   9.607  0.0748 -1.0136  0.0700
   81SAPS  H11R 7539   2.815   1.935   9.704  2.1503 -2.2811  1.0769
   81SAPS  C212 7540   2.797   2.006   9.513 -0.2916 -0.8541  0.5979
   81SAPS  H12R 7541   2.690   2.022   9.533 -0.8626 -1.9997 -1.4098
   81SAPS  C213 7542   2.854   2.037   9.375  0.2642  0.3990 -0.7992
   81SAPS  H13R 7543   2.869   1.937   9.328  2.2392  0.4663 -0.3342
   81SAPS  H13S 7544   2.958   2.073   9.387  0.4172 -0.5352  0.8107
   81SAPS  C214 7545   2.762   2.110   9.280 -0.7844  0.0022  0.4079
   81SAPS  H14R 7546   2.658   2.112   9.316 -0.8104  0.6121  0.3007
   81SAPS  C215 7547   2.795   2.168   9.160 -0.2584 -0.2418 -0.4374
   81SAPS  H15R 7548   2.724   2.231   9.103  0.1883 -0.0639 -0.8086
   81SAPS  C216 7549   2.932   2.174   9.101 -0.6069  0.0160  0.2191
   81SAPS  H16R 7550   3.004   2.135   9.176 -0.1433  0.4110 -0.0254
   81SAPS  H16S 7551   2.965   2.278   9.083  1.2600 -0.5944 -0.0215
   81SAPS  C217 7552   2.939   2.094   8.972 -0.6127  0.6165  0.4019
   81SAPS  H17R 7553   2.843   2.090   8.917  0.4108 -0.5185 -1.3651
   81SAPS  H17S 7554   2.953   1.988   9.001 -0.4901  0.7520  0.8435
   81SAPS  C218 7555   3.040   2.151   8.873  0.1179  0.3759 -0.2126
   81SAPS  H18R 7556   3.143   2.152   8.916  0.3481 -2.1555 -0.6122
   81SAPS  H18S 7557   3.003   2.250   8.840  1.3107 -0.0571 -2.9712
   81SAPS  C219 7558   3.038   2.060   8.748 -0.0196 -0.7201  0.5619
   81SAPS  H19R 7559   3.029   1.953   8.775  1.3861 -0.7075  1.1504
   81SAPS  H19S 7560   3.135   2.067   8.695 -0.7017  1.8234 -0.4338
   81SAPS  C220 7561   2.913   2.085   8.658 -0.2624  0.4049  0.1233
   81SAPS  H20R 7562   2.832   2.011   8.675  0.1264 -0.3199 -1.1566
   81SAPS  H20S 7563   2.950   2.081   8.553 -0.4593 -0.3316  0.0844
   81SAPS  H20T 7564   2.865   2.185   8.669  1.6265  1.4399 -0.6985
   81SAPS   C33 7565   3.104   2.273  10.066 -0.3026 -0.3041  0.3335
   81SAPS   H3X 7566   3.063   2.170  10.075  0.4841 -0.6134  0.4341
   81SAPS   H3Y 7567   3.214   2.258  10.073 -0.2606 -0.0406  0.2314
   81SAPS   C34 7568   3.078   2.336   9.928  0.1510 -0.3262 -0.1194
   81SAPS   H4X 7569   3.119   2.438   9.915 -4.4239  2.1268  3.3982
   81SAPS   H4Y 7570   2.969   2.350   9.910  0.0982 -0.4060  0.1329
   81SAPS   C35 7571   3.142   2.277   9.807 -0.2444 -0.4459 -0.7394
   81SAPS   H5X 7572   3.080   2.196   9.763 -0.5156 -1.8098  2.0274
   81SAPS   H5Y 7573   3.237   2.235   9.848 -0.6416  0.8030  1.5371
   81SAPS   C36 7574   3.186   2.385   9.702  0.5257 -0.0877  0.6409
   81SAPS   H6X 7575   3.267   2.433   9.761  0.7770  0.1468  0.1032
   81SAPS   H6Y 7576   3.108   2.463   9.687  0.6887 -0.0570 -0.0560
   81SAPS   C37 7577   3.228   2.321   9.570  0.0655 -0.2101 -0.4743
   81SAPS   H7X 7578   3.156   2.254   9.519 -0.6513 -0.0897  0.3654
   81SAPS   H7Y 7579   3.318   2.257   9.589 -0.5724 -1.0489 -0.2409
   81SAPS   C38 7580   3.244   2.430   9.462 -0.2839  1.6929 -0.3802
   81SAPS   H8X 7581   3.345   2.475   9.467 -0.4689  2.0919 -0.1811
   81SAPS   H8Y 7582   3.170   2.509   9.490 -1.2216  0.0807  1.9042
   81SAPS   C39 7583   3.206   2.372   9.321 -0.1380  0.0884  0.3246
   81SAPS   H9X 7584   3.101   2.343   9.344  1.3660 -4.1097  2.5150
   81SAPS   H9Y 7585   3.274   2.285   9.306 -0.8338 -0.1584 -1.4747
   81SAPS  C310 7586   3.213   2.472   9.202 -0.2825 -0.3172 -0.3787
   81SAPS  H10X 7587   3.160   2.567   9.225  0.7263  0.8147 -2.6495
   81SAPS  H10Y 7588   3.161   2.424   9.116 -2.4079  1.8686 -0.3632
   81SAPS  C311 7589   3.358   2.513   9.180  0.4589  0.3077  0.5626
   81SAPS  H11X 7590   3.403   2.552   9.274 -2.6729 -1.3710  2.8365
   81SAPS  H11Y 7591   3.356   2.604   9.117  2.3591  1.3381  1.9359
   81SAPS  C312 7592   3.442   2.402   9.118 -0.4749 -0.6395 -0.5337
   81SAPS  H12X 7593   3.465   2.320   9.189  0.2201 -0.8174 -0.9587
   81SAPS  H12Y 7594   3.537   2.458   9.101 -0.5223 -0.4853 -0.2955
   81SAPS  C313 7595   3.391   2.338   8.993  0.2250  0.1675  0.3451
   81SAPS  H13X 7596   3.290   2.294   9.005  0.5003 -0.6914 -0.3978
   81SAPS  H13Y 7597   3.446   2.243   8.974  0.2756  0.3287 -0.3188
   81SAPS  C314 7598   3.413   2.426   8.868  0.1344 -0.0455  0.8619
   81SAPS  H14X 7599   3.520   2.455   8.856 -0.5589  1.9377 -0.7556
   81SAPS  H14Y 7600   3.352   2.518   8.879  0.1315  0.3096 -1.8935
   81SAPS  C315 7601   3.366   2.347   8.746 -0.0174 -0.1668  0.0365
   81SAPS  H15X 7602   3.360   2.408   8.654 -0.4778 -1.3001 -0.7042
   81SAPS  H15Y 7603   3.264   2.307   8.763 -0.5784  1.1506 -0.2193
   81SAPS  C316 7604   3.466   2.240   8.703  1.0066 -0.3438  0.5985
   81SAPS  H16X 7605   3.456   2.148   8.765 -1.6602 -1.7236 -1.7437
   81SAPS  H16Y 7606   3.571   2.276   8.712  0.8714  0.4035 -0.7573
   81SAPS  C317 7607   3.439   2.204   8.558  0.1231 -0.4855  0.5329
   81SAPS  H17X 7608   3.433   2.292   8.490 -1.2290  0.7537  2.2022
   81SAPS  H17Y 7609   3.333   2.170   8.551 -0.0560  0.6093 -2.9383
   81SAPS  C318 7610   3.541   2.097   8.506 -0.5233  0.0693 -0.5201
   81SAPS  H18X 7611   3.519   2.077   8.398  2.3405  2.3843 -1.5804
   81SAPS  H18Y 7612   3.522   2.002   8.560 -0.4675  0.3452 -0.0176
   81SAPS  H18Z 7613   3.642   2.143   8.512 -1.6754  2.5767  0.1679
   82SAPS     N 7614   1.793   1.356  11.161 -0.7044 -0.5574 -0.3440
   82SAPS   HN1 7615   1.800   1.357  11.265 -0.1816 -0.3541 -0.3792
   82SAPS   HN2 7616   1.825   1.445  11.119  1.5131 -1.1543  0.0328
   82SAPS   HN3 7617   1.702   1.318  11.128 -0.3450 -2.5202  0.8269
   82SAPS   C12 7618   1.907   1.270  11.114  0.3440  0.0056 -0.6986
   82SAPS  H12A 7619   1.998   1.300  11.163 -0.1681 -0.0443  0.3079
   82SAPS   C13 7620   1.884   1.115  11.138  0.1204  0.6227 -0.0042
   82SAPS  O13A 7621   1.780   1.086  11.192  0.0873  0.8047  0.1179
   82SAPS  O13B 7622   1.988   1.047  11.139 -0.3637  0.1745 -0.3829
   82SAPS   C11 7623   1.920   1.290  10.966  0.0949 -0.2455  0.0327
   82SAPS  H11A 7624   1.848   1.231  10.906 -2.4119  0.7730  1.9527
   82SAPS  H11B 7625   2.015   1.245  10.931  0.1819  0.6012 -0.8503
   82SAPS     P 7626   1.990   1.481  10.795 -0.1276  0.2791 -0.3519
   82SAPS   O13 7627   1.918   1.596  10.743  0.5112 -0.2432 -0.0193
   82SAPS   O14 7628   2.138   1.495  10.819  1.1774 -0.7058 -0.2587
   82SAPS   O12 7629   1.920   1.428  10.930  0.2655  0.5663  0.2326
   82SAPS   O11 7630   1.958   1.366  10.689 -0.5632 -1.0805  0.1183
   82SAPS    C1 7631   2.037   1.253  10.668 -0.7655  0.3876 -0.1856
   82SAPS    HA 7632   2.133   1.257  10.722 -1.6711 -0.7406  1.5686
   82SAPS    HB 7633   1.983   1.160  10.694 -2.6536  1.0331 -1.6452
   82SAPS    C2 7634   2.092   1.230  10.522  0.7034  0.6228  0.2801
   82SAPS    HS 7635   2.148   1.323  10.498  0.1016  1.7848  3.1740
   82SAPS   O21 7636   1.976   1.208  10.434  0.2539  0.0858 -0.0220
   82SAPS   C21 7637   1.933   1.313  10.367  0.3663  0.4036  0.1881
   82SAPS   O22 7638   1.976   1.428  10.377  0.7032  0.7894 -0.6014
   82SAPS   C22 7639   1.812   1.279  10.279  0.3361  0.5156 -0.1613
   82SAPS   H2R 7640   1.864   1.236  10.191  0.4388  1.8955 -0.7825
   82SAPS   H2S 7641   1.746   1.199  10.322  0.0642  0.2227 -1.1089
   82SAPS    C3 7642   2.193   1.114  10.522  0.0579 -0.4505 -0.1150
   82SAPS    HX 7643   2.134   1.020  10.537  0.3559 -0.7760 -0.9857
   82SAPS    HY 7644   2.254   1.122  10.615  0.2363 -1.6832 -0.1199
   82SAPS   O31 7645   2.264   1.107  10.396 -0.2542  0.4776 -0.0039
   82SAPS   C31 7646   2.383   1.171  10.399  0.5507 -0.2285  1.0207
   82SAPS   O32 7647   2.424   1.237  10.492 -0.5742 -0.2913  0.5319
   82SAPS   C32 7648   2.463   1.155  10.270 -0.1335 -0.1442 -0.6337
   82SAPS   H2X 7649   2.461   1.057  10.217  1.5855  0.2671 -1.5143
   82SAPS   H2Y 7650   2.565   1.161  10.313 -0.7298 -1.2756  0.9709
   82SAPS   C23 7651   1.728   1.402  10.233 -0.2081 -0.1727 -0.0255
   82SAPS   H3R 7652   1.787   1.496  10.247  2.2775 -1.9986  2.2363
   82SAPS   H3S 7653   1.633   1.413  10.289 -1.1607 -0.6176 -1.5161
   82SAPS   C24 7654   1.698   1.394  10.088 -0.0518 -0.3610  0.1456
   82SAPS   H4R 7655   1.793   1.373  10.034 -0.0058  0.1283  0.0341
   82SAPS   H4S 7656   1.657   1.488  10.044  0.7959  0.3066  0.7689
   82SAPS   C25 7657   1.602   1.281  10.070  1.1423  0.0158  0.2661
   82SAPS   H5R 7658   1.630   1.183  10.111 -0.5891 -0.0178  1.4629
   82SAPS   C26 7659   1.474   1.292  10.025 -0.2177  0.4123  0.4320
   82SAPS   H6R 7660   1.418   1.198  10.016 -0.9196  0.7379  1.3165
   82SAPS   C27 7661   1.407   1.417   9.968 -0.1137 -0.6372  0.0946
   82SAPS   H7R 7662   1.448   1.520   9.978 -1.7858  0.0403  0.1406
   82SAPS   H7S 7663   1.311   1.423  10.023 -0.2443  0.6080 -0.2670
   82SAPS   C28 7664   1.400   1.379   9.819  0.5228 -0.7863  0.0767
   82SAPS   H8R 7665   1.360   1.279   9.795 -0.1947 -0.9491  1.8811
   82SAPS   C29 7666   1.444   1.458   9.725 -0.0019 -0.0737 -0.1031
   82SAPS   H9R 7667   1.427   1.421   9.623  1.0186  2.0638 -1.0882
   82SAPS  C210 7668   1.507   1.597   9.733  0.1878 -0.2239 -0.1956
   82SAPS  H10R 7669   1.569   1.618   9.643 -2.2596  4.1724 -0.9691
   82SAPS  H10S 7670   1.583   1.598   9.814 -2.4070 -1.0073  2.3139
   82SAPS  C211 7671   1.409   1.711   9.758 -0.6988 -0.2503 -0.2820
   82SAPS  H11R 7672   1.331   1.672   9.826 -0.7839 -0.2565 -0.3838
   82SAPS  C212 7673   1.404   1.834   9.713 -0.6606 -0.5338  0.6101
   82SAPS  H12R 7674   1.315   1.893   9.737  1.7538  3.2377  0.7133
   82SAPS  C213 7675   1.515   1.893   9.629 -0.3628  0.7356 -0.3367
   82SAPS  H13R 7676   1.491   1.879   9.521 -2.3854 -1.1635  0.3245
   82SAPS  H13S 7677   1.614   1.847   9.651 -1.5736 -0.9490  1.7701
   82SAPS  C214 7678   1.512   2.041   9.649  0.1037 -0.0062  0.1371
   82SAPS  H14R 7679   1.525   2.070   9.754 -1.0837  0.7618  0.0840
   82SAPS  C215 7680   1.489   2.133   9.561  0.5825 -0.0779  0.3875
   82SAPS  H15R 7681   1.507   2.237   9.592 -1.1812  0.2529  0.3378
   82SAPS  C216 7682   1.461   2.126   9.413 -0.7778 -0.0316  0.1157
   82SAPS  H16R 7683   1.425   2.219   9.365  0.5177  0.8431  0.8371
   82SAPS  H16S 7684   1.368   2.065   9.409 -0.1776 -1.4159  4.6315
   82SAPS  C217 7685   1.572   2.066   9.323 -0.2956 -0.3380 -0.3972
   82SAPS  H17R 7686   1.589   1.961   9.357  0.0088 -0.0811  0.2544
   82SAPS  H17S 7687   1.670   2.118   9.334  1.4346 -3.3824 -0.6656
   82SAPS  C218 7688   1.538   2.048   9.179  0.2240  0.3252 -0.5934
   82SAPS  H18R 7689   1.438   2.000   9.171  0.0879  0.4009  0.5452
   82SAPS  H18S 7690   1.607   1.970   9.139  0.3192  0.9850 -1.7295
   82SAPS  C219 7691   1.552   2.172   9.098  0.2281 -0.4187 -0.5217
   82SAPS  H19R 7692   1.645   2.224   9.130  1.2433 -2.3562 -0.2713
   82SAPS  H19S 7693   1.479   2.256   9.108  1.9342  0.8841  1.2296
   82SAPS  C220 7694   1.562   2.140   8.954 -0.2071 -0.1267  0.6745
   82SAPS  H20R 7695   1.606   2.232   8.909  1.0045 -0.1695  1.7243
   82SAPS  H20S 7696   1.464   2.139   8.903  0.7936  0.1470 -1.3107
   82SAPS  H20T 7697   1.626   2.050   8.938  1.3787  1.0129  0.4484
   82SAPS   C33 7698   2.436   1.260  10.169 -0.6604  0.0837 -0.1329
   82SAPS   H3X 7699   2.507   1.251  10.084  0.3246  1.6501  0.5177
   82SAPS   H3Y 7700   2.464   1.359  10.212 -0.7451  0.2142 -0.3732
   82SAPS   C34 7701   2.295   1.267  10.101  0.0078 -0.3996 -0.4088
   82SAPS   H4X 7702   2.216   1.273  10.179  0.9659 -1.5949  0.6784
   82SAPS   H4Y 7703   2.284   1.170  10.047 -3.5999 -0.4817  0.3421
   82SAPS   C35 7704   2.269   1.380  10.002 -0.6970  0.3438 -0.1230
   82SAPS   H5X 7705   2.362   1.382   9.941  0.7942  2.1035  2.1134
   82SAPS   H5Y 7706   2.261   1.471  10.067  1.2074  0.8390 -0.5606
   82SAPS   C36 7707   2.142   1.353   9.926 -0.3767  0.1848  0.0027
   82SAPS   H6X 7708   2.067   1.341  10.007 -0.7360 -2.2785 -0.6305
   82SAPS   H6Y 7709   2.144   1.255   9.873  0.4042 -0.1660  0.6669
   82SAPS   C37 7710   2.101   1.468   9.831  0.7066  0.2139  0.2580
   82SAPS   H7X 7711   2.180   1.479   9.754 -1.6817  0.1685 -2.2663
   82SAPS   H7Y 7712   2.094   1.565   9.885  1.5008  0.7098 -0.5084
   82SAPS   C38 7713   1.973   1.433   9.766  0.1213 -0.1849 -0.2840
   82SAPS   H8X 7714   1.896   1.469   9.838  0.1693 -0.8836  0.1228
   82SAPS   H8Y 7715   1.947   1.325   9.767  1.0963 -0.4187  0.0197
   82SAPS   C39 7716   1.936   1.504   9.634  0.2122  0.9336  0.1751
   82SAPS   H9X 7717   2.033   1.507   9.579  1.3622  0.8989  2.1635
   82SAPS   H9Y 7718   1.920   1.612   9.654 -0.9853  1.2325 -2.1796
   82SAPS  C310 7719   1.826   1.437   9.550  0.1150  0.6899  0.5179
   82SAPS  H10X 7720   1.736   1.433   9.615  0.7430 -0.2668  1.3354
   82SAPS  H10Y 7721   1.863   1.339   9.515  0.4258  1.2807 -0.8494
   82SAPS  C311 7722   1.786   1.519   9.435 -0.5837  0.5241  0.8009
   82SAPS  H11X 7723   1.871   1.529   9.364 -2.2460  0.5488 -1.2293
   82SAPS  H11Y 7724   1.779   1.623   9.475  0.2292  1.1805 -0.7243
   82SAPS  C312 7725   1.652   1.484   9.376 -0.4361  0.2418  0.3590
   82SAPS  H12X 7726   1.588   1.446   9.458 -1.6584  0.8610 -0.2745
   82SAPS  H12Y 7727   1.676   1.396   9.313 -1.6447 -0.7525  1.2557
   82SAPS  C313 7728   1.595   1.603   9.298  0.5266 -0.6201  0.3769
   82SAPS  H13X 7729   1.581   1.692   9.363  2.2246 -0.0609 -0.0035
   82SAPS  H13Y 7730   1.498   1.575   9.251  0.0638  0.1287  0.8707
   82SAPS  C314 7731   1.688   1.637   9.181 -0.1529  0.7243 -0.0567
   82SAPS  H14X 7732   1.790   1.665   9.217 -0.1685 -1.5328  1.8579
   82SAPS  H14Y 7733   1.655   1.735   9.139  0.9257  1.0742 -0.1100
   82SAPS  C315 7734   1.689   1.525   9.078  0.2026 -0.1399 -0.1384
   82SAPS  H15X 7735   1.586   1.499   9.046  0.2432 -0.3782 -0.0765
   82SAPS  H15Y 7736   1.722   1.427   9.118  2.4105 -0.1059 -1.7761
   82SAPS  C316 7737   1.762   1.551   8.943  0.3901  0.0272 -0.9892
   82SAPS  H16X 7738   1.867   1.582   8.964  0.3208  0.8152 -1.7989
   82SAPS  H16Y 7739   1.715   1.645   8.909 -1.2555 -0.3990  0.0383
   82SAPS  C317 7740   1.738   1.435   8.843  0.2271  0.3756 -0.3813
   82SAPS  H17X 7741   1.783   1.459   8.744  1.6745  1.6494  0.5621
   82SAPS  H17Y 7742   1.627   1.443   8.838 -0.1736 -1.6109  3.6287
   82SAPS  C318 7743   1.781   1.294   8.886 -0.3215 -0.8759 -0.1033
   82SAPS  H18X 7744   1.882   1.297   8.931 -0.1731  1.5695 -0.5466
   82SAPS  H18Y 7745   1.782   1.225   8.799  0.6678 -0.9888 -0.0110
   82SAPS  H18Z 7746   1.709   1.242   8.953 -0.9592 -0.5873 -0.5505
   83SAPS     N 7747   2.924   2.890  10.978 -0.4508 -0.0493 -0.0498
   83SAPS   HN1 7748   2.996   2.922  10.909 -1.0703 -4.2984 -2.8269
   83SAPS   HN2 7749   2.900   2.792  10.956  4.0661 -0.9812 -1.4752
   83SAPS   HN3 7750   2.839   2.949  10.969 -0.3009 -0.0512 -1.6797
   83SAPS   C12 7751   2.981   2.899  11.120 -0.6424  0.7799  0.5821
   83SAPS  H12A 7752   2.989   3.004  11.146 -0.5745  1.3196 -1.5138
   83SAPS   C13 7753   2.901   2.819  11.227  0.7668  0.4613 -0.1562
   83SAPS  O13A 7754   2.810   2.740  11.195  0.0373 -0.3460 -0.6413
   83SAPS  O13B 7755   2.930   2.844  11.344  0.4893 -0.5402  0.1183
   83SAPS   C11 7756   3.128   2.849  11.121  0.5325 -0.7245 -0.6614
   83SAPS  H11A 7757   3.113   2.741  11.101 -1.1943 -1.0677  2.1655
   83SAPS  H11B 7758   3.160   2.862  11.227 -0.6613  1.0387 -0.4909
   83SAPS     P 7759   3.352   2.987  11.058  0.1691  0.4843 -0.3830
   83SAPS   O13 7760   3.335   3.101  11.157 -1.1343  0.1502 -0.3339
   83SAPS   O14 7761   3.441   2.867  11.096 -0.5344  0.5566  0.7034
   83SAPS   O12 7762   3.212   2.911  11.022  0.1573 -0.1099  0.4984
   83SAPS   O11 7763   3.383   3.042  10.919  0.0179  0.3483  0.2639
   83SAPS    C1 7764   3.297   3.152  10.874 -0.2547 -0.2649  0.0186
   83SAPS    HA 7765   3.195   3.154  10.918 -0.4140 -0.6320 -0.3260
   83SAPS    HB 7766   3.336   3.253  10.897 -1.0871  0.0626  0.0151
   83SAPS    C2 7767   3.292   3.141  10.719 -0.3867 -0.5902 -0.8643
   83SAPS    HS 7768   3.210   3.200  10.673 -0.9075 -1.0029 -0.4805
   83SAPS   O21 7769   3.282   3.010  10.673  0.1350  0.7058  0.2672
   83SAPS   C21 7770   3.169   2.949  10.701 -0.2843  0.5969  0.0862
   83SAPS   O22 7771   3.084   2.984  10.781 -0.3382 -0.7543 -0.2419
   83SAPS   C22 7772   3.163   2.818  10.620  0.4116 -0.5933  0.1084
   83SAPS   H2R 7773   3.225   2.819  10.528 -2.2016  2.1318 -1.7326
   83SAPS   H2S 7774   3.215   2.741  10.680 -1.5472 -1.2611  0.9831
   83SAPS    C3 7775   3.420   3.214  10.664  0.6847 -0.9524 -0.1556
   83SAPS    HX 7776   3.503   3.161  10.715  0.0522 -2.0501 -0.2514
   83SAPS    HY 7777   3.418   3.320  10.697 -0.9536 -1.2898  0.9329
   83SAPS   O31 7778   3.418   3.216  10.525  0.5593  0.5460 -0.1181
   83SAPS   C31 7779   3.494   3.128  10.461 -0.7751  0.1491  0.2661
   83SAPS   O32 7780   3.578   3.054  10.509  0.3247  0.5510 -0.1921
   83SAPS   C32 7781   3.446   3.124  10.312 -0.5520 -0.5094  1.0834
   83SAPS   H2X 7782   3.423   3.230  10.288  1.5688 -1.0153 -3.8443
   83SAPS   H2Y 7783   3.348   3.072  10.303  0.0857 -1.8177  1.4984
   83SAPS   C23 7784   3.016   2.776  10.582  0.0867  0.4051 -0.4022
   83SAPS   H3R 7785   2.969   2.757  10.681  1.4252 -1.3258 -0.0732
   83SAPS   H3S 7786   3.018   2.672  10.544 -0.3964 -0.4063  1.7024
   83SAPS   C24 7787   2.931   2.863  10.492  0.4474  0.2281 -0.8363
   83SAPS   H4R 7788   2.933   2.969  10.526  1.4496 -0.1355  0.2550
   83SAPS   H4S 7789   2.827   2.826  10.502  0.5661  0.4089  1.2213
   83SAPS   C25 7790   2.973   2.858  10.342  0.8060 -0.3926  0.4616
   83SAPS   H5R 7791   2.957   2.761  10.293  0.3753  0.9997 -2.2263
   83SAPS   C26 7792   3.031   2.961  10.278 -0.0579 -0.5554 -0.1480
   83SAPS   H6R 7793   3.046   2.946  10.170  2.0243  0.5685 -0.0399
   83SAPS   C27 7794   3.069   3.101  10.330 -0.1358  0.2057  0.5029
   83SAPS   H7R 7795   3.150   3.149  10.271  2.1112 -3.3882  0.5084
   83SAPS   H7S 7796   3.119   3.098  10.429  0.7864  0.8612  0.0625
   83SAPS   C28 7797   2.957   3.200  10.348  0.4631 -0.3133  0.4557
   83SAPS   H8R 7798   2.878   3.164  10.416 -1.8538  2.0549 -0.9085
   83SAPS   C29 7799   2.936   3.319  10.283 -0.2336  0.3129  0.1425
   83SAPS   H9R 7800   2.841   3.371  10.304 -0.1186  0.4541  0.3215
   83SAPS  C210 7801   3.028   3.383  10.180  0.0912 -0.2530  0.6302
   83SAPS  H10R 7802   3.136   3.387  10.207  0.1821 -0.4632  0.3097
   83SAPS  H10S 7803   3.002   3.491  10.184  0.3899 -0.1222 -0.6608
   83SAPS  C211 7804   3.018   3.329  10.038  0.9495 -0.0453  0.1584
   83SAPS  H11R 7805   2.967   3.232  10.035 -1.4279  1.1937 -2.5470
   83SAPS  C212 7806   3.083   3.376   9.927  0.2457  0.7128 -0.5148
   83SAPS  H12R 7807   3.070   3.336   9.825  1.5001  1.0090 -0.7985
   83SAPS  C213 7808   3.179   3.492   9.935 -0.4490 -0.0586 -0.1207
   83SAPS  H13R 7809   3.179   3.545  10.032  1.4020 -0.1053 -0.0729
   83SAPS  H13S 7810   3.152   3.574   9.865  0.7506  0.4996  0.0584
   83SAPS  C214 7811   3.321   3.440   9.900  0.5379 -1.3231 -0.4770
   83SAPS  H14R 7812   3.385   3.410   9.984 -1.4832 -0.9011  1.2556
   83SAPS  C215 7813   3.363   3.416   9.776 -0.2161  0.4451  0.3145
   83SAPS  H15R 7814   3.463   3.377   9.752 -1.1474 -0.8826 -1.4848
   83SAPS  C216 7815   3.282   3.440   9.652 -0.5748 -0.1804  0.1247
   83SAPS  H16R 7816   3.329   3.524   9.597  0.5620 -0.3273  0.8327
   83SAPS  H16S 7817   3.175   3.460   9.670 -0.6190 -1.1544  1.0608
   83SAPS  C217 7818   3.297   3.314   9.565 -0.1856 -0.2159 -0.3188
   83SAPS  H17R 7819   3.277   3.217   9.616  1.1011 -0.8826 -1.0558
   83SAPS  H17S 7820   3.398   3.324   9.520  0.6902 -0.5573  1.5212
   83SAPS  C218 7821   3.208   3.316   9.437  0.6464  0.4480  0.1789
   83SAPS  H18R 7822   3.102   3.294   9.462  1.3730 -5.6321 -1.2697
   83SAPS  H18S 7823   3.246   3.232   9.374  0.8188  0.7550 -0.1259
   83SAPS  C219 7824   3.209   3.443   9.348 -0.1208 -0.0726  0.1998
   83SAPS  H19R 7825   3.308   3.474   9.308 -1.6109  0.3689 -3.3161
   83SAPS  H19S 7826   3.178   3.518   9.424 -0.1879  1.4302 -1.2838
   83SAPS  C220 7827   3.106   3.427   9.239  0.3738  0.4055 -0.4511
   83SAPS  H20R 7828   3.000   3.444   9.269  0.2807  1.9298 -1.5565
   83SAPS  H20S 7829   3.125   3.331   9.187 -0.8474  0.4995 -1.0786
   83SAPS  H20T 7830   3.115   3.503   9.157  0.4068  0.5199 -0.3410
   83SAPS   C33 7831   3.547   3.046  10.218  1.9366 -0.1601 -0.2730
   83SAPS   H3X 7832   3.547   2.938  10.243 -0.2801 -0.4564 -1.4287
   83SAPS   H3Y 7833   3.649   3.089  10.230  0.6539  3.1419 -0.6359
   83SAPS   C34 7834   3.501   3.067  10.072 -0.2633  0.0275  0.2873
   83SAPS   H4X 7835   3.580   3.015  10.015  1.2640 -0.5118  2.8207
   83SAPS   H4Y 7836   3.496   3.176  10.052 -1.9928 -0.0485  0.1770
   83SAPS   C35 7837   3.366   3.012  10.041  0.4520 -0.2856 -0.3236
   83SAPS   H5X 7838   3.281   3.058  10.095  1.2841  0.9532 -0.0520
   83SAPS   H5Y 7839   3.373   2.906  10.076 -0.3403 -0.2288  0.0266
   83SAPS   C36 7840   3.344   3.007   9.888 -0.2805  0.3462  0.1922
   83SAPS   H6X 7841   3.441   2.982   9.841 -0.6299 -0.1302 -0.2807
   83SAPS   H6Y 7842   3.327   3.112   9.854 -0.7492 -0.3388 -1.7712
   83SAPS   C37 7843   3.229   2.912   9.841  0.9030 -0.2133 -0.2214
   83SAPS   H7X 7844   3.132   2.928   9.894  0.7363  0.0277 -0.5938
   83SAPS   H7Y 7845   3.251   2.812   9.885 -3.6409 -1.3644 -0.2595
   83SAPS   C38 7846   3.203   2.922   9.692 -0.3303 -0.9215  0.0532
   83SAPS   H8X 7847   3.162   3.024   9.678  0.4083 -0.6965 -0.5171
   83SAPS   H8Y 7848   3.125   2.846   9.667  0.3004 -1.8027  0.7425
   83SAPS   C39 7849   3.314   2.900   9.601 -0.4208  0.6566  0.0626
   83SAPS   H9X 7850   3.341   2.792   9.605 -2.3916  0.1637  0.4752
   83SAPS   H9Y 7851   3.412   2.944   9.630  0.1841 -1.4146  1.3281
   83SAPS  C310 7852   3.293   2.949   9.458  0.1442  0.3073  0.1311
   83SAPS  H10X 7853   3.386   2.986   9.412  0.5742 -2.1093 -0.9866
   83SAPS  H10Y 7854   3.220   3.032   9.449  0.4897  0.6560  0.5341
   83SAPS  C311 7855   3.231   2.831   9.372  0.0857 -0.4427 -0.1708
   83SAPS  H11X 7856   3.138   2.783   9.409 -2.2439  1.8680 -2.8129
   83SAPS  H11Y 7857   3.307   2.751   9.355  2.9233  2.4248 -1.4199
   83SAPS  C312 7858   3.192   2.886   9.237  0.2245  0.2514 -0.5442
   83SAPS  H12X 7859   3.123   2.973   9.242  1.2584  1.1563 -1.5864
   83SAPS  H12Y 7860   3.137   2.815   9.172 -0.7715  1.1814 -0.7231
   83SAPS  C313 7861   3.311   2.919   9.142  0.1996  0.1974 -0.4650
   83SAPS  H13X 7862   3.381   2.833   9.137  2.7071  2.2009 -0.9091
   83SAPS  H13Y 7863   3.375   3.000   9.185  1.9804 -2.0008  1.1392
   83SAPS  C314 7864   3.256   2.969   9.004 -0.1190  0.3882 -0.5571
   83SAPS  H14X 7865   3.197   2.890   8.952 -1.0901  1.3769 -0.9976
   83SAPS  H14Y 7866   3.340   2.989   8.935  1.6918  0.2119  1.5607
   83SAPS  C315 7867   3.173   3.093   9.014  0.5247  0.6126  0.1428
   83SAPS  H15X 7868   3.245   3.175   9.035 -0.1220  0.5310  2.9583
   83SAPS  H15Y 7869   3.097   3.099   9.095  0.5195 -0.2052  0.2034
   83SAPS  C316 7870   3.097   3.141   8.887  0.5362 -0.2208  0.0357
   83SAPS  H16X 7871   3.022   3.065   8.855  0.7169 -0.7240  0.8121
   83SAPS  H16Y 7872   3.164   3.142   8.798 -0.4741  1.2611 -0.7152
   83SAPS  C317 7873   3.033   3.277   8.892  0.3842 -0.0720 -0.5855
   83SAPS  H17X 7874   3.106   3.347   8.938  3.3326 -3.6559  0.4542
   83SAPS  H17Y 7875   2.952   3.265   8.968 -0.0720 -0.6703 -1.1597
   83SAPS  C318 7876   2.969   3.335   8.768  0.0301  0.5990 -0.3956
   83SAPS  H18X 7877   3.045   3.366   8.693 -0.6116  0.3355 -1.1687
   83SAPS  H18Y 7878   2.913   3.427   8.796  0.8284  1.4425 -1.5517
   83SAPS  H18Z 7879   2.899   3.264   8.717  0.7919  0.5676 -1.4138
   84SAPS     N 7880   5.501   2.241  11.091  0.5812 -1.0377  0.2894
   84SAPS   HN1 7881   5.507   2.274  10.992  3.0233 -2.3657 -0.0362
   84SAPS   HN2 7882   5.556   2.313  11.142  0.0988 -1.3641  1.2838
   84SAPS   HN3 7883   5.549   2.150  11.106  1.2933 -0.7689 -0.3547
   84SAPS   C12 7884   5.366   2.248  11.149  1.1349 -0.9136  0.7454
   84SAPS  H12A 7885   5.316   2.177  11.084 -1.8773  0.8716  1.0244
   84SAPS   C13 7886   5.367   2.186  11.295 -0.3194  0.4520 -0.4436
   84SAPS  O13A 7887   5.478   2.151  11.347 -0.3880  0.2874  0.1841
   84SAPS  O13B 7888   5.259   2.160  11.351 -0.6042  0.0525  0.4424
   84SAPS   C11 7889   5.304   2.393  11.148  0.1500  0.0066 -0.3583
   84SAPS  H11A 7890   5.349   2.455  11.228  0.6708  0.7739 -1.2432
   84SAPS  H11B 7891   5.195   2.386  11.173 -0.1420 -0.4080 -1.7275
   84SAPS     P 7892   5.222   2.535  10.949 -0.3135 -0.0283  0.3116
   84SAPS   O13 7893   5.120   2.580  11.050  0.6117 -0.3715  0.0552
   84SAPS   O14 7894   5.293   2.639  10.874  0.0991 -0.2952 -0.0060
   84SAPS   O12 7895   5.329   2.452  11.028 -0.0375 -0.5892 -0.0756
   84SAPS   O11 7896   5.160   2.429  10.843 -0.3663 -0.3083 -0.1928
   84SAPS    C1 7897   5.256   2.359  10.771 -1.3075  0.1631 -1.1040
   84SAPS    HA 7898   5.360   2.397  10.759 -0.6819 -1.2072 -0.2039
   84SAPS    HB 7899   5.263   2.260  10.822 -0.6946  1.2062  0.8904
   84SAPS    C2 7900   5.196   2.323  10.634  0.1956 -0.6046  0.3933
   84SAPS    HS 7901   5.268   2.258  10.580 -0.6424 -0.2537 -1.1881
   84SAPS   O21 7902   5.154   2.444  10.558 -0.4028  0.1252  0.5458
   84SAPS   C21 7903   5.241   2.517  10.509 -0.0835  0.0221  0.0837
   84SAPS   O22 7904   5.352   2.476  10.473  0.1705 -0.3347 -1.0118
   84SAPS   C22 7905   5.191   2.664  10.510 -0.5121 -0.1906 -0.5058
   84SAPS   H2R 7906   5.080   2.660  10.505 -0.4974 -0.6362 -0.4599
   84SAPS   H2S 7907   5.224   2.704  10.608  0.8099 -0.8146 -0.6827
   84SAPS    C3 7908   5.070   2.234  10.647 -0.1441  0.1170 -0.0111
   84SAPS    HX 7909   5.003   2.284  10.721  3.7591  2.1029  2.3593
   84SAPS    HY 7910   5.089   2.132  10.687  1.3944  0.5179  0.3053
   84SAPS   O31 7911   5.000   2.215  10.522  0.6117  0.3055  0.2388
   84SAPS   C31 7912   5.032   2.109  10.453 -0.3821  0.1322  0.0014
   84SAPS   O32 7913   5.098   2.015  10.497 -0.5274 -0.2592 -0.0985
   84SAPS   C32 7914   4.988   2.132  10.307 -0.1469 -0.4620  0.2186
   84SAPS   H2X 7915   4.878   2.127  10.300 -0.2046  1.3312 -0.2816
   84SAPS   H2Y 7916   5.033   2.045  10.254 -0.5579 -0.9721  0.7011
   84SAPS   C23 7917   5.252   2.742  10.392  0.0842  0.3473  0.0629
   84SAPS   H3R 7918   5.362   2.727  10.395 -0.3277 -3.5505 -1.5666
   84SAPS   H3S 7919   5.231   2.851  10.403  1.3729  0.5553  0.4752
   84SAPS   C24 7920   5.206   2.704  10.254  0.1397  0.4442  0.2516
   84SAPS   H4R 7921   5.112   2.754  10.221  1.6228  2.2648 -1.3026
   84SAPS   H4S 7922   5.181   2.596  10.262  1.4135  0.0717 -0.6401
   84SAPS   C25 7923   5.307   2.720  10.146 -0.0868 -0.1823  0.6183
   84SAPS   H5R 7924   5.405   2.694  10.188 -1.7479 -2.1853  3.4119
   84SAPS   C26 7925   5.285   2.759  10.017  0.3971  0.6704  0.6317
   84SAPS   H6R 7926   5.370   2.763   9.947  0.3131  0.4039  0.5145
   84SAPS   C27 7927   5.143   2.791   9.980 -0.6002 -0.4802 -0.3776
   84SAPS   H7R 7928   5.118   2.887  10.030 -0.4440 -0.4255 -0.4041
   84SAPS   H7S 7929   5.086   2.711  10.031 -1.2503 -1.4383 -2.5348
   84SAPS   C28 7930   5.125   2.790   9.829  0.1897  0.2267  0.9429
   84SAPS   H8R 7931   5.215   2.788   9.765  0.6296 -1.3857  1.5711
   84SAPS   C29 7932   5.013   2.794   9.760  0.1258  0.2457 -0.0576
   84SAPS   H9R 7933   5.018   2.788   9.650  0.8583 -2.2976  0.0826
   84SAPS  C210 7934   4.878   2.799   9.825 -0.4843  0.3380  0.2793
   84SAPS  H10R 7935   4.871   2.898   9.875  1.3748 -0.7952  2.9454
   84SAPS  H10S 7936   4.865   2.731   9.912  1.8574  1.4948  1.5913
   84SAPS  C211 7937   4.762   2.782   9.729 -0.0845  0.5755  0.8790
   84SAPS  H11R 7938   4.743   2.676   9.703  1.1926  0.4883  0.2828
   84SAPS  C212 7939   4.676   2.875   9.682  0.6533  0.5929 -0.4668
   84SAPS  H12R 7940   4.607   2.840   9.603 -0.6256  1.2186  0.3565
   84SAPS  C213 7941   4.679   3.022   9.702  0.5676  0.1687 -0.3663
   84SAPS  H13R 7942   4.707   3.078   9.610  2.0306  2.1487  1.2374
   84SAPS  H13S 7943   4.756   3.038   9.781  0.4770  0.5129 -0.3465
   84SAPS  C214 7944   4.546   3.063   9.743 -0.4043 -0.5199 -0.3251
   84SAPS  H14R 7945   4.526   3.047   9.850  2.2619  2.0863  0.6485
   84SAPS  C215 7946   4.463   3.142   9.677  0.4092 -0.0805  0.3599
   84SAPS  H15R 7947   4.361   3.167   9.712  0.4118 -0.5452  0.7099
   84SAPS  C216 7948   4.487   3.192   9.532 -0.2035 -0.9118 -0.5702
   84SAPS  H16R 7949   4.546   3.123   9.467  0.0362 -1.5955  0.3545
   84SAPS  H16S 7950   4.540   3.289   9.536  0.6655 -1.3163 -1.8261
   84SAPS  C217 7951   4.365   3.204   9.448  0.2329  0.3824 -0.2748
   84SAPS  H17R 7952   4.293   3.277   9.491  0.7750  1.3208 -0.9454
   84SAPS  H17S 7953   4.313   3.106   9.460  3.5297 -1.4011  0.1228
   84SAPS  C218 7954   4.375   3.247   9.297 -0.2448 -0.7646  0.3207
   84SAPS  H18R 7955   4.459   3.193   9.248 -0.1000 -0.4668  0.2414
   84SAPS  H18S 7956   4.418   3.349   9.296  1.3693 -1.4257 -0.9280
   84SAPS  C219 7957   4.241   3.239   9.237  0.0395 -0.5978  0.0703
   84SAPS  H19R 7958   4.172   3.321   9.265  0.4731  0.3453 -1.5442
   84SAPS  H19S 7959   4.194   3.139   9.247  0.8631 -0.8767  1.2240
   84SAPS  C220 7960   4.252   3.265   9.083 -0.1170 -0.0883 -0.5007
   84SAPS  H20R 7961   4.150   3.278   9.040 -0.0738 -0.6246 -0.7721
   84SAPS  H20S 7962   4.303   3.183   9.029  0.1509 -1.5178  1.8958
   84SAPS  H20T 7963   4.302   3.361   9.058  1.7416 -0.5068  1.5281
   84SAPS   C33 7964   5.031   2.271  10.247 -0.0816 -0.4619 -0.9489
   84SAPS   H3X 7965   5.132   2.299  10.283 -0.4261 -1.0018  0.4925
   84SAPS   H3Y 7966   4.963   2.348  10.291 -2.3761 -1.8692 -1.9520
   84SAPS   C34 7967   5.019   2.272  10.095  0.1143 -0.3749  0.3443
   84SAPS   H4X 7968   4.926   2.222  10.060  0.2938  0.1272 -0.8695
   84SAPS   H4Y 7969   5.104   2.223  10.043  1.3305  1.2293  0.7819
   84SAPS   C35 7970   5.038   2.412  10.030 -0.0718  0.5191  0.7399
   84SAPS   H5X 7971   5.139   2.440  10.068  1.7463 -1.0906 -2.7141
   84SAPS   H5Y 7972   4.958   2.480  10.065 -1.7743 -1.4044  0.7238
   84SAPS   C36 7973   5.036   2.414   9.872  0.3192  0.4299 -0.4753
   84SAPS   H6X 7974   5.106   2.334   9.840  0.2226  0.4383 -0.7156
   84SAPS   H6Y 7975   5.082   2.509   9.838  1.8146 -0.0018  0.3291
   84SAPS   C37 7976   4.897   2.384   9.814 -0.6913  0.4593 -0.0598
   84SAPS   H7X 7977   4.819   2.452   9.856 -1.5303 -0.5951  0.1231
   84SAPS   H7Y 7978   4.881   2.276   9.837  0.6104  0.1163 -0.7452
   84SAPS   C38 7979   4.905   2.399   9.661 -0.2434 -0.7680 -0.0208
   84SAPS   H8X 7980   4.967   2.321   9.611 -0.2039  1.1782 -3.1468
   84SAPS   H8Y 7981   4.957   2.495   9.643  2.5317 -2.6170 -2.4185
   84SAPS   C39 7982   4.758   2.403   9.609 -0.1299  0.1635 -0.4483
   84SAPS   H9X 7983   4.696   2.456   9.685  1.2403 -0.5677  1.2394
   84SAPS   H9Y 7984   4.722   2.302   9.580 -0.5415  0.2612 -0.2818
   84SAPS  C310 7985   4.750   2.495   9.479  0.0426  0.2736 -0.0440
   84SAPS  H10X 7986   4.781   2.431   9.394 -0.5798 -0.4971  0.3059
   84SAPS  H10Y 7987   4.812   2.584   9.504  1.3477 -1.3831  2.8261
   84SAPS  C311 7988   4.606   2.529   9.435  0.0678  0.0711  0.2457
   84SAPS  H11X 7989   4.557   2.591   9.513 -0.9386  1.7917 -1.7054
   84SAPS  H11Y 7990   4.549   2.434   9.429  0.3995 -0.0990 -0.2088
   84SAPS  C312 7991   4.588   2.609   9.309 -0.1666  0.5214 -0.4251
   84SAPS  H12X 7992   4.478   2.615   9.296 -0.6968 -2.2816  2.2747
   84SAPS  H12Y 7993   4.619   2.546   9.223 -0.5976 -1.8839  1.1266
   84SAPS  C313 7994   4.642   2.748   9.317 -0.2294 -0.5460 -0.1781
   84SAPS  H13X 7995   4.753   2.746   9.321 -0.1489  1.8782 -0.6701
   84SAPS  H13Y 7996   4.614   2.809   9.406 -1.5098 -1.0988 -0.1866
   84SAPS  C314 7997   4.598   2.829   9.192 -0.0957  0.1550 -0.0603
   84SAPS  H14X 7998   4.610   2.934   9.228 -0.5948  0.1547  0.1172
   84SAPS  H14Y 7999   4.491   2.814   9.166  0.0853 -3.0480  0.9039
   84SAPS  C315 8000   4.687   2.792   9.066  1.2618 -0.7211  0.3470
   84SAPS  H15X 8001   4.711   2.684   9.078  0.9220 -0.7953  0.3438
   84SAPS  H15Y 8002   4.779   2.854   9.076  1.0825 -0.3306 -0.4176
   84SAPS  C316 8003   4.626   2.834   8.929  0.3592  0.4663 -0.1960
   84SAPS  H16X 8004   4.521   2.796   8.926  1.5086 -2.8292 -0.1601
   84SAPS  H16Y 8005   4.682   2.788   8.846  1.6967 -0.1190  1.0135
   84SAPS  C317 8006   4.636   2.979   8.902 -0.2556  0.5893 -0.5996
   84SAPS  H17X 8007   4.743   3.004   8.883 -0.2547  0.4864 -0.7318
   84SAPS  H17Y 8008   4.619   3.042   8.992 -1.0901 -0.1636 -0.2232
   84SAPS  C318 8009   4.559   3.035   8.783 -0.2327 -0.5450 -0.4215
   84SAPS  H18X 8010   4.455   3.007   8.810  0.5895 -2.1436  1.2391
   84SAPS  H18Y 8011   4.570   2.980   8.687 -0.5611 -1.2755 -0.0446
   84SAPS  H18Z 8012   4.561   3.145   8.767 -0.5325 -0.6315 -1.0536
   85SAPS     N 8013   1.962   4.993  10.678  0.2533 -0.2083 -0.5718
   85SAPS   HN1 8014   1.896   5.053  10.730  2.3496  2.7765 -1.2090
   85SAPS   HN2 8015   2.016   5.049  10.608  2.3143  0.2802  1.3465
   85SAPS   HN3 8016   1.914   4.914  10.630 -1.2191 -0.4588  1.2761
   85SAPS   C12 8017   2.070   4.941  10.755 -0.1024  0.0732 -0.0461
   85SAPS  H12A 8018   2.153   4.909  10.694  0.8900 -0.1002  1.3719
   85SAPS   C13 8019   2.136   5.040  10.853  0.2492  0.1732  0.0533
   85SAPS  O13A 8020   2.100   5.157  10.868  0.0675  0.1348 -0.3693
   85SAPS  O13B 8021   2.240   4.995  10.909  0.3308  0.2841  0.7117
   85SAPS   C11 8022   2.036   4.824  10.845 -0.2304 -0.1892  0.4031
   85SAPS  H11A 8023   1.987   4.864  10.937  0.9124  2.2037  0.0166
   85SAPS  H11B 8024   2.134   4.782  10.873  0.6742  1.0598 -0.8384
   85SAPS     P 8025   1.900   4.605  10.841  0.4972  0.1094  0.2956
   85SAPS   O13 8026   1.946   4.605  10.981  0.3147 -0.3084 -0.1217
   85SAPS   O14 8027   1.750   4.596  10.822 -0.5597  0.1851 -0.1894
   85SAPS   O12 8028   1.956   4.730  10.767 -0.7385 -0.3651  0.3093
   85SAPS   O11 8029   1.959   4.482  10.763  0.1295  0.1456  0.0221
   85SAPS    C1 8030   2.099   4.469  10.734 -0.2436 -0.3975  0.6606
   85SAPS    HA 8031   2.155   4.527  10.810 -0.4747 -0.3068  0.7618
   85SAPS    HB 8032   2.125   4.361  10.738  1.3909 -0.2704 -3.9954
   85SAPS    C2 8033   2.156   4.526  10.593 -0.2852  0.4037 -1.1014
   85SAPS    HS 8034   2.155   4.635  10.573  0.5050  0.7047  0.4299
   85SAPS   O21 8035   2.108   4.456  10.481 -0.4275 -0.4849  0.1204
   85SAPS   C21 8036   2.007   4.507  10.409 -0.0104 -0.3970 -0.5351
   85SAPS   O22 8037   1.955   4.612  10.434  0.5303  0.4120  0.4786
   85SAPS   C22 8038   1.967   4.420  10.290  0.3325  0.2173  0.0205
   85SAPS   H2R 8039   1.936   4.319  10.325  1.1551 -0.4139 -1.0233
   85SAPS   H2S 8040   1.891   4.485  10.242 -1.5704 -2.0209 -0.0480
   85SAPS    C3 8041   2.303   4.496  10.610 -0.0494 -0.2103  0.4682
   85SAPS    HX 8042   2.321   4.390  10.640 -0.2084 -0.1401  0.8167
   85SAPS    HY 8043   2.335   4.552  10.700  0.5152 -0.6154  0.5213
   85SAPS   O31 8044   2.379   4.535  10.494  0.3406  0.5231  0.3514
   85SAPS   C31 8045   2.402   4.666  10.484 -0.4673 -0.5911 -0.2205
   85SAPS   O32 8046   2.365   4.753  10.566 -0.3136 -0.1409  0.1053
   85SAPS   C32 8047   2.456   4.696  10.341  0.0567 -0.2819  0.1000
   85SAPS   H2X 8048   2.546   4.762  10.345  0.6606 -1.2190  2.2466
   85SAPS   H2Y 8049   2.382   4.759  10.286  0.4640 -0.9111 -1.1903
   85SAPS   C23 8050   2.079   4.398  10.192 -0.1475  0.0048 -0.3554
   85SAPS   H3R 8051   2.164   4.351  10.246 -2.3368 -2.2786  1.2245
   85SAPS   H3S 8052   2.124   4.495  10.161  0.6359 -0.2467 -0.0075
   85SAPS   C24 8053   2.044   4.298  10.074 -0.3546  0.5844 -0.4745
   85SAPS   H4R 8054   2.010   4.202  10.119  1.3493  0.3511  0.4016
   85SAPS   H4S 8055   2.138   4.278  10.018  1.3253  2.2036  1.6560
   85SAPS   C25 8056   1.930   4.357   9.997  0.4149 -0.0738 -0.1506
   85SAPS   H5R 8057   1.834   4.369  10.051 -0.2863 -1.6133 -1.0381
   85SAPS   C26 8058   1.927   4.391   9.867  0.2913  0.6428 -0.0258
   85SAPS   H6R 8059   1.837   4.433   9.820 -1.0525 -1.0132  1.0019
   85SAPS   C27 8060   2.036   4.364   9.763  0.4413 -0.6752 -0.3163
   85SAPS   H7R 8061   2.017   4.264   9.721  1.1407 -2.0500  2.4959
   85SAPS   H7S 8062   2.128   4.363   9.827  0.4485  2.8701 -0.1520
   85SAPS   C28 8063   2.023   4.476   9.662 -0.3207  0.2269 -0.3353
   85SAPS   H8R 8064   2.043   4.576   9.704  2.2522 -1.1625  1.9464
   85SAPS   C29 8065   1.989   4.462   9.531  0.2838  0.6011 -0.6512
   85SAPS   H9R 8066   1.970   4.556   9.477 -0.0813  0.5147 -0.6784
   85SAPS  C210 8067   1.968   4.329   9.456 -0.9540 -0.1821 -0.2134
   85SAPS  H10R 8068   1.924   4.243   9.511  1.6949 -0.0248  2.2742
   85SAPS  H10S 8069   2.070   4.297   9.424 -0.7379 -2.3837  2.4697
   85SAPS  C211 8070   1.882   4.346   9.333  0.1586  0.1561 -0.4789
   85SAPS  H11R 8071   1.797   4.415   9.345  0.7689  0.8043  0.1772
   85SAPS  C212 8072   1.893   4.271   9.230  0.3805  0.1117 -0.3339
   85SAPS  H12R 8073   1.821   4.280   9.147  2.4520 -0.9165 -2.2730
   85SAPS  C213 8074   2.002   4.170   9.211  0.0199 -0.2646  0.3663
   85SAPS  H13R 8075   2.004   4.083   9.281 -2.2542 -0.7033 -0.0699
   85SAPS  H13S 8076   2.100   4.220   9.229 -1.3854  2.1269  1.5513
   85SAPS  C214 8077   1.989   4.128   9.065 -0.2094 -0.4670  0.0099
   85SAPS  H14R 8078   1.950   4.027   9.047  1.4298 -0.9056 -1.2246
   85SAPS  C215 8079   2.026   4.201   8.955 -0.6961 -0.1938 -0.3227
   85SAPS  H15R 8080   2.010   4.160   8.854  0.2381  1.5080 -1.1911
   85SAPS  C216 8081   2.083   4.340   8.943  0.4901  0.0543  0.6208
   85SAPS  H16R 8082   2.190   4.332   8.916 -0.0914  0.1319 -1.8789
   85SAPS  H16S 8083   2.097   4.389   9.041  1.8135 -0.3002  0.6253
   85SAPS  C217 8084   2.003   4.439   8.853 -0.2474  0.2575  0.0074
   85SAPS  H17R 8085   2.060   4.534   8.860  2.0471 -1.0372 -0.5762
   85SAPS  H17S 8086   1.899   4.462   8.886  0.3345  1.0333  1.3396
   85SAPS  C218 8087   1.990   4.380   8.708  0.0047  0.1857 -0.1290
   85SAPS  H18R 8088   1.925   4.290   8.714 -1.8295  1.5269  0.5627
   85SAPS  H18S 8089   2.094   4.356   8.675 -0.3432 -1.2521 -0.1918
   85SAPS  C219 8090   1.948   4.492   8.614  0.8542 -0.1039  0.8350
   85SAPS  H19R 8091   2.026   4.571   8.611  0.0768  0.6140 -1.2495
   85SAPS  H19S 8092   1.854   4.538   8.652  0.9768  0.8347  0.0244
   85SAPS  C220 8093   1.922   4.441   8.471 -0.9569 -0.1347  1.3915
   85SAPS  H20R 8094   1.862   4.514   8.413 -1.8260  0.0185  2.4628
   85SAPS  H20S 8095   1.853   4.354   8.472 -2.3129  0.8807 -1.4921
   85SAPS  H20T 8096   2.015   4.402   8.424 -1.9589 -0.8370 -0.0236
   85SAPS   C33 8097   2.469   4.574  10.241  0.1931  0.3533 -0.2156
   85SAPS   H3X 8098   2.397   4.591  10.158 -1.5464 -0.9400  1.0034
   85SAPS   H3Y 8099   2.439   4.477  10.286  1.4834 -0.6861 -1.5493
   85SAPS   C34 8100   2.605   4.558  10.175  0.3294 -0.1028 -0.5658
   85SAPS   H4X 8101   2.680   4.533  10.254  1.4844  3.3932 -0.4934
   85SAPS   H4Y 8102   2.643   4.651  10.129  0.8704  0.4310  0.9036
   85SAPS   C35 8103   2.618   4.444  10.071  0.2228 -1.1087  0.7889
   85SAPS   H5X 8104   2.558   4.356  10.102  1.0860 -1.0951  2.5292
   85SAPS   H5Y 8105   2.726   4.422  10.066  0.3533 -0.2360 -0.5059
   85SAPS   C36 8106   2.572   4.494   9.937 -0.1892  0.7136  0.5094
   85SAPS   H6X 8107   2.615   4.589   9.898 -1.7787  0.9603 -0.6524
   85SAPS   H6Y 8108   2.469   4.527   9.959 -0.1800  2.3910 -1.8031
   85SAPS   C37 8109   2.567   4.387   9.824 -0.7063 -0.2799 -0.5131
   85SAPS   H7X 8110   2.539   4.289   9.868 -1.8149  0.1042 -0.3379
   85SAPS   H7Y 8111   2.662   4.371   9.769  0.3837  2.1927  0.5709
   85SAPS   C38 8112   2.462   4.433   9.717 -0.0877  0.1771 -0.2944
   85SAPS   H8X 8113   2.460   4.544   9.708  2.0971  0.1073 -2.0008
   85SAPS   H8Y 8114   2.359   4.409   9.752  0.5427 -1.5660  0.4203
   85SAPS   C39 8115   2.488   4.368   9.582  0.2660  0.0475  0.1948
   85SAPS   H9X 8116   2.464   4.260   9.596 -0.8649  0.1753 -0.6741
   85SAPS   H9Y 8117   2.594   4.373   9.550  0.3089 -0.1947  0.2948
   85SAPS  C310 8118   2.412   4.438   9.466 -0.0448  0.3073  0.1745
   85SAPS  H10X 8119   2.458   4.536   9.440 -0.4915  0.9165  1.6627
   85SAPS  H10Y 8120   2.308   4.459   9.501 -0.8143  0.9625 -2.3881
   85SAPS  C311 8121   2.402   4.353   9.336 -0.7244 -0.3544 -0.9114
   85SAPS  H11X 8122   2.377   4.247   9.361  0.5333 -0.6772 -1.0369
   85SAPS  H11Y 8123   2.503   4.352   9.291 -0.1194 -0.4609  0.4189
   85SAPS  C312 8124   2.317   4.430   9.235 -0.2486  0.1479 -0.0126
   85SAPS  H12X 8125   2.221   4.458   9.284 -1.7110 -2.4835 -1.2262
   85SAPS  H12Y 8126   2.290   4.360   9.152 -2.7702 -0.9590  1.6555
   85SAPS  C313 8127   2.388   4.550   9.172 -0.1602  0.4041 -0.1874
   85SAPS  H13X 8128   2.493   4.525   9.148  0.3120  0.0704  2.1096
   85SAPS  H13Y 8129   2.395   4.637   9.240  0.5471 -0.3841  0.7578
   85SAPS  C314 8130   2.326   4.594   9.039 -0.0558 -0.1544 -0.0894
   85SAPS  H14X 8131   2.220   4.619   9.063  0.0402 -1.3114  1.6596
   85SAPS  H14Y 8132   2.310   4.507   8.971 -3.4767  0.4219 -0.1017
   85SAPS  C315 8133   2.401   4.708   8.960 -0.1654 -0.6414 -0.1822
   85SAPS  H15X 8134   2.498   4.669   8.924  0.1633  0.2273 -0.2488
   85SAPS  H15Y 8135   2.407   4.802   9.019  0.4780  0.3675 -1.8248
   85SAPS  C316 8136   2.337   4.759   8.828  0.4110 -0.1474 -0.2515
   85SAPS  H16X 8137   2.306   4.675   8.762 -0.6208  0.9281 -1.1660
   85SAPS  H16Y 8138   2.407   4.816   8.764 -0.5003  2.0443  0.6312
   85SAPS  C317 8139   2.235   4.868   8.857  0.1038 -0.1990  0.5920
   85SAPS  H17X 8140   2.271   4.955   8.915 -0.8265  2.3578 -2.5031
   85SAPS  H17Y 8141   2.147   4.830   8.914  0.1171  0.2545  0.9152
   85SAPS  C318 8142   2.186   4.926   8.724 -0.4552 -0.0815  0.8037
   85SAPS  H18X 8143   2.262   4.983   8.667 -1.0960  1.2247  1.2373
   85SAPS  H18Y 8144   2.109   5.006   8.737 -1.1303 -0.6701  0.4828
   85SAPS  H18Z 8145   2.159   4.847   8.650  0.8320  0.9627 -0.8191
   86SAPS     N 8146   4.586   3.715  11.085  0.3733  0.0044  0.1037
   86SAPS   HN1 8147   4.579   3.728  11.188 -1.9309  0.1817 -0.0395
   86SAPS   HN2 8148   4.609   3.618  11.055 -0.2249  0.1045 -0.6917
   86SAPS   HN3 8149   4.650   3.783  11.040 -1.6638  0.9664 -1.4279
   86SAPS   C12 8150   4.448   3.740  11.035  0.2528 -0.3419 -0.3608
   86SAPS  H12A 8151   4.450   3.703  10.934 -0.1096 -1.7046  0.1290
   86SAPS   C13 8152   4.346   3.647  11.099 -0.0260 -0.0992  0.2206
   86SAPS  O13A 8153   4.376   3.587  11.204 -0.3159  0.5606  0.2105
   86SAPS  O13B 8154   4.229   3.665  11.059  0.0953  0.7966 -0.4433
   86SAPS   C11 8155   4.419   3.892  11.049  1.3652  0.0203 -0.1926
   86SAPS  H11A 8156   4.392   3.924  11.152 -1.6119  1.2147 -1.3206
   86SAPS  H11B 8157   4.326   3.913  10.992 -0.1179 -2.5637  1.1641
   86SAPS     P 8158   4.509   4.131  10.961  0.3746 -0.8114 -0.2767
   86SAPS   O13 8159   4.366   4.163  10.985  0.4463 -0.3095  0.4684
   86SAPS   O14 8160   4.611   4.221  11.021 -0.0925 -0.0941 -0.0454
   86SAPS   O12 8161   4.523   3.975  11.009  0.2273 -0.2193 -0.6414
   86SAPS   O11 8162   4.539   4.112  10.806  0.1257  0.1137  0.0870
   86SAPS    C1 8163   4.483   4.016  10.716 -0.2145  0.2009 -0.0761
   86SAPS    HA 8164   4.550   4.012  10.628  0.4406  0.0380  0.4275
   86SAPS    HB 8165   4.478   3.913  10.756  1.8383  0.2973  0.4637
   86SAPS    C2 8166   4.333   4.061  10.671 -0.2808  0.1333 -0.0559
   86SAPS    HS 8167   4.272   4.069  10.764 -1.9554  1.5836 -1.2433
   86SAPS   O21 8168   4.293   3.968  10.574 -0.0588 -0.0216  0.5977
   86SAPS   C21 8169   4.164   3.970  10.561 -0.2256  0.1805 -0.3212
   86SAPS   O22 8170   4.083   4.029  10.626  0.0440  0.6729 -0.3420
   86SAPS   C22 8171   4.133   3.904  10.417 -0.6853  0.0087  0.7029
   86SAPS   H2R 8172   4.177   3.974  10.342 -0.4170  0.2410  1.0736
   86SAPS   H2S 8173   4.188   3.807  10.414  0.6180  0.7543 -0.4782
   86SAPS    C3 8174   4.345   4.203  10.618  0.1504 -0.4874 -0.1105
   86SAPS    HX 8175   4.372   4.273  10.700  1.6870  0.7683 -1.6505
   86SAPS    HY 8176   4.243   4.231  10.583  0.4618  0.1239 -0.5392
   86SAPS   O31 8177   4.425   4.197  10.504 -0.6127 -0.2905  0.4854
   86SAPS   C31 8178   4.503   4.302  10.480  0.0795  0.0851  0.0690
   86SAPS   O32 8179   4.509   4.402  10.550  0.3200 -0.3340 -0.3326
   86SAPS   C32 8180   4.560   4.293  10.337 -0.0818  0.1732  0.3638
   86SAPS   H2X 8181   4.488   4.240  10.271  0.7408  0.5359 -0.8377
   86SAPS   H2Y 8182   4.648   4.227  10.342 -0.1347  0.1947  1.9100
   86SAPS   C23 8183   3.982   3.887  10.377  0.0166  0.0912  0.2228
   86SAPS   H3R 8184   3.932   3.974  10.425  0.8476  2.0529 -2.2937
   86SAPS   H3S 8185   3.948   3.795  10.427  2.6303 -0.1563  1.6380
   86SAPS   C24 8186   3.962   3.901  10.229 -0.5850  0.1290 -0.4813
   86SAPS   H4R 8187   3.854   3.874  10.224 -0.8144  0.9772 -0.3261
   86SAPS   H4S 8188   4.016   3.822  10.173  2.1227  1.3558  0.3222
   86SAPS   C25 8189   3.980   4.041  10.182 -0.5441  0.1511  0.2691
   86SAPS   H5R 8190   3.972   4.120  10.258 -0.8453 -0.4849  0.8992
   86SAPS   C26 8191   4.000   4.095  10.058  0.6849  0.1148  0.1117
   86SAPS   H6R 8192   4.000   4.204  10.049 -0.6890  0.2411  1.5236
   86SAPS   C27 8193   4.034   4.007   9.940  0.1642  0.1808 -0.2276
   86SAPS   H7R 8194   3.971   3.918   9.923 -0.7131  0.8818 -0.6806
   86SAPS   H7S 8195   4.139   3.974   9.959  0.9576  1.5264 -2.1097
   86SAPS   C28 8196   4.042   4.089   9.820 -0.2174 -0.2058 -0.2550
   86SAPS   H8R 8197   4.130   4.151   9.795 -0.2081 -0.8833 -2.0428
   86SAPS   C29 8198   3.946   4.085   9.727 -0.2957  0.1627  0.0563
   86SAPS   H9R 8199   3.958   4.147   9.637 -1.7834  0.7308  0.2289
   86SAPS  C210 8200   3.824   4.009   9.742 -1.0752 -0.6325 -0.0219
   86SAPS  H10R 8201   3.799   3.971   9.843 -2.4424 -0.7242 -0.3864
   86SAPS  H10S 8202   3.836   3.914   9.684  0.0987  0.3910 -1.5040
   86SAPS  C211 8203   3.705   4.100   9.691 -0.6629  0.0072 -0.4155
   86SAPS  H11R 8204   3.673   4.176   9.764  0.6995  0.1229  0.0839
   86SAPS  C212 8205   3.660   4.097   9.565  0.6219 -1.1256 -0.4064
   86SAPS  H12R 8206   3.585   4.173   9.539  0.2058 -1.2438  0.4263
   86SAPS  C213 8207   3.692   4.000   9.459 -0.5972  0.1958 -0.3084
   86SAPS  H13R 8208   3.599   3.961   9.412 -0.5965 -0.1794 -0.0052
   86SAPS  H13S 8209   3.734   3.905   9.499 -1.4343 -0.1619 -0.2764
   86SAPS  C214 8210   3.787   4.047   9.358 -0.2182 -0.1584 -0.1532
   86SAPS  H14R 8211   3.891   4.026   9.387 -0.7218  0.4446  2.1475
   86SAPS  C215 8212   3.754   4.093   9.241  1.0423  0.4183 -0.6562
   86SAPS  H15R 8213   3.842   4.132   9.188  0.5689  0.2124 -1.6024
   86SAPS  C216 8214   3.618   4.122   9.185 -0.0975  0.0782 -0.0445
   86SAPS  H16R 8215   3.616   4.226   9.146 -0.5271  0.2203  0.3480
   86SAPS  H16S 8216   3.540   4.104   9.262  1.3797 -1.3755  1.1550
   86SAPS  C217 8217   3.584   4.039   9.060  0.1547 -0.0976 -0.7213
   86SAPS  H17R 8218   3.479   4.038   9.025  0.1015 -1.4559 -0.5471
   86SAPS  H17S 8219   3.591   3.935   9.098  1.8592  0.1342 -0.3184
   86SAPS  C218 8220   3.680   4.062   8.941  0.1838  0.0747  0.4687
   86SAPS  H18R 8221   3.687   3.962   8.893 -0.1486 -0.8598  2.2852
   86SAPS  H18S 8222   3.780   4.093   8.978  0.5706 -2.0199  1.2938
   86SAPS  C219 8223   3.640   4.169   8.836  0.1163  0.1892  0.0245
   86SAPS  H19R 8224   3.557   4.130   8.774  1.4326 -0.9299 -1.0630
   86SAPS  H19S 8225   3.725   4.178   8.766  2.1408  0.7006  2.4549
   86SAPS  C220 8226   3.595   4.311   8.886 -0.3472 -0.2420 -0.2088
   86SAPS  H20R 8227   3.672   4.364   8.946  0.6327 -1.3225 -0.4919
   86SAPS  H20S 8228   3.498   4.295   8.939  0.1436 -1.0743  0.4593
   86SAPS  H20T 8229   3.574   4.375   8.797  1.4501 -1.0777 -1.2493
   86SAPS   C33 8230   4.612   4.424  10.293  0.7555  0.2851  0.1543
   86SAPS   H3X 8231   4.668   4.477  10.374  0.5729 -1.0141  1.1445
   86SAPS   H3Y 8232   4.530   4.494  10.270 -1.8974 -1.9697  2.4358
   86SAPS   C34 8233   4.710   4.410  10.170  0.2003  0.3454 -0.1043
   86SAPS   H4X 8234   4.764   4.316  10.193 -1.4451 -0.4295  0.6606
   86SAPS   H4Y 8235   4.786   4.491  10.173  1.8863 -1.3104  3.3510
   86SAPS   C35 8236   4.636   4.402  10.041  0.3114 -0.8699 -0.2914
   86SAPS   H5X 8237   4.575   4.494  10.027 -0.6179 -1.4475 -0.0767
   86SAPS   H5Y 8238   4.564   4.318  10.049 -0.2360 -0.3643  0.2626
   86SAPS   C36 8239   4.733   4.369   9.926 -0.0005 -0.1152  0.5737
   86SAPS   H6X 8240   4.801   4.287   9.956  0.3326 -0.6258 -1.5117
   86SAPS   H6Y 8241   4.799   4.458   9.918  1.0718 -1.0929 -1.9316
   86SAPS   C37 8242   4.676   4.339   9.787 -0.6180 -0.5372 -0.0927
   86SAPS   H7X 8243   4.610   4.424   9.760 -1.1868 -0.5136  1.2952
   86SAPS   H7Y 8244   4.612   4.248   9.781 -1.0790 -0.1565 -0.9871
   86SAPS   C38 8245   4.795   4.335   9.687  0.3116 -0.0448 -0.0284
   86SAPS   H8X 8246   4.848   4.239   9.706  1.2329  0.5397  0.3831
   86SAPS   H8Y 8247   4.866   4.419   9.703  0.3960  0.2503 -1.8163
   86SAPS   C39 8248   4.757   4.344   9.538  0.3277  0.0748 -0.3180
   86SAPS   H9X 8249   4.723   4.449   9.524 -0.3661 -0.0310  0.6035
   86SAPS   H9Y 8250   4.671   4.280   9.510 -0.0407  0.8689 -1.0276
   86SAPS  C310 8251   4.873   4.314   9.449 -0.0363  0.4458  0.2732
   86SAPS  H10X 8252   4.886   4.204   9.448 -2.4522  0.1243  0.3893
   86SAPS  H10Y 8253   4.967   4.365   9.480 -0.6009  0.6397  1.6783
   86SAPS  C311 8254   4.841   4.371   9.308 -0.1072 -0.2069 -0.6890
   86SAPS  H11X 8255   4.733   4.370   9.280 -0.6098 -0.4732  1.2036
   86SAPS  H11Y 8256   4.887   4.314   9.224  0.0039 -0.6688 -0.3158
   86SAPS  C312 8257   4.899   4.516   9.303  0.8987 -0.0359  0.6914
   86SAPS  H12X 8258   5.010   4.516   9.307  0.8818 -0.0250  1.1708
   86SAPS  H12Y 8259   4.852   4.576   9.384 -0.7238  0.4298 -0.5725
   86SAPS  C313 8260   4.862   4.591   9.176 -0.1971  0.3000 -0.1080
   86SAPS  H13X 8261   4.757   4.566   9.149 -0.4280  0.2524  0.7868
   86SAPS  H13Y 8262   4.939   4.547   9.110  0.6164  0.0945  0.9669
   86SAPS  C314 8263   4.871   4.741   9.179 -0.5504 -0.0631 -0.1969
   86SAPS  H14X 8264   4.961   4.772   9.236 -0.9869 -3.2436  2.3170
   86SAPS  H14Y 8265   4.795   4.778   9.250  0.6408  0.3453  0.8813
   86SAPS  C315 8266   4.849   4.828   9.049 -0.1153 -0.0616 -0.2724
   86SAPS  H15X 8267   4.848   4.936   9.075 -2.7231 -0.1765  0.2550
   86SAPS  H15Y 8268   4.746   4.809   9.012 -0.8148  1.1100  1.0351
   86SAPS  C316 8269   4.956   4.811   8.949 -0.6583 -0.4644  0.2980
   86SAPS  H16X 8270   4.970   4.701   8.943  0.3673 -0.4205  1.4863
   86SAPS  H16Y 8271   5.047   4.865   8.983 -0.7604 -1.0734  1.5846
   86SAPS  C317 8272   4.938   4.856   8.803 -0.3170  0.2672 -0.1874
   86SAPS  H17X 8273   5.028   4.818   8.751  0.1813 -2.5945  2.6412
   86SAPS  H17Y 8274   4.922   4.966   8.803 -0.9479  0.1805  0.7221
   86SAPS  C318 8275   4.816   4.797   8.737 -0.2559  0.4118 -0.2793
   86SAPS  H18X 8276   4.825   4.687   8.723 -0.1175  0.3054  0.6349
   86SAPS  H18Y 8277   4.815   4.832   8.632 -1.0146  1.1324 -0.0409
   86SAPS  H18Z 8278   4.719   4.806   8.790 -0.6161  0.8534 -1.0154
   87SAPS     N 8279   3.880   5.159  10.976  0.2073  0.4031 -0.8023
   87SAPS   HN1 8280   3.877   5.056  10.967  3.1411  0.0391  1.3529
   87SAPS   HN2 8281   3.798   5.199  11.026 -0.5461 -0.7588 -1.0935
   87SAPS   HN3 8282   3.860   5.202  10.884  0.6929  0.3373 -0.9408
   87SAPS   C12 8283   4.011   5.217  11.029  0.3280  0.1297 -0.2744
   87SAPS  H12A 8284   4.030   5.299  10.962 -2.8404  0.2048 -1.1795
   87SAPS   C13 8285   4.000   5.265  11.172 -0.6551  0.2139 -0.5560
   87SAPS  O13A 8286   3.909   5.219  11.247  0.0127 -0.6450 -0.0571
   87SAPS  O13B 8287   4.093   5.341  11.207  0.2046  0.4445 -0.6094
   87SAPS   C11 8288   4.121   5.098  11.010  0.5636 -0.1065 -0.9187
   87SAPS  H11A 8289   4.081   5.006  11.058 -2.5597  1.2446 -0.8402
   87SAPS  H11B 8290   4.209   5.136  11.067 -1.8000  0.2862  2.6499
   87SAPS     P 8291   4.290   5.027  10.819 -0.3805  0.4998 -0.1229
   87SAPS   O13 8292   4.385   5.082  10.915  0.1144  0.6312 -0.3481
   87SAPS   O14 8293   4.276   4.880  10.808 -0.2060  0.8452 -0.1278
   87SAPS   O12 8294   4.153   5.087  10.871 -0.1679 -0.1746 -0.7630
   87SAPS   O11 8295   4.303   5.085  10.675  0.1015 -0.2387  0.0423
   87SAPS    C1 8296   4.200   5.154  10.611 -0.1292  0.1060  0.2601
   87SAPS    HA 8297   4.101   5.106  10.625  0.3966 -0.3992  2.4216
   87SAPS    HB 8298   4.196   5.259  10.649  0.6858 -0.0646  0.8285
   87SAPS    C2 8299   4.217   5.157  10.458  0.2544  0.2409  0.4943
   87SAPS    HS 8300   4.113   5.151  10.421  0.8965  0.7102 -1.4354
   87SAPS   O21 8301   4.301   5.054  10.406 -0.3137  0.0393  0.0687
   87SAPS   C21 8302   4.250   4.941  10.425 -0.1820  0.4276 -0.4564
   87SAPS   O22 8303   4.138   4.918  10.461  0.6758 -0.1826  0.5858
   87SAPS   C22 8304   4.372   4.834  10.420 -0.0780 -0.6320  0.3296
   87SAPS   H2R 8305   4.459   4.884  10.467  0.5206 -1.8840  0.5751
   87SAPS   H2S 8306   4.355   4.751  10.492  1.1600  0.7476  2.2702
   87SAPS    C3 8307   4.272   5.299  10.400 -0.0280 -0.2496 -0.3241
   87SAPS    HX 8308   4.375   5.331  10.430 -0.7682  0.1473  1.8582
   87SAPS    HY 8309   4.198   5.372  10.439 -0.6740 -0.5056 -1.0757
   87SAPS   O31 8310   4.264   5.289  10.253 -0.1418  0.2082  0.2380
   87SAPS   C31 8311   4.141   5.320  10.202 -0.5997  0.6419  0.1212
   87SAPS   O32 8312   4.045   5.349  10.271 -0.1342  0.1525  0.1548
   87SAPS   C32 8313   4.149   5.322  10.045 -0.5829 -0.4688  0.2592
   87SAPS   H2X 8314   4.087   5.232  10.025 -1.9397  0.1136  1.7574
   87SAPS   H2Y 8315   4.256   5.319  10.015  0.0461 -0.1145  2.4166
   87SAPS   C23 8316   4.413   4.772  10.285  0.0773  0.0763 -0.7772
   87SAPS   H3R 8317   4.343   4.690  10.262 -0.3893  0.6663 -1.4972
   87SAPS   H3S 8318   4.506   4.719  10.315  0.1571  0.3056 -0.6198
   87SAPS   C24 8319   4.457   4.870  10.183  0.0393  0.6798 -0.0689
   87SAPS   H4R 8320   4.539   4.828  10.120  0.7503  1.4214  0.3531
   87SAPS   H4S 8321   4.506   4.957  10.231 -0.2475 -0.3250  2.0658
   87SAPS   C25 8322   4.339   4.918  10.102 -0.7300  0.3630 -0.5857
   87SAPS   H5R 8323   4.269   4.978  10.161  1.3558  1.1324  1.1653
   87SAPS   C26 8324   4.318   4.916   9.966 -0.2638 -0.1836 -0.6091
   87SAPS   H6R 8325   4.226   4.958   9.921 -0.7024 -0.9019 -0.3930
   87SAPS   C27 8326   4.401   4.845   9.865 -0.1137 -0.0746 -0.0356
   87SAPS   H7R 8327   4.335   4.769   9.817 -0.2508  1.6509 -2.6947
   87SAPS   H7S 8328   4.478   4.790   9.922  0.2092  0.1768 -0.2247
   87SAPS   C28 8329   4.460   4.937   9.764 -0.3671 -0.7058  0.0296
   87SAPS   H8R 8330   4.427   5.041   9.770  1.2810 -0.1413 -0.4221
   87SAPS   C29 8331   4.550   4.882   9.682  0.3899 -0.5091  0.4935
   87SAPS   H9R 8332   4.589   4.949   9.604  1.4829  0.0701  1.5111
   87SAPS  C210 8333   4.591   4.737   9.678  0.6814 -0.8113  0.4560
   87SAPS  H10R 8334   4.602   4.712   9.570  1.2442 -2.2879  0.8312
   87SAPS  H10S 8335   4.513   4.666   9.712  0.0812 -1.1793 -1.5887
   87SAPS  C211 8336   4.727   4.712   9.734 -0.2690 -0.0480  0.0700
   87SAPS  H11R 8337   4.719   4.660   9.830 -0.1607  0.7221  0.5057
   87SAPS  C212 8338   4.845   4.755   9.688  0.2713 -0.1256  0.1391
   87SAPS  H12R 8339   4.931   4.732   9.752 -1.3251 -0.8272  2.0898
   87SAPS  C213 8340   4.875   4.846   9.569 -0.5606  0.5250  0.4204
   87SAPS  H13R 8341   4.784   4.867   9.509  0.2799 -0.4155 -1.2105
   87SAPS  H13S 8342   4.953   4.812   9.498 -1.8623  0.6988 -1.1234
   87SAPS  C214 8343   4.931   4.979   9.623 -0.4602 -0.0618 -0.9278
   87SAPS  H14R 8344   4.904   4.992   9.729 -2.1489 -0.8348 -1.2441
   87SAPS  C215 8345   4.989   5.078   9.551  0.3215  0.4012  0.1502
   87SAPS  H15R 8346   5.047   5.161   9.596  3.3832 -1.0821 -0.9063
   87SAPS  C216 8347   5.009   5.077   9.397  0.4930 -0.6815  0.5820
   87SAPS  H16R 8348   4.925   5.141   9.361  0.8982 -0.1833  0.5175
   87SAPS  H16S 8349   4.981   4.975   9.364  0.3884 -0.7435  0.8561
   87SAPS  C217 8350   5.149   5.105   9.342 -0.1046 -0.0642  0.6701
   87SAPS  H17R 8351   5.213   5.029   9.392 -1.3221 -0.6631  1.3160
   87SAPS  H17S 8352   5.184   5.208   9.365 -2.2201  0.8582 -0.1779
   87SAPS  C218 8353   5.149   5.082   9.190  0.2143 -0.0374 -0.2729
   87SAPS  H18R 8354   5.058   5.133   9.152 -0.5000 -1.0380  0.0919
   87SAPS  H18S 8355   5.137   4.976   9.162  0.5146  0.1559 -1.1315
   87SAPS  C219 8356   5.278   5.126   9.118 -0.3048 -0.2794 -0.2376
   87SAPS  H19R 8357   5.367   5.072   9.156 -0.0229  0.5935  0.3345
   87SAPS  H19S 8358   5.290   5.235   9.129  2.8026 -0.4111 -1.7796
   87SAPS  C220 8359   5.268   5.090   8.966 -0.3040  0.4024  0.7054
   87SAPS  H20R 8360   5.344   5.137   8.900 -2.9017 -0.6007 -3.1403
   87SAPS  H20S 8361   5.168   5.123   8.932  0.1611  1.2258  0.1033
   87SAPS  H20T 8362   5.274   4.980   8.959 -1.9420  0.3682 -0.2212
   87SAPS   C33 8363   4.091   5.462   9.979 -0.0757 -0.2061 -0.3614
   87SAPS   H3X 8364   4.121   5.543  10.049 -1.3777 -1.0303  1.2000
   87SAPS   H3Y 8365   3.982   5.464  10.000 -0.0734  0.8200 -0.4446
   87SAPS   C34 8366   4.125   5.492   9.834  0.8467  0.0655 -0.2284
   87SAPS   H4X 8367   4.234   5.498   9.819  1.1731  1.6369  2.3616
   87SAPS   H4Y 8368   4.077   5.590   9.815  0.0855  0.0091  1.2641
   87SAPS   C35 8369   4.077   5.377   9.740  0.2444 -0.2944 -0.2816
   87SAPS   H5X 8370   3.967   5.376   9.726  0.0039 -1.3402  1.4925
   87SAPS   H5Y 8371   4.088   5.269   9.767 -0.3826 -0.5821 -1.1608
   87SAPS   C36 8372   4.134   5.396   9.595  0.1354 -0.3417  0.2364
   87SAPS   H6X 8373   4.108   5.498   9.559 -0.7192 -0.5112  0.3471
   87SAPS   H6Y 8374   4.076   5.327   9.529  0.5428 -0.0687 -0.4128
   87SAPS   C37 8375   4.285   5.366   9.585 -0.1379 -0.1463  0.4200
   87SAPS   H7X 8376   4.315   5.277   9.644 -1.2316 -0.4090  0.5848
   87SAPS   H7Y 8377   4.340   5.452   9.630  0.4536 -0.4596  0.3004
   87SAPS   C38 8378   4.311   5.333   9.442 -0.4594  0.0990  0.7676
   87SAPS   H8X 8379   4.304   5.430   9.387  0.2893  1.2984  2.7567
   87SAPS   H8Y 8380   4.239   5.260   9.398 -0.1364 -0.3698  1.0184
   87SAPS   C39 8381   4.457   5.284   9.414  0.7821  0.3885 -0.1428
   87SAPS   H9X 8382   4.494   5.194   9.467 -1.3101 -0.7633 -0.6142
   87SAPS   H9Y 8383   4.539   5.358   9.430 -0.3941  1.6072  0.3134
   87SAPS  C310 8384   4.474   5.241   9.267  0.9259  0.5229 -0.0314
   87SAPS  H10X 8385   4.438   5.321   9.198  1.3885 -0.0159 -0.9057
   87SAPS  H10Y 8386   4.401   5.159   9.246  3.5762 -1.4033 -2.1384
   87SAPS  C311 8387   4.606   5.175   9.230 -0.4761  1.4281  0.6191
   87SAPS  H11X 8388   4.631   5.087   9.293 -0.6743  0.3879 -0.7423
   87SAPS  H11Y 8389   4.689   5.247   9.245  0.3050  0.9845 -1.3106
   87SAPS  C312 8390   4.620   5.127   9.088 -0.1892  0.1855  0.0447
   87SAPS  H12X 8391   4.593   5.019   9.082 -1.6541  0.5376  0.1097
   87SAPS  H12Y 8392   4.723   5.126   9.047 -0.3325  1.6378 -0.3642
   87SAPS  C313 8393   4.535   5.204   8.987  0.5327 -0.2084 -0.4386
   87SAPS  H13X 8394   4.546   5.313   9.002 -2.9741  0.1951 -0.3739
   87SAPS  H13Y 8395   4.430   5.175   9.006  0.4295 -0.2504 -1.0415
   87SAPS  C314 8396   4.567   5.169   8.841  0.0082 -0.5792 -0.2194
   87SAPS  H14X 8397   4.551   5.061   8.824  0.4468 -0.3891 -1.8587
   87SAPS  H14Y 8398   4.674   5.197   8.829  0.1785 -0.2565  1.8545
   87SAPS  C315 8399   4.463   5.240   8.739  0.2444  0.4097  0.5642
   87SAPS  H15X 8400   4.481   5.349   8.745 -2.3920  1.1514 -2.9499
   87SAPS  H15Y 8401   4.362   5.220   8.781  0.5476 -0.7534  0.7506
   87SAPS  C316 8402   4.470   5.184   8.592 -0.2221  0.9632 -0.6539
   87SAPS  H16X 8403   4.388   5.247   8.550 -3.4478 -0.0167  3.7814
   87SAPS  H16Y 8404   4.430   5.081   8.600 -1.0520  1.3811  0.8835
   87SAPS  C317 8405   4.601   5.197   8.507  0.1687 -0.1983 -0.2453
   87SAPS  H17X 8406   4.643   5.298   8.523  3.0563 -1.2148 -1.1699
   87SAPS  H17Y 8407   4.571   5.185   8.400  4.3311 -1.0092 -1.3868
   87SAPS  C318 8408   4.701   5.081   8.530  0.7256 -0.1783 -0.4595
   87SAPS  H18X 8409   4.792   5.110   8.473  0.5668  0.5141 -0.3704
   87SAPS  H18Y 8410   4.664   4.986   8.487 -2.3185  1.1862 -1.0292
   87SAPS  H18Z 8411   4.732   5.071   8.636  1.1301  1.1192 -0.4470
   88SAPS     N 8412   6.503   3.364  10.794 -0.1767 -0.1261  0.3988
   88SAPS   HN1 8413   6.471   3.268  10.770  0.9658 -1.2191  2.9530
   88SAPS   HN2 8414   6.487   3.423  10.710 -1.2821 -1.6780 -0.4960
   88SAPS   HN3 8415   6.605   3.347  10.812  0.0345  1.0513  0.3406
   88SAPS   C12 8416   6.435   3.420  10.918 -0.0619 -0.4601  0.1068
   88SAPS  H12A 8417   6.451   3.346  10.995  2.4189  0.5163  0.5763
   88SAPS   C13 8418   6.498   3.548  10.970 -0.5223  0.4439 -0.8349
   88SAPS  O13A 8419   6.536   3.635  10.886  0.2939  0.4682 -0.1154
   88SAPS  O13B 8420   6.481   3.567  11.094  0.0637 -0.7227  0.1776
   88SAPS   C11 8421   6.282   3.441  10.889 -0.2394  0.3306 -0.3422
   88SAPS  H11A 8422   6.286   3.506  10.799 -0.3813  0.1179 -0.5023
   88SAPS  H11B 8423   6.247   3.503  10.974  0.2352 -0.4659  0.4401
   88SAPS     P 8424   6.085   3.281  10.950 -0.0034  0.2233 -0.1284
   88SAPS   O13 8425   6.130   3.237  11.085 -0.3832  0.0384  0.1562
   88SAPS   O14 8426   6.002   3.400  10.959 -0.1883 -1.0993  0.3526
   88SAPS   O12 8427   6.201   3.324  10.867  0.2658  0.1632 -0.7552
   88SAPS   O11 8428   6.021   3.168  10.868 -0.4212  0.2147 -0.5836
   88SAPS    C1 8429   6.109   3.078  10.801 -0.1827  0.1182  0.5932
   88SAPS    HA 8430   6.196   3.044  10.861 -0.0115 -1.4779 -0.5334
   88SAPS    HB 8431   6.047   2.987  10.785 -0.2417 -0.0064  1.5025
   88SAPS    C2 8432   6.143   3.136  10.657 -0.1593 -0.2153  0.2800
   88SAPS    HS 8433   6.203   3.227  10.677 -1.3768  0.4758  0.8061
   88SAPS   O21 8434   6.023   3.160  10.587  0.1624  0.1502  0.5463
   88SAPS   C21 8435   6.038   3.256  10.503  0.0955  0.1030 -0.3212
   88SAPS   O22 8436   6.121   3.346  10.506 -0.1723 -0.7075  0.5257
   88SAPS   C22 8437   5.936   3.237  10.387  0.0148 -0.0381  0.6144
   88SAPS   H2R 8438   5.864   3.160  10.422 -0.5522  0.2280  0.0557
   88SAPS   H2S 8439   5.882   3.334  10.383  0.7677  0.4182  1.5241
   88SAPS    C3 8440   6.228   3.038  10.569  0.5536  0.6288  0.2901
   88SAPS    HX 8441   6.165   2.949  10.548  1.0173  0.2625  0.4435
   88SAPS    HY 8442   6.315   2.998  10.626  0.8784 -0.0186 -0.6401
   88SAPS   O31 8443   6.287   3.097  10.450 -0.3915  0.2425 -0.2725
   88SAPS   C31 8444   6.396   3.177  10.483  0.8776  0.2056  0.8410
   88SAPS   O32 8445   6.428   3.204  10.596 -0.4917  0.0861 -0.3163
   88SAPS   C32 8446   6.457   3.222  10.351  0.5350  0.3464  0.1589
   88SAPS   H2X 8447   6.423   3.328  10.343  1.1559  0.4546 -1.2050
   88SAPS   H2Y 8448   6.412   3.162  10.269  0.6195  0.2011  0.2195
   88SAPS   C23 8449   6.009   3.194  10.258  1.2014  0.0156  0.1273
   88SAPS   H3R 8450   6.029   3.086  10.274  0.4814  0.0594  1.4004
   88SAPS   H3S 8451   6.113   3.232  10.254  1.3947 -0.5631 -0.4288
   88SAPS   C24 8452   5.926   3.221  10.136 -0.3617  0.1112 -0.2411
   88SAPS   H4R 8453   5.892   3.327  10.140 -2.8449 -0.6635  0.5456
   88SAPS   H4S 8454   5.833   3.162  10.154  1.1051 -2.4181 -0.6052
   88SAPS   C25 8455   6.008   3.201  10.012 -0.0741 -0.2571 -0.2636
   88SAPS   H5R 8456   6.115   3.185  10.028 -0.1569  0.7245  1.3286
   88SAPS   C26 8457   5.956   3.197   9.885 -0.1322  0.3446  0.1640
   88SAPS   H6R 8458   6.016   3.168   9.797  2.1075 -2.9036  2.6437
   88SAPS   C27 8459   5.811   3.207   9.853  0.0673 -0.1772 -0.5490
   88SAPS   H7R 8460   5.758   3.234   9.947 -0.0259 -1.4031 -0.2357
   88SAPS   H7S 8461   5.767   3.115   9.808 -0.5785  0.6105 -1.5628
   88SAPS   C28 8462   5.794   3.331   9.759  0.1367  0.3805  0.2642
   88SAPS   H8R 8463   5.746   3.418   9.808  1.1281  1.8703 -1.3507
   88SAPS   C29 8464   5.815   3.326   9.631 -0.9661 -0.6974  0.9976
   88SAPS   H9R 8465   5.816   3.423   9.580 -0.2108 -1.2757 -0.1194
   88SAPS  C210 8466   5.860   3.216   9.541  0.4604  0.1590 -1.0182
   88SAPS  H10R 8467   5.784   3.135   9.556  0.8473 -0.2166 -1.0900
   88SAPS  H10S 8468   5.958   3.171   9.566 -0.4487 -2.5546 -2.0708
   88SAPS  C211 8469   5.850   3.260   9.402 -0.4175 -0.0181  0.8413
   88SAPS  H11R 8470   5.786   3.346   9.377 -0.1311 -0.1852 -0.4926
   88SAPS  C212 8471   5.916   3.210   9.296  0.3099 -0.1185  0.5859
   88SAPS  H12R 8472   5.906   3.264   9.201  1.3934 -0.6224  0.1856
   88SAPS  C213 8473   5.998   3.088   9.285  0.4294 -0.0021  0.1957
   88SAPS  H13R 8474   5.939   3.005   9.240 -0.6214  0.8031  0.0739
   88SAPS  H13S 8475   6.030   3.052   9.385  0.9970  0.0237  0.0244
   88SAPS  C214 8476   6.112   3.135   9.190  0.0688 -0.0676 -0.2378
   88SAPS  H14R 8477   6.171   3.225   9.216  1.8232 -0.5801 -2.2744
   88SAPS  C215 8478   6.133   3.063   9.073 -0.6721  0.3747  0.6885
   88SAPS  H15R 8479   6.217   3.088   9.007 -0.6320 -1.8798 -0.1797
   88SAPS  C216 8480   6.056   2.933   9.034  0.3048  0.1703  0.4734
   88SAPS  H16R 8481   5.947   2.948   9.047  0.2652  0.5631 -0.3020
   88SAPS  H16S 8482   6.088   2.849   9.099 -2.1939 -1.4860 -0.3695
   88SAPS  C217 8483   6.056   2.906   8.878 -0.3058 -1.2673 -0.6147
   88SAPS  H17R 8484   6.162   2.894   8.846  0.0959  2.4110 -0.8495
   88SAPS  H17S 8485   6.011   2.994   8.826  0.2045  0.2378  1.4342
   88SAPS  C218 8486   5.969   2.786   8.850  0.7154  0.7214  0.3980
   88SAPS  H18R 8487   5.882   2.777   8.918 -0.8299  0.7075 -1.5383
   88SAPS  H18S 8488   6.027   2.692   8.865  0.7228  0.3170 -1.9224
   88SAPS  C219 8489   5.916   2.763   8.703 -0.0254  0.6828  0.2832
   88SAPS  H19R 8490   6.000   2.764   8.632 -0.8250  3.7202 -0.7003
   88SAPS  H19S 8491   5.842   2.838   8.667 -0.6934 -0.3891 -0.5935
   88SAPS  C220 8492   5.841   2.628   8.688  0.0082  0.4867 -0.3584
   88SAPS  H20R 8493   5.764   2.625   8.768  0.9016  0.9879  0.5298
   88SAPS  H20S 8494   5.909   2.542   8.705  0.4191  0.8449 -0.2016
   88SAPS  H20T 8495   5.798   2.612   8.586  1.5066  0.5129 -1.0005
   88SAPS   C33 8496   6.606   3.215  10.369 -0.3061  0.9165 -0.4704
   88SAPS   H3X 8497   6.631   3.108  10.385  0.8469  1.3357  0.6295
   88SAPS   H3Y 8498   6.643   3.271  10.458 -1.5359  1.2317 -0.1357
   88SAPS   C34 8499   6.674   3.278  10.252  0.0099 -0.2056 -0.0704
   88SAPS   H4X 8500   6.782   3.293  10.275 -0.0565  0.0581  0.0739
   88SAPS   H4Y 8501   6.635   3.381  10.243  1.7863  0.6252  1.2369
   88SAPS   C35 8502   6.644   3.206  10.123  0.9158 -0.3109  0.8853
   88SAPS   H5X 8503   6.535   3.208  10.101  0.9646 -0.7841  0.6123
   88SAPS   H5Y 8504   6.662   3.099  10.148 -2.3975 -1.0823  0.1853
   88SAPS   C36 8505   6.714   3.271  10.002 -0.3590  0.2963 -0.5077
   88SAPS   H6X 8506   6.824   3.280  10.018 -0.2642  0.1410 -1.0751
   88SAPS   H6Y 8507   6.683   3.376   9.987  3.7686  1.9828  1.7301
   88SAPS   C37 8508   6.691   3.189   9.878 -0.3081 -0.3182  0.8305
   88SAPS   H7X 8509   6.585   3.188   9.846  0.2418  2.0549 -1.3123
   88SAPS   H7Y 8510   6.717   3.086   9.911  0.9941 -0.1388  0.4174
   88SAPS   C38 8511   6.789   3.222   9.763 -0.4512  0.6174 -0.9201
   88SAPS   H8X 8512   6.897   3.219   9.790 -0.4007 -0.4086 -1.2100
   88SAPS   H8Y 8513   6.775   3.330   9.741 -0.2755  0.9876  0.7493
   88SAPS   C39 8514   6.773   3.121   9.647 -0.3145 -0.0971  0.0029
   88SAPS   H9X 8515   6.663   3.121   9.627 -0.6372  2.7317  1.4563
   88SAPS   H9Y 8516   6.793   3.017   9.680  0.2944 -0.8772 -2.6467
   88SAPS  C310 8517   6.862   3.160   9.529  0.8422  0.8631  0.2482
   88SAPS  H10X 8518   6.967   3.163   9.564  1.2387  0.3790 -0.8880
   88SAPS  H10Y 8519   6.838   3.259   9.485 -2.2517  0.1317  0.1668
   88SAPS  C311 8520   6.845   3.061   9.407 -0.0702  0.5813  0.2299
   88SAPS  H11X 8521   6.736   3.061   9.388 -0.6545 -0.5727  3.2850
   88SAPS  H11Y 8522   6.865   2.959   9.446  0.2673  0.5598  0.0049
   88SAPS  C312 8523   6.920   3.091   9.272  0.0889 -0.2268 -1.0094
   88SAPS  H12X 8524   7.029   3.083   9.295 -0.2658  0.4361  1.0170
   88SAPS  H12Y 8525   6.886   3.194   9.247  0.7650  0.4249  0.6636
   88SAPS  C313 8526   6.885   2.991   9.155 -0.2430 -0.3202 -0.4171
   88SAPS  H13X 8527   6.782   3.023   9.127 -1.1430 -1.4043  1.5014
   88SAPS  H13Y 8528   6.885   2.883   9.183 -0.3318 -0.6160 -1.5338
   88SAPS  C314 8529   6.981   3.017   9.029 -0.6092  0.4152  0.4331
   88SAPS  H14X 8530   7.089   3.022   9.055 -0.5438 -0.8571  0.4211
   88SAPS  H14Y 8531   6.958   3.113   8.978  2.1426  0.5667 -0.5624
   88SAPS  C315 8532   6.970   2.897   8.934 -0.3311 -0.3925  0.3671
   88SAPS  H15X 8533   6.863   2.894   8.904 -0.7311  1.9673  1.5035
   88SAPS  H15Y 8534   6.998   2.804   8.987 -1.3656 -0.7873  0.2207
   88SAPS  C316 8535   7.065   2.908   8.813 -0.6023 -0.1192  0.4278
   88SAPS  H16X 8536   7.077   2.810   8.763  2.1641 -0.7735  2.2914
   88SAPS  H16Y 8537   7.161   2.940   8.857  0.1978 -0.4406 -1.0537
   88SAPS  C317 8538   7.008   2.995   8.696  0.7213 -0.3207 -0.0130
   88SAPS  H17X 8539   6.981   3.099   8.726 -1.2995 -0.5741 -0.9316
   88SAPS  H17Y 8540   6.912   2.947   8.670 -0.0017  1.1010  0.0156
   88SAPS  C318 8541   7.083   2.986   8.562  0.3322 -0.4515  0.8299
   88SAPS  H18X 8542   7.080   2.887   8.512 -3.9137  0.8059 -1.6775
   88SAPS  H18Y 8543   7.191   3.012   8.571 -0.0554  1.9787 -0.9508
   88SAPS  H18Z 8544   7.037   3.052   8.485  1.0361  1.0134  1.6461
   89SAPS     N 8545   6.581   6.030  10.695  0.1194 -0.9594 -0.4269
   89SAPS   HN1 8546   6.493   6.004  10.745  0.2844 -1.1364 -0.2287
   89SAPS   HN2 8547   6.565   6.125  10.655  0.8354 -0.8852 -0.5337
   89SAPS   HN3 8548   6.581   5.963  10.616 -3.9726 -0.0887 -1.2668
   89SAPS   C12 8549   6.701   6.025  10.781  0.1173  0.5476 -0.3294
   89SAPS  H12A 8550   6.676   6.072  10.875 -0.5766  0.5905 -0.5374
   89SAPS   C13 8551   6.745   5.871  10.803 -0.3418 -0.1331 -0.5136
   89SAPS  O13A 8552   6.698   5.777  10.743 -0.3357 -0.2246  0.7145
   89SAPS  O13B 8553   6.808   5.855  10.911 -0.2727 -0.5108  0.2105
   89SAPS   C11 8554   6.825   6.102  10.721 -0.4740 -0.6714  0.5236
   89SAPS  H11A 8555   6.837   6.076  10.613  2.5884  2.1793  0.1005
   89SAPS  H11B 8556   6.917   6.080  10.778  1.2743  2.1828 -1.1292
   89SAPS     P 8557   6.751   6.338  10.619 -0.2391  0.2641  0.6255
   89SAPS   O13 8558   6.615   6.282  10.585 -0.1458 -0.3684 -0.4255
   89SAPS   O14 8559   6.755   6.479  10.660  1.2188 -0.6738  0.0762
   89SAPS   O12 8560   6.805   6.242  10.737 -0.2527  0.5363 -0.0117
   89SAPS   O11 8561   6.859   6.314  10.509 -0.7124  0.0895  0.5944
   89SAPS    C1 8562   6.815   6.350  10.373 -0.2622  0.6600 -0.0617
   89SAPS    HA 8563   6.816   6.255  10.315 -1.6791 -0.0136  0.9704
   89SAPS    HB 8564   6.710   6.385  10.365 -0.3770 -0.0354 -1.8712
   89SAPS    C2 8565   6.915   6.444  10.299  0.0994  0.8073 -0.4473
   89SAPS    HS 8566   6.901   6.547  10.338  2.0596  0.4877  1.1653
   89SAPS   O21 8567   6.885   6.431  10.160  0.3693 -0.0286 -0.1041
   89SAPS   C21 8568   6.789   6.516  10.120  0.6479 -0.0463  0.3243
   89SAPS   O22 8569   6.734   6.593  10.195  0.0240 -0.5576  0.1218
   89SAPS   C22 8570   6.765   6.508   9.969  0.0852  0.4044 -0.4514
   89SAPS   H2R 8571   6.842   6.441   9.923 -1.0712 -1.1573 -0.1519
   89SAPS   H2S 8572   6.669   6.453   9.958 -1.2598  2.1411  2.2443
   89SAPS    C3 8573   7.060   6.395  10.320  0.1962  0.3882  0.0422
   89SAPS    HX 8574   7.067   6.291  10.281 -1.9355 -0.6085  2.1766
   89SAPS    HY 8575   7.074   6.389  10.430 -2.3108  3.9317  0.6373
   89SAPS   O31 8576   7.158   6.480  10.260  0.2844  0.6620  0.3168
   89SAPS   C31 8577   7.175   6.592  10.327 -0.3785  0.3576 -0.9172
   89SAPS   O32 8578   7.110   6.619  10.430  0.3652  0.6605  0.7876
   89SAPS   C32 8579   7.265   6.688  10.254 -0.4660 -0.4701  0.1915
   89SAPS   H2X 8580   7.319   6.631  10.175  3.5504  2.2192  0.9002
   89SAPS   H2Y 8581   7.335   6.722  10.333  1.0030 -0.5929 -1.0374
   89SAPS   C23 8582   6.763   6.646   9.904  0.2865 -0.7190  0.2590
   89SAPS   H3R 8583   6.840   6.710   9.953  1.0692  0.7299 -2.7532
   89SAPS   H3S 8584   6.666   6.692   9.930 -0.5700 -1.3434 -1.7813
   89SAPS   C24 8585   6.781   6.657   9.749  0.3715  0.2465 -0.1166
   89SAPS   H4R 8586   6.877   6.606   9.726 -0.5761 -1.6703  0.0815
   89SAPS   H4S 8587   6.795   6.765   9.728 -0.8349  0.3738 -0.3119
   89SAPS   C25 8588   6.670   6.605   9.655 -0.5590 -0.2583  0.4935
   89SAPS   H5R 8589   6.573   6.654   9.668 -1.7646 -2.4228 -0.0647
   89SAPS   C26 8590   6.674   6.491   9.582  0.1835 -0.0520  0.1587
   89SAPS   H6R 8591   6.584   6.465   9.525 -1.0980  1.8156  1.2608
   89SAPS   C27 8592   6.790   6.396   9.571  0.0314 -0.0695  0.4118
   89SAPS   H7R 8593   6.869   6.401   9.650 -0.2114 -0.3249  0.6721
   89SAPS   H7S 8594   6.852   6.419   9.482 -2.6608  2.2804 -0.9329
   89SAPS   C28 8595   6.756   6.245   9.568 -0.4290 -0.1854  0.5338
   89SAPS   H8R 8596   6.709   6.194   9.654 -1.4947 -2.4293 -1.3178
   89SAPS   C29 8597   6.785   6.157   9.468 -0.0961  0.3657 -0.4471
   89SAPS   H9R 8598   6.746   6.055   9.468  0.3040  0.2049 -2.3394
   89SAPS  C210 8599   6.846   6.193   9.330  0.2150  0.0931  0.5071
   89SAPS  H10R 8600   6.904   6.109   9.286  0.4526  1.2647 -1.4798
   89SAPS  H10S 8601   6.929   6.265   9.348  1.4390 -0.7344 -1.5980
   89SAPS  C211 8602   6.748   6.218   9.220  0.0751  0.4621  0.6070
   89SAPS  H11R 8603   6.655   6.159   9.221 -0.7838  1.7443 -1.7625
   89SAPS  C212 8604   6.754   6.313   9.126  0.1232 -0.8449 -0.6703
   89SAPS  H12R 8605   6.674   6.318   9.051 -0.3245 -2.5816 -0.3388
   89SAPS  C213 8606   6.868   6.413   9.123 -0.1557 -0.1911 -0.1015
   89SAPS  H13R 8607   6.956   6.362   9.080 -2.0184 -2.4307 -1.3504
   89SAPS  H13S 8608   6.890   6.460   9.221 -0.8477 -0.6175  0.2623
   89SAPS  C214 8609   6.843   6.528   9.041 -0.6813  0.6248 -0.2277
   89SAPS  H14R 8610   6.767   6.601   9.073  0.2554  2.0480 -1.1813
   89SAPS  C215 8611   6.893   6.548   8.917  0.4517  0.7162 -0.5705
   89SAPS  H15R 8612   6.876   6.647   8.873  0.9841  1.1171  0.1078
   89SAPS  C216 8613   6.989   6.465   8.834 -0.2876 -0.5604 -0.6194
   89SAPS  H16R 8614   6.935   6.377   8.792 -2.5407 -0.1088  1.2312
   89SAPS  H16S 8615   7.079   6.428   8.888 -0.0927 -0.9523 -1.2059
   89SAPS  C217 8616   7.052   6.548   8.718 -0.2782 -0.0693  0.2855
   89SAPS  H17R 8617   7.078   6.654   8.738  2.6680 -0.7536  0.2293
   89SAPS  H17S 8618   6.982   6.547   8.632 -0.8812  1.3114  0.7496
   89SAPS  C218 8619   7.188   6.473   8.675 -0.5073  0.6978 -0.4276
   89SAPS  H18R 8620   7.211   6.499   8.570  2.3761 -0.5811 -0.1898
   89SAPS  H18S 8621   7.185   6.363   8.690 -1.0970  0.9606  1.4925
   89SAPS  C219 8622   7.314   6.527   8.743  0.1466  0.0902  0.1658
   89SAPS  H19R 8623   7.318   6.476   8.841 -0.9780 -0.1657  0.0720
   89SAPS  H19S 8624   7.302   6.635   8.768 -1.8835  0.1482 -0.9898
   89SAPS  C220 8625   7.453   6.499   8.681 -0.2898  0.4504 -0.1742
   89SAPS  H20R 8626   7.462   6.569   8.594 -2.0093 -0.1330 -0.8522
   89SAPS  H20S 8627   7.456   6.399   8.634 -0.3308  1.7139 -3.0299
   89SAPS  H20T 8628   7.528   6.511   8.761  1.2806 -1.1281 -1.3732
   89SAPS   C33 8629   7.184   6.806  10.197 -0.3117 -0.1027 -0.6930
   89SAPS   H3X 8630   7.255   6.890  10.185  1.6692 -1.6017  0.3565
   89SAPS   H3Y 8631   7.109   6.838  10.274 -1.0778 -2.5774 -0.3729
   89SAPS   C34 8632   7.104   6.779  10.066  0.0445  0.1979  0.4105
   89SAPS   H4X 8633   7.030   6.861  10.058  0.7638  0.8930  0.7899
   89SAPS   H4Y 8634   7.051   6.682  10.074  0.6878 -0.2540 -0.6635
   89SAPS   C35 8635   7.202   6.782   9.953 -0.7012  0.1151  0.8674
   89SAPS   H5X 8636   7.261   6.689   9.962 -0.0949  0.2538 -1.3389
   89SAPS   H5Y 8637   7.260   6.875   9.971  0.1013 -0.2856  0.3541
   89SAPS   C36 8638   7.147   6.783   9.808 -0.7476  0.0721 -0.4169
   89SAPS   H6X 8639   7.099   6.883   9.796 -0.7146 -0.1809 -2.9609
   89SAPS   H6Y 8640   7.077   6.699   9.788  0.9704 -0.7128 -3.3844
   89SAPS   C37 8641   7.244   6.786   9.698 -0.0103 -0.1803 -0.2088
   89SAPS   H7X 8642   7.317   6.704   9.718  0.5405  0.2271 -0.5387
   89SAPS   H7Y 8643   7.305   6.877   9.711 -0.4671  0.1557 -0.3964
   89SAPS   C38 8644   7.179   6.775   9.564  0.0648  0.3219  1.5206
   89SAPS   H8X 8645   7.073   6.801   9.589  0.2771  0.0478  2.7651
   89SAPS   H8Y 8646   7.185   6.668   9.534  0.9604  0.6484  0.5189
   89SAPS   C39 8647   7.245   6.863   9.460  0.4479 -0.0878  0.1126
   89SAPS   H9X 8648   7.352   6.854   9.488  0.4948 -0.5329 -0.2077
   89SAPS   H9Y 8649   7.221   6.972   9.468 -1.8744 -0.5113 -0.7664
   89SAPS  C310 8650   7.229   6.825   9.316  0.7454  0.3335 -0.4372
   89SAPS  H10X 8651   7.125   6.814   9.279  0.5361  1.5260 -0.2325
   89SAPS  H10Y 8652   7.262   6.719   9.308 -0.7541 -0.3477  1.9370
   89SAPS  C311 8653   7.302   6.910   9.214 -0.1357 -0.5552  0.1519
   89SAPS  H11X 8654   7.411   6.911   9.234  0.0506  0.3750 -0.8557
   89SAPS  H11Y 8655   7.267   7.016   9.219 -0.0678 -0.6251  2.9272
   89SAPS  C312 8656   7.287   6.855   9.076 -0.2358  0.5812 -0.3594
   89SAPS  H12X 8657   7.178   6.858   9.053 -0.4068  1.9859  0.5737
   89SAPS  H12Y 8658   7.329   6.752   9.074 -1.4668  0.0311  1.1990
   89SAPS  C313 8659   7.358   6.946   8.975  0.5269 -0.4003 -0.1597
   89SAPS  H13X 8660   7.453   6.982   9.018  0.2076  1.2996 -0.8256
   89SAPS  H13Y 8661   7.288   7.032   8.963  0.0063 -0.7459  0.3340
   89SAPS  C314 8662   7.392   6.883   8.840 -0.3895  0.1648  0.3569
   89SAPS  H14X 8663   7.299   6.874   8.780  0.2033 -0.0340 -0.5503
   89SAPS  H14Y 8664   7.430   6.783   8.871 -0.3200  1.1419  3.5960
   89SAPS  C315 8665   7.486   6.967   8.755  0.1238 -0.2365  0.1206
   89SAPS  H15X 8666   7.522   6.906   8.669  0.2690  1.6664 -1.2086
   89SAPS  H15Y 8667   7.577   6.992   8.813  1.3153 -0.9108 -1.4086
   89SAPS  C316 8668   7.428   7.104   8.714 -0.2164  0.7007  0.1799
   89SAPS  H16X 8669   7.363   7.140   8.796  0.1858  0.8054  0.4515
   89SAPS  H16Y 8670   7.362   7.079   8.628 -1.7282  1.0589  1.2074
   89SAPS  C317 8671   7.529   7.211   8.683 -0.1637 -0.9273  0.3525
   89SAPS  H17X 8672   7.604   7.229   8.763 -0.0992 -1.6785  0.4673
   89SAPS  H17Y 8673   7.473   7.306   8.673  1.5521  0.0427 -0.2314
   89SAPS  C318 8674   7.607   7.198   8.548  0.9407  0.7767 -0.1712
   89SAPS  H18X 8675   7.631   7.090   8.538 -0.7428  0.1549  1.8387
   89SAPS  H18Y 8676   7.694   7.266   8.542  0.7617  0.9249 -1.1723
   89SAPS  H18Z 8677   7.539   7.230   8.466 -0.3495 -0.9522  0.1851
   90SAPS     N 8678   1.622   6.425  10.840  0.5434 -0.5428  0.3333
   90SAPS   HN1 8679   1.568   6.406  10.754 -1.4395  1.4956  1.0740
   90SAPS   HN2 8680   1.572   6.504  10.886 -0.7447 -1.8022  1.1309
   90SAPS   HN3 8681   1.717   6.459  10.813  0.7906 -0.9408  0.6969
   90SAPS   C12 8682   1.634   6.306  10.929  0.1122 -0.2168 -0.1327
   90SAPS  H12A 8683   1.715   6.309  11.000 -1.3069 -3.4037  1.7196
   90SAPS   C13 8684   1.500   6.289  11.012 -0.0775  0.4576  0.6124
   90SAPS  O13A 8685   1.414   6.380  11.017  0.1053  0.1367  0.1900
   90SAPS  O13B 8686   1.503   6.200  11.102  0.0562  0.6609 -0.0791
   90SAPS   C11 8687   1.657   6.184  10.837 -0.5593  0.5111 -0.2932
   90SAPS  H11A 8688   1.677   6.107  10.915 -2.7885 -1.2073 -1.3694
   90SAPS  H11B 8689   1.747   6.211  10.778 -1.6164  0.6228 -1.8965
   90SAPS     P 8690   1.588   6.029  10.659 -0.2840 -0.2106 -0.1037
   90SAPS   O13 8691   1.657   5.926  10.739 -0.3905 -0.3026  0.7979
   90SAPS   O14 8692   1.474   5.984  10.571  0.1370  0.0779  0.2569
   90SAPS   O12 8693   1.545   6.138  10.759  0.3572 -0.3861 -0.4685
   90SAPS   O11 8694   1.696   6.103  10.571 -0.1061  0.6440 -0.0765
   90SAPS    C1 8695   1.661   6.225  10.499  0.3791  0.6373 -0.1514
   90SAPS    HA 8696   1.604   6.301  10.555  0.9811 -0.3413  1.8524
   90SAPS    HB 8697   1.757   6.270  10.465  0.4344  1.3958  0.9790
   90SAPS    C2 8698   1.562   6.203  10.379 -0.4192  0.2447  0.1390
   90SAPS    HS 8699   1.467   6.178  10.430  0.5676  0.2128  2.0107
   90SAPS   O21 8700   1.621   6.088  10.309 -0.0017  0.1523  0.4694
   90SAPS   C21 8701   1.535   6.031  10.224 -0.3345  0.1682  0.5043
   90SAPS   O22 8702   1.414   6.057  10.221 -0.8658  0.1168  0.2563
   90SAPS   C22 8703   1.606   5.934  10.132 -0.1967 -0.2063  0.3876
   90SAPS   H2R 8704   1.672   5.997  10.069  1.6928 -1.7876  0.7417
   90SAPS   H2S 8705   1.673   5.862  10.184  2.3323  0.2288 -2.1847
   90SAPS    C3 8706   1.537   6.326  10.295  0.6452  0.4297 -0.5723
   90SAPS    HX 8707   1.518   6.406  10.369  0.0362  0.3753 -0.6712
   90SAPS    HY 8708   1.449   6.298  10.234  0.4266 -1.6726  0.6367
   90SAPS   O31 8709   1.650   6.371  10.219  0.8664 -0.1924  0.0997
   90SAPS   C31 8710   1.663   6.320  10.094 -0.8465  0.3815  0.0286
   90SAPS   O32 8711   1.580   6.251  10.039  0.5833  0.5532 -0.3681
   90SAPS   C32 8712   1.800   6.364  10.039  0.4516  0.2649 -0.7276
   90SAPS   H2X 8713   1.876   6.309  10.097  0.9901  0.5767 -1.1340
   90SAPS   H2Y 8714   1.815   6.471  10.063 -0.5819 -0.0212  1.2601
   90SAPS   C23 8715   1.510   5.853  10.037 -0.0133  0.2407 -0.1916
   90SAPS   H3R 8716   1.455   5.929   9.977 -2.2876  0.7395  2.4236
   90SAPS   H3S 8717   1.427   5.800  10.090  0.6194 -0.6225 -0.0588
   90SAPS   C24 8718   1.581   5.749   9.942  0.1935  0.7136 -0.8889
   90SAPS   H4R 8719   1.653   5.698  10.008 -1.2603  0.1627  0.2918
   90SAPS   H4S 8720   1.638   5.813   9.871  0.0044  1.8199 -0.0694
   90SAPS   C25 8721   1.494   5.665   9.860 -0.0721  0.2974 -1.2476
   90SAPS   H5R 8722   1.419   5.727   9.809 -3.0517 -1.4002  0.9038
   90SAPS   C26 8723   1.485   5.529   9.844  0.2492  0.8083 -0.5238
   90SAPS   H6R 8724   1.403   5.488   9.784 -0.1198  2.6305 -1.2989
   90SAPS   C27 8725   1.575   5.424   9.910  0.9502 -0.7000 -0.2095
   90SAPS   H7R 8726   1.588   5.433  10.020  0.4360  1.7939 -0.3361
   90SAPS   H7S 8727   1.676   5.417   9.865 -0.2374 -1.3132 -2.8555
   90SAPS   C28 8728   1.495   5.293   9.894 -0.5503 -0.0544 -0.2153
   90SAPS   H8R 8729   1.417   5.293   9.971  0.0686 -0.7212  0.4193
   90SAPS   C29 8730   1.501   5.194   9.805  0.3565 -0.3639  0.2191
   90SAPS   H9R 8731   1.419   5.122   9.810  0.5176 -0.3583  4.9414
   90SAPS  C210 8732   1.597   5.174   9.686  0.1075 -0.0593 -0.0302
   90SAPS  H10R 8733   1.535   5.139   9.601 -1.3964  2.9367 -0.2405
   90SAPS  H10S 8734   1.670   5.093   9.706  1.0214  0.3575 -1.6013
   90SAPS  C211 8735   1.678   5.283   9.619 -0.1491 -0.2592 -0.4085
   90SAPS  H11R 8736   1.718   5.363   9.683 -0.5826 -0.1888 -0.2254
   90SAPS  C212 8737   1.691   5.300   9.487  0.3402  0.0225  0.4571
   90SAPS  H12R 8738   1.742   5.393   9.459  0.7219  0.2119  1.7476
   90SAPS  C213 8739   1.641   5.220   9.372  0.1143  0.2224  0.1731
   90SAPS  H13R 8740   1.635   5.111   9.392 -0.4100  0.0798 -0.7163
   90SAPS  H13S 8741   1.730   5.227   9.306 -0.3102  1.0988 -0.3168
   90SAPS  C214 8742   1.519   5.275   9.310 -0.2252 -0.2122  0.0844
   90SAPS  H14R 8743   1.421   5.257   9.356 -0.9148 -0.5196 -1.4830
   90SAPS  C215 8744   1.516   5.351   9.193 -0.5527  0.4913 -0.0605
   90SAPS  H15R 8745   1.417   5.383   9.158 -0.7414 -1.3908 -1.3340
   90SAPS  C216 8746   1.641   5.383   9.107 -0.0877 -0.1721  0.2155
   90SAPS  H16R 8747   1.738   5.375   9.161  0.4445  0.7363 -0.6123
   90SAPS  H16S 8748   1.635   5.491   9.082  1.3891  0.2458  1.5297
   90SAPS  C217 8749   1.662   5.284   8.988 -0.6165 -0.5907  0.5993
   90SAPS  H17R 8750   1.579   5.284   8.914 -1.6061 -0.4085  1.6891
   90SAPS  H17S 8751   1.661   5.181   9.029 -0.1609 -1.2261 -0.9825
   90SAPS  C218 8752   1.796   5.295   8.922  0.6596 -0.0300 -0.2168
   90SAPS  H18R 8753   1.872   5.264   8.997 -1.1764 -2.2797  0.7661
   90SAPS  H18S 8754   1.813   5.401   8.892 -0.1048  0.3894  0.7803
   90SAPS  C219 8755   1.798   5.196   8.802 -0.2322 -0.0438 -0.1069
   90SAPS  H19R 8756   1.711   5.217   8.736 -0.3636 -0.1175  0.0416
   90SAPS  H19S 8757   1.780   5.098   8.850 -3.4470 -1.0143 -3.1205
   90SAPS  C220 8758   1.922   5.199   8.721  0.4208  0.0772 -0.1951
   90SAPS  H20R 8759   1.931   5.287   8.655  2.3828  2.3048  2.9019
   90SAPS  H20S 8760   1.914   5.111   8.653  1.3385  0.6839 -1.1055
   90SAPS  H20T 8761   2.014   5.213   8.782  0.0011  1.8850  0.0497
   90SAPS   C33 8762   1.812   6.317   9.894  0.1109 -0.3066 -0.0591
   90SAPS   H3X 8763   1.783   6.212   9.872 -1.2548  0.1091 -0.2992
   90SAPS   H3Y 8764   1.917   6.340   9.866  0.0880 -0.4026 -0.2242
   90SAPS   C34 8765   1.742   6.407   9.794 -0.2397 -0.4533  0.2724
   90SAPS   H4X 8766   1.772   6.513   9.809 -1.8902  0.2313 -1.0351
   90SAPS   H4Y 8767   1.633   6.401   9.817 -0.2050 -0.0970  0.5263
   90SAPS   C35 8768   1.771   6.365   9.648 -0.8988 -0.2305  0.3971
   90SAPS   H5X 8769   1.704   6.406   9.569  0.0795 -1.1955 -0.9584
   90SAPS   H5Y 8770   1.752   6.255   9.648  1.1197 -0.6380 -2.1152
   90SAPS   C36 8771   1.916   6.377   9.604  0.1165 -0.0139  0.2776
   90SAPS   H6X 8772   1.981   6.310   9.664  0.9949  0.6504  0.0900
   90SAPS   H6Y 8773   1.962   6.475   9.626 -0.0828 -0.1368  1.2368
   90SAPS   C37 8774   1.944   6.350   9.454  0.0660  0.1513 -0.5256
   90SAPS   H7X 8775   1.863   6.405   9.401 -0.3426 -0.3300 -0.4037
   90SAPS   H7Y 8776   1.919   6.243   9.441  0.6254  0.0335 -0.6479
   90SAPS   C38 8777   2.075   6.384   9.399 -0.6342  0.1518  0.3125
   90SAPS   H8X 8778   2.156   6.338   9.459 -0.0537  0.7251 -0.0243
   90SAPS   H8Y 8779   2.102   6.491   9.404 -1.2604  0.3826 -1.1072
   90SAPS   C39 8780   2.081   6.344   9.251 -0.1440  0.5456 -0.1598
   90SAPS   H9X 8781   1.999   6.396   9.197 -1.3220 -1.6115 -0.5016
   90SAPS   H9Y 8782   2.052   6.237   9.237 -1.5668  1.1301 -1.9670
   90SAPS  C310 8783   2.222   6.354   9.195  0.1801 -0.2166 -0.2621
   90SAPS  H10X 8784   2.299   6.293   9.246 -0.6613  0.9589  2.5457
   90SAPS  H10Y 8785   2.257   6.456   9.220 -0.9810  0.5907 -1.8374
   90SAPS  C311 8786   2.231   6.351   9.040  0.4762  0.0179  0.6989
   90SAPS  H11X 8787   2.181   6.437   8.990  2.4934  1.8353  1.7030
   90SAPS  H11Y 8788   2.173   6.260   9.012  0.2999  0.3711 -0.0870
   90SAPS  C312 8789   2.377   6.345   8.995 -0.9584 -0.0415 -0.5188
   90SAPS  H12X 8790   2.421   6.252   9.035  1.1755  0.7018 -1.1002
   90SAPS  H12Y 8791   2.428   6.431   9.044  1.8066 -0.3755 -2.7348
   90SAPS  C313 8792   2.388   6.350   8.846  0.0529 -0.0991  0.8705
   90SAPS  H13X 8793   2.347   6.445   8.805  3.7911  0.6893 -1.3165
   90SAPS  H13Y 8794   2.336   6.257   8.814 -0.2944  0.5399 -0.4359
   90SAPS  C314 8795   2.535   6.363   8.797  0.2666 -0.6050  0.2505
   90SAPS  H14X 8796   2.598   6.274   8.816  2.3380 -0.1339 -3.7666
   90SAPS  H14Y 8797   2.578   6.455   8.843 -0.5745 -1.1262  2.1147
   90SAPS  C315 8798   2.550   6.373   8.653  0.1623 -0.4143 -0.0493
   90SAPS  H15X 8799   2.524   6.274   8.611 -1.4594 -0.6571  1.4227
   90SAPS  H15Y 8800   2.648   6.406   8.614  0.4305  1.0912  1.7964
   90SAPS  C316 8801   2.468   6.489   8.584  0.1536  0.2265 -0.3591
   90SAPS  H16X 8802   2.358   6.475   8.599  0.1792  2.4726  2.3630
   90SAPS  H16Y 8803   2.496   6.478   8.477  2.1243  1.3640  0.0149
   90SAPS  C317 8804   2.511   6.633   8.621 -0.3509  0.4304 -0.4600
   90SAPS  H17X 8805   2.506   6.632   8.731  2.2708 -0.6647 -0.3102
   90SAPS  H17Y 8806   2.447   6.713   8.577 -1.0504  0.9798  1.5005
   90SAPS  C318 8807   2.660   6.661   8.579  0.4815  0.6506  1.3041
   90SAPS  H18X 8808   2.669   6.693   8.473 -0.1311 -2.0597  0.3989
   90SAPS  H18Y 8809   2.733   6.580   8.604 -0.7448 -1.2035 -0.8961
   90SAPS  H18Z 8810   2.708   6.743   8.637  0.9433  0.7861  0.7294
   91SAPS     N 8811   6.488   3.439   6.162  1.1664 -0.0159 -1.0456
   91SAPS   HN1 8812   6.489   3.502   6.245  2.1366 -2.4169  0.8199
   91SAPS   HN2 8813   6.410   3.371   6.171  2.0155 -1.0006 -0.9614
   91SAPS   HN3 8814   6.583   3.397   6.161  1.4642  0.6495 -1.8646
   91SAPS   C12 8815   6.459   3.515   6.033 -0.9777  0.1388  0.6081
   91SAPS  H12A 8816   6.535   3.590   6.015 -0.2931 -1.1157 -1.9686
   91SAPS   C13 8817   6.465   3.415   5.917  0.1887  0.2240  0.5868
   91SAPS  O13A 8818   6.490   3.293   5.940  0.8323  0.3336 -0.3660
   91SAPS  O13B 8819   6.428   3.449   5.801 -0.5915  0.3620 -0.1357
   91SAPS   C11 8820   6.319   3.571   6.033 -0.4100 -0.3330  0.4991
   91SAPS  H11A 8821   6.253   3.482   6.043  0.5658 -1.3366 -1.7946
   91SAPS  H11B 8822   6.295   3.608   5.931 -1.6176 -2.2214  0.0619
   91SAPS     P 8823   6.342   3.800   6.148 -0.4052 -0.3098 -0.0190
   91SAPS   O13 8824   6.337   3.869   6.010 -0.2120  0.4375 -0.3626
   91SAPS   O14 8825   6.286   3.871   6.261 -0.1978 -0.3110 -0.2132
   91SAPS   O12 8826   6.279   3.659   6.143  0.2226 -0.1899  0.1012
   91SAPS   O11 8827   6.499   3.768   6.169  0.0553 -0.4586 -0.0233
   91SAPS    C1 8828   6.581   3.874   6.213  0.4140 -0.3706 -0.8556
   91SAPS    HA 8829   6.600   3.935   6.122  0.6792  3.2907  1.5696
   91SAPS    HB 8830   6.537   3.940   6.291 -0.5610  0.1102 -1.7991
   91SAPS    C2 8831   6.709   3.818   6.274 -0.0912 -0.1496  0.4921
   91SAPS    HS 8832   6.718   3.713   6.236 -0.7767 -0.3071  0.7605
   91SAPS   O21 8833   6.690   3.812   6.412 -0.0384  0.2591  0.9221
   91SAPS   C21 8834   6.761   3.722   6.474  0.3300 -0.4420 -0.3981
   91SAPS   O22 8835   6.839   3.644   6.421  0.0379  0.0666 -0.1089
   91SAPS   C22 8836   6.716   3.710   6.624  0.4097 -0.3048  0.1064
   91SAPS   H2R 8837   6.677   3.808   6.661 -1.0842 -0.3627 -1.2695
   91SAPS   H2S 8838   6.628   3.642   6.625 -0.0628  0.2996  1.0528
   91SAPS    C3 8839   6.841   3.898   6.238  0.3342 -0.5997  0.0073
   91SAPS    HX 8840   6.839   3.913   6.128  0.4710  1.4604  0.2584
   91SAPS    HY 8841   6.925   3.830   6.264 -0.8931 -2.5668 -1.0462
   91SAPS   O31 8842   6.840   4.027   6.307  0.2928  0.0394 -0.0602
   91SAPS   C31 8843   6.945   4.059   6.380  0.2460  0.1581 -0.1383
   91SAPS   O32 8844   7.041   3.991   6.398 -0.0209  0.5012  0.5228
   91SAPS   C32 8845   6.913   4.204   6.424  0.2656 -0.6219 -0.4702
   91SAPS   H2X 8846   6.812   4.225   6.383 -0.4278 -1.3399  0.8277
   91SAPS   H2Y 8847   6.990   4.265   6.373 -0.1860  0.3030 -0.0580
   91SAPS   C23 8848   6.825   3.656   6.719 -0.0661  0.4941  0.1718
   91SAPS   H3R 8849   6.904   3.732   6.738  0.8122  0.0619 -1.6188
   91SAPS   H3S 8850   6.870   3.564   6.677  0.5423  1.7206 -1.9435
   91SAPS   C24 8851   6.757   3.607   6.854 -0.2274 -0.6000 -0.3558
   91SAPS   H4R 8852   6.685   3.522   6.844 -0.3858 -0.5766  0.5311
   91SAPS   H4S 8853   6.705   3.701   6.879  0.3272 -0.5767  0.7068
   91SAPS   C25 8854   6.874   3.573   6.940 -0.4376  0.0871 -0.1571
   91SAPS   H5R 8855   6.947   3.500   6.902 -1.7244 -1.8393  0.9946
   91SAPS   C26 8856   6.898   3.620   7.061 -0.3478 -0.1776 -0.9882
   91SAPS   H6R 8857   6.982   3.576   7.116 -0.2626  0.8603 -0.2750
   91SAPS   C27 8858   6.818   3.724   7.130  0.2044  0.1508  0.1122
   91SAPS   H7R 8859   6.739   3.678   7.193  0.4711  2.0990  1.9255
   91SAPS   H7S 8860   6.757   3.782   7.058 -2.2266  0.8023  2.5998
   91SAPS   C28 8861   6.897   3.825   7.208  0.0707 -0.6067  0.1255
   91SAPS   H8R 8862   6.874   3.927   7.173  0.7918 -0.6292 -0.4327
   91SAPS   C29 8863   6.972   3.814   7.315 -0.4248  0.6942  0.7977
   91SAPS   H9R 8864   7.023   3.906   7.348 -1.1453  1.3544  0.0629
   91SAPS  C210 8865   7.000   3.691   7.397 -0.2892 -0.1153 -0.2887
   91SAPS  H10R 8866   7.098   3.707   7.447 -0.8908  0.9941  0.5452
   91SAPS  H10S 8867   7.020   3.601   7.334  0.7632  0.2808 -0.5309
   91SAPS  C211 8868   6.897   3.669   7.502  0.3025 -0.6221 -0.5260
   91SAPS  H11R 8869   6.790   3.685   7.482  0.3319 -0.2214 -0.3626
   91SAPS  C212 8870   6.913   3.631   7.630 -0.5016 -0.4656  0.4187
   91SAPS  H12R 8871   6.823   3.625   7.692  0.7190  0.0063  2.2911
   91SAPS  C213 8872   7.043   3.589   7.689 -0.3112  0.5834  0.4491
   91SAPS  H13R 8873   7.101   3.678   7.721 -0.3189  0.1517  1.6787
   91SAPS  H13S 8874   7.110   3.546   7.612  1.0017  0.5378  1.5974
   91SAPS  C214 8875   7.024   3.490   7.799 -0.6698 -0.2114  0.3873
   91SAPS  H14R 8876   6.958   3.406   7.771 -2.6230  1.6621 -0.7922
   91SAPS  C215 8877   7.079   3.488   7.922 -0.4409 -0.4991 -0.1758
   91SAPS  H15R 8878   7.064   3.395   7.978  0.9145 -1.0262 -0.6526
   91SAPS  C216 8879   7.179   3.579   7.985 -0.3280 -0.2678  0.3416
   91SAPS  H16R 8880   7.125   3.645   8.056 -0.8573  0.7612 -1.0105
   91SAPS  H16S 8881   7.230   3.633   7.902  1.2159 -2.0550  0.0741
   91SAPS  C217 8882   7.289   3.495   8.052 -0.4849  0.4841  0.4358
   91SAPS  H17R 8883   7.328   3.425   7.975 -0.1876 -0.4828  1.4569
   91SAPS  H17S 8884   7.249   3.424   8.128 -1.2572  1.3132  0.8167
   91SAPS  C218 8885   7.401   3.584   8.118 -0.0228  0.6546  0.8453
   91SAPS  H18R 8886   7.467   3.513   8.172  0.4380 -1.4315 -2.2863
   91SAPS  H18S 8887   7.354   3.653   8.190  0.1378 -0.7115  2.2765
   91SAPS  C219 8888   7.492   3.667   8.028 -0.2139  0.5123 -0.8289
   91SAPS  H19R 8889   7.438   3.746   7.972 -1.1097 -0.5856 -1.5532
   91SAPS  H19S 8890   7.543   3.600   7.956  0.5983  0.2746 -0.0398
   91SAPS  C220 8891   7.594   3.743   8.112  0.6066  0.0520  0.9337
   91SAPS  H20R 8892   7.654   3.672   8.171 -1.2111 -0.8229  1.7845
   91SAPS  H20S 8893   7.536   3.816   8.173 -4.3307 -2.3866 -0.5047
   91SAPS  H20T 8894   7.664   3.786   8.037 -0.7075 -0.0532 -0.3967
   91SAPS   C33 8895   6.927   4.214   6.579 -0.9458  0.3036  1.0322
   91SAPS   H3X 8896   6.926   4.321   6.610 -3.0309  1.1527 -1.8084
   91SAPS   H3Y 8897   7.029   4.184   6.613 -0.9002  2.4829  2.9384
   91SAPS   C34 8898   6.808   4.150   6.655  0.0639  0.3152  0.5489
   91SAPS   H4X 8899   6.793   4.046   6.618 -0.9654  0.9614 -0.9229
   91SAPS   H4Y 8900   6.715   4.202   6.623  0.4390  0.6223 -0.0549
   91SAPS   C35 8901   6.825   4.161   6.805  0.7011 -0.1505 -0.0193
   91SAPS   H5X 8902   6.922   4.122   6.841  0.8811 -0.4736 -0.8459
   91SAPS   H5Y 8903   6.746   4.094   6.846  3.1767 -2.7641  0.6286
   91SAPS   C36 8904   6.802   4.310   6.860  0.6926  0.6132 -0.9296
   91SAPS   H6X 8905   6.706   4.350   6.822  0.2546  2.5360  2.0266
   91SAPS   H6Y 8906   6.874   4.389   6.832 -0.2904  2.1217  0.6881
   91SAPS   C37 8907   6.779   4.308   7.011 -0.6523  0.5538 -0.9161
   91SAPS   H7X 8908   6.716   4.219   7.033 -0.6312  0.8080  0.1529
   91SAPS   H7Y 8909   6.721   4.398   7.037 -2.0785 -0.0639 -1.8624
   91SAPS   C38 8910   6.902   4.292   7.097 -0.1912  0.0429 -0.4547
   91SAPS   H8X 8911   6.972   4.379   7.095  0.2582 -0.3304 -1.2252
   91SAPS   H8Y 8912   6.972   4.221   7.048  1.0039  0.5271  0.5216
   91SAPS   C39 8913   6.860   4.242   7.234 -0.5796 -0.3163 -0.5904
   91SAPS   H9X 8914   6.795   4.152   7.223  0.0063 -0.9275  0.7964
   91SAPS   H9Y 8915   6.802   4.324   7.282  2.1024  1.7001 -0.6438
   91SAPS  C310 8916   6.965   4.223   7.338 -0.3706 -0.2137 -0.1309
   91SAPS  H10X 8917   7.021   4.316   7.359 -2.4215  0.9279  0.4831
   91SAPS  H10Y 8918   7.041   4.153   7.299  0.6579 -0.3776  2.0836
   91SAPS  C311 8919   6.914   4.171   7.475  0.3575 -0.1069 -0.1319
   91SAPS  H11X 8920   6.866   4.072   7.456  1.1626 -0.4408 -0.4887
   91SAPS  H11Y 8921   6.836   4.247   7.497  1.0276  0.6157 -0.2256
   91SAPS  C312 8922   7.012   4.173   7.581  0.0258  0.8611 -0.2979
   91SAPS  H12X 8923   7.112   4.141   7.543 -0.2534 -1.6682  1.0449
   91SAPS  H12Y 8924   6.986   4.092   7.652  5.4839  0.8373  1.9639
   91SAPS  C313 8925   7.023   4.313   7.651 -0.4278  0.1406  0.3773
   91SAPS  H13X 8926   7.043   4.395   7.579 -1.7440 -0.4814 -0.7084
   91SAPS  H13Y 8927   7.108   4.329   7.721 -1.1913 -0.1907  1.4016
   91SAPS  C314 8928   6.894   4.347   7.728 -1.3036 -0.5228  0.1303
   91SAPS  H14X 8929   6.803   4.328   7.667 -0.9242 -0.3140 -0.5040
   91SAPS  H14Y 8930   6.904   4.456   7.744  1.6577 -0.4993 -1.6434
   91SAPS  C315 8931   6.898   4.299   7.871  0.4867 -0.6594  0.1311
   91SAPS  H15X 8932   6.987   4.344   7.922  1.5167  0.1241 -2.3089
   91SAPS  H15Y 8933   6.927   4.192   7.865  0.7226 -0.6249  0.5972
   91SAPS  C316 8934   6.773   4.304   7.958  0.6599  0.0278  0.1992
   91SAPS  H16X 8935   6.702   4.230   7.915  0.3878 -1.2945  2.8139
   91SAPS  H16Y 8936   6.736   4.409   7.964 -0.1017 -0.2774  0.9633
   91SAPS  C317 8937   6.789   4.262   8.106 -0.1477  0.5416 -0.4648
   91SAPS  H17X 8938   6.869   4.325   8.152 -1.1595  0.8224  0.9509
   91SAPS  H17Y 8939   6.817   4.155   8.108 -0.0294  0.4950 -3.3005
   91SAPS  C318 8940   6.661   4.283   8.175  0.2931  0.4829  0.3360
   91SAPS  H18X 8941   6.650   4.394   8.178  0.9247  0.5427  0.3870
   91SAPS  H18Y 8942   6.682   4.244   8.277  1.1854 -0.1803 -0.0941
   91SAPS  H18Z 8943   6.572   4.240   8.123 -0.4296  2.3210  0.0002
   92SAPS     N 8944   5.614   2.731   6.487  0.7431 -0.0317  0.1519
   92SAPS   HN1 8945   5.547   2.809   6.477  0.5120 -0.2270  0.1572
   92SAPS   HN2 8946   5.600   2.694   6.583 -0.3880  1.8966  0.7507
   92SAPS   HN3 8947   5.713   2.758   6.472  0.3352  1.8329  0.7748
   92SAPS   C12 8948   5.582   2.632   6.384 -0.3228  0.6514  0.3101
   92SAPS  H12A 8949   5.479   2.639   6.352  0.2883  2.5097 -1.3691
   92SAPS   C13 8950   5.636   2.656   6.241  0.0882 -0.1876  0.6555
   92SAPS  O13A 8951   5.722   2.748   6.220  0.2050 -0.5268 -0.6008
   92SAPS  O13B 8952   5.576   2.599   6.154  0.5976  0.4835  0.5320
   92SAPS   C11 8953   5.621   2.490   6.428 -0.0465  0.5431 -0.6302
   92SAPS  H11A 8954   5.728   2.488   6.459  0.2426 -0.7612 -1.6567
   92SAPS  H11B 8955   5.606   2.417   6.346  0.1516  0.7877 -0.8848
   92SAPS     P 8956   5.401   2.379   6.519  0.3646  0.3922  0.0388
   92SAPS   O13 8957   5.298   2.486   6.513  0.1012  0.1840 -0.8467
   92SAPS   O14 8958   5.402   2.279   6.412  0.0370 -0.4491 -0.5322
   92SAPS   O12 8959   5.544   2.448   6.535  0.1129  0.1778  0.1205
   92SAPS   O11 8960   5.386   2.301   6.653 -0.1711  0.3242  0.4034
   92SAPS    C1 8961   5.481   2.214   6.710 -0.4390 -0.8682  0.0467
   92SAPS    HA 8962   5.569   2.198   6.645  0.7824  2.4910  0.7562
   92SAPS    HB 8963   5.525   2.258   6.802  0.2543 -0.5877 -0.4173
   92SAPS    C2 8964   5.423   2.069   6.740  0.2462 -0.2038  0.2134
   92SAPS    HS 8965   5.371   2.032   6.649 -1.6194  2.6014  0.0907
   92SAPS   O21 8966   5.329   2.080   6.847 -0.2617 -0.3017 -0.0902
   92SAPS   C21 8967   5.252   1.972   6.864  0.4573  0.2480 -0.6446
   92SAPS   O22 8968   5.257   1.865   6.804 -0.3533  0.4172 -0.0998
   92SAPS   C22 8969   5.152   1.988   6.971  0.1763 -0.0721  0.4080
   92SAPS   H2R 8970   5.149   2.093   7.009 -2.7968 -0.2717  0.7859
   92SAPS   H2S 8971   5.052   1.977   6.925  0.2256 -2.0963  0.7402
   92SAPS    C3 8972   5.543   1.980   6.779 -0.4118  0.1565  0.0260
   92SAPS    HX 8973   5.582   1.937   6.684 -1.5633 -1.2171  0.1494
   92SAPS    HY 8974   5.504   1.890   6.832  0.0570  0.3426  0.6878
   92SAPS   O31 8975   5.642   2.038   6.872 -0.0268  0.2798 -0.0608
   92SAPS   C31 8976   5.750   1.967   6.899  0.8447  0.1238  0.4566
   92SAPS   O32 8977   5.774   1.863   6.844 -0.4055  0.9127  0.6977
   92SAPS   C32 8978   5.824   2.024   7.017 -0.6335 -0.1252  0.7951
   92SAPS   H2X 8979   5.742   2.059   7.083  0.6748  1.1140  1.8078
   92SAPS   H2Y 8980   5.892   2.109   6.989  1.4014 -2.1159 -0.4987
   92SAPS   C23 8981   5.177   1.877   7.076 -1.5177  0.1677 -0.1189
   92SAPS   H3R 8982   5.166   1.778   7.028  1.9167  1.2944 -3.4348
   92SAPS   H3S 8983   5.096   1.878   7.153 -0.0889  2.5627  1.4074
   92SAPS   C24 8984   5.313   1.884   7.149 -0.3275  0.1345  0.0181
   92SAPS   H4R 8985   5.393   1.844   7.082 -0.2004 -1.5796  1.1547
   92SAPS   H4S 8986   5.320   1.805   7.226  1.1670  0.5753  0.3661
   92SAPS   C25 8987   5.357   2.013   7.216  0.0824 -0.2448  0.0598
   92SAPS   H5R 8988   5.390   2.096   7.152  0.5888 -0.2360  0.3271
   92SAPS   C26 8989   5.352   2.028   7.355  0.3735  0.0411  0.1397
   92SAPS   H6R 8990   5.377   2.129   7.390 -0.7468  0.8773 -1.3901
   92SAPS   C27 8991   5.303   1.931   7.459  0.3980  0.8939  0.1240
   92SAPS   H7R 8992   5.254   1.841   7.415 -1.2566  1.9539 -0.2670
   92SAPS   H7S 8993   5.207   1.968   7.501  0.3033 -0.0783  0.7957
   92SAPS   C28 8994   5.414   1.909   7.553 -0.3574 -0.4820  0.1519
   92SAPS   H8R 8995   5.509   1.895   7.499  1.2159  1.8022  2.2606
   92SAPS   C29 8996   5.415   1.888   7.683 -0.0908 -0.7811 -0.6048
   92SAPS   H9R 8997   5.514   1.862   7.724  0.6308  1.2276 -1.0257
   92SAPS  C210 8998   5.295   1.884   7.774 -0.1879 -0.1913  0.1714
   92SAPS  H10R 8999   5.217   1.816   7.733  0.9303 -1.3373 -0.0724
   92SAPS  H10S 9000   5.256   1.987   7.788 -2.3273 -0.8749 -0.6219
   92SAPS  C211 9001   5.339   1.819   7.912  0.3249  0.2781 -0.1758
   92SAPS  H11R 9002   5.445   1.790   7.924  0.8855  1.8227 -1.3214
   92SAPS  C212 9003   5.254   1.785   8.008 -0.4633  0.3459  0.1456
   92SAPS  H12R 9004   5.299   1.749   8.102 -1.7234  0.4112  0.7959
   92SAPS  C213 9005   5.109   1.799   8.009 -0.9559 -0.5158  0.2901
   92SAPS  H13R 9006   5.092   1.878   7.933 -0.7372  1.2499  2.0365
   92SAPS  H13S 9007   5.076   1.864   8.093  2.5034 -1.1624  2.2714
   92SAPS  C214 9008   5.035   1.672   8.001  0.1052 -0.0971 -0.7744
   92SAPS  H14R 9009   5.020   1.634   7.899 -0.2203 -0.7702 -0.4847
   92SAPS  C215 9010   4.996   1.596   8.109  0.5472  1.2242 -0.1726
   92SAPS  H15R 9011   4.934   1.508   8.089  0.4950  0.6839  2.2152
   92SAPS  C216 9012   5.005   1.640   8.257 -0.2770 -0.1663 -0.2228
   92SAPS  H16R 9013   5.026   1.749   8.257 -0.5196 -0.1215 -0.0103
   92SAPS  H16S 9014   5.089   1.591   8.310 -2.1640 -2.1387  1.0002
   92SAPS  C217 9015   4.874   1.607   8.335  0.1358 -0.4205  0.2204
   92SAPS  H17R 9016   4.853   1.499   8.317  1.6479 -0.4677 -1.4138
   92SAPS  H17S 9017   4.797   1.669   8.284 -0.1743 -0.6547  0.4053
   92SAPS  C218 9018   4.892   1.633   8.488 -0.1157 -0.2949  0.1536
   92SAPS  H18R 9019   4.792   1.633   8.537 -0.1935 -0.3340 -0.0061
   92SAPS  H18S 9020   4.950   1.727   8.502 -0.6294  0.2435 -1.1515
   92SAPS  C219 9021   4.972   1.519   8.548 -0.8760 -0.8122  0.3496
   92SAPS  H19R 9022   5.072   1.510   8.499 -1.3774  1.5033 -1.1832
   92SAPS  H19S 9023   4.908   1.431   8.528  0.6280 -1.8438 -0.0242
   92SAPS  C220 9024   5.003   1.530   8.693 -0.1650  0.3814 -0.3090
   92SAPS  H20R 9025   4.909   1.560   8.744 -0.1297  1.1549 -0.6944
   92SAPS  H20S 9026   5.083   1.602   8.720 -0.4898  0.4067  0.6006
   92SAPS  H20T 9027   5.035   1.435   8.741 -1.5261  0.8219  1.5270
   92SAPS   C33 9028   5.913   1.913   7.086 -0.9343  0.3106 -0.7198
   92SAPS   H3X 9029   6.007   1.950   7.131 -0.4478 -0.7483 -0.8660
   92SAPS   H3Y 9030   5.938   1.833   7.013 -1.1603 -1.9531  1.6174
   92SAPS   C34 9031   5.830   1.845   7.208 -0.7758  0.0027  0.7543
   92SAPS   H4X 9032   5.900   1.764   7.238  0.1553  0.6597  0.3872
   92SAPS   H4Y 9033   5.737   1.795   7.174 -0.0567 -1.0227  0.2733
   92SAPS   C35 9034   5.803   1.923   7.334 -0.3455  0.2453  0.4406
   92SAPS   H5X 9035   5.694   1.943   7.343 -0.7617 -1.1252 -1.3828
   92SAPS   H5Y 9036   5.857   2.021   7.338 -2.8381  1.6985 -0.2893
   92SAPS   C36 9037   5.838   1.840   7.459  0.0838  0.6901  0.5393
   92SAPS   H6X 9038   5.942   1.800   7.465  0.0905  0.6470  0.1672
   92SAPS   H6Y 9039   5.777   1.747   7.447  1.9660 -0.5413  0.2164
   92SAPS   C37 9040   5.818   1.915   7.591  0.1686 -0.7948 -0.2853
   92SAPS   H7X 9041   5.711   1.945   7.593 -0.3863 -2.6347 -0.6363
   92SAPS   H7Y 9042   5.878   2.008   7.588 -1.4463  0.2885  0.7628
   92SAPS   C38 9043   5.855   1.829   7.717 -0.1206  0.0807  0.0117
   92SAPS   H8X 9044   5.962   1.802   7.710  0.0285  1.1623 -2.2388
   92SAPS   H8Y 9045   5.800   1.732   7.719  1.5180 -0.8480  0.4642
   92SAPS   C39 9046   5.839   1.913   7.845  0.2523  0.2478  0.6060
   92SAPS   H9X 9047   5.742   1.964   7.828 -0.5717 -0.9326  1.6201
   92SAPS   H9Y 9048   5.917   1.991   7.859  0.5000  0.0565  0.2969
   92SAPS  C310 9049   5.835   1.823   7.971 -0.2522  0.3250  0.0565
   92SAPS  H10X 9050   5.939   1.787   7.990 -1.2941 -3.0324 -0.1555
   92SAPS  H10Y 9051   5.773   1.733   7.950 -0.4361  0.5614 -0.3977
   92SAPS  C311 9052   5.783   1.896   8.096  0.0103 -0.3346 -0.1423
   92SAPS  H11X 9053   5.673   1.903   8.083  0.1537  2.9203  0.0455
   92SAPS  H11Y 9054   5.820   2.001   8.090 -4.3236  1.4991  2.9361
   92SAPS  C312 9055   5.828   1.833   8.228  0.4910 -0.5193 -0.5595
   92SAPS  H12X 9056   5.820   1.908   8.311  0.3434 -0.3579 -0.7196
   92SAPS  H12Y 9057   5.933   1.799   8.217  0.6803 -0.5783  1.1842
   92SAPS  C313 9058   5.743   1.713   8.269 -0.2692  0.2294 -0.6109
   92SAPS  H13X 9059   5.723   1.637   8.190  0.1119  1.4348 -1.9050
   92SAPS  H13Y 9060   5.638   1.746   8.287 -0.4761 -0.3695 -0.7261
   92SAPS  C314 9061   5.801   1.642   8.387  0.1790 -0.4655 -0.1456
   92SAPS  H14X 9062   5.812   1.710   8.474  1.9723 -1.1018  0.1556
   92SAPS  H14Y 9063   5.906   1.614   8.364  0.8713  0.4091  1.8253
   92SAPS  C315 9064   5.739   1.505   8.430 -0.2228 -0.2697  0.2640
   92SAPS  H15X 9065   5.776   1.468   8.528  0.0487  3.0634  1.4572
   92SAPS  H15Y 9066   5.760   1.434   8.347 -2.1418 -2.1746  1.3574
   92SAPS  C316 9067   5.584   1.513   8.448 -0.2791 -0.4980 -0.4239
   92SAPS  H16X 9068   5.552   1.410   8.472  1.1478 -0.5931  1.1642
   92SAPS  H16Y 9069   5.536   1.545   8.353  0.1033  0.1473 -0.4073
   92SAPS  C317 9070   5.548   1.598   8.564  0.2669 -0.6779 -0.1705
   92SAPS  H17X 9071   5.590   1.700   8.554 -0.5457 -0.3114  0.1731
   92SAPS  H17Y 9072   5.601   1.570   8.657 -0.5605 -0.9158  0.2328
   92SAPS  C318 9073   5.396   1.612   8.596 -0.8922  0.4424  0.5700
   92SAPS  H18X 9074   5.333   1.650   8.513  0.6528  2.3869  0.2420
   92SAPS  H18Y 9075   5.381   1.673   8.688  2.5499 -0.5056  1.8667
   92SAPS  H18Z 9076   5.369   1.507   8.620 -1.4174  0.8482  1.8016
   93SAPS     N 9077   0.525   2.014   6.299  0.1647  0.8012 -0.2907
   93SAPS   HN1 9078   0.594   1.996   6.224 -0.1832 -1.9130 -0.0273
   93SAPS   HN2 9079   0.516   2.113   6.329 -0.6054  0.8454 -0.6430
   93SAPS   HN3 9080   0.554   1.961   6.384  0.2627 -2.4875 -2.2782
   93SAPS   C12 9081   0.392   1.976   6.252 -0.1559  0.2139 -0.0075
   93SAPS  H12A 9082   0.313   2.040   6.289  0.5564  0.9331  0.2673
   93SAPS   C13 9083   0.378   1.976   6.102 -0.3013 -0.0390 -0.0461
   93SAPS  O13A 9084   0.472   1.998   6.018 -0.3487 -0.6364 -0.0409
   93SAPS  O13B 9085   0.261   1.957   6.055  0.0565 -0.0158 -0.0622
   93SAPS   C11 9086   0.356   1.840   6.319  0.1687 -0.3948 -0.0196
   93SAPS  H11A 9087   0.443   1.771   6.314  0.6445  0.3064 -1.7424
   93SAPS  H11B 9088   0.269   1.789   6.274 -0.6364  1.3443 -0.4792
   93SAPS     P 9089   0.426   1.839   6.572  0.3277 -0.6050 -0.4020
   93SAPS   O13 9090   0.424   1.688   6.595 -0.6147 -0.1607  0.1762
   93SAPS   O14 9091   0.554   1.907   6.532  0.3825  0.1707 -0.1039
   93SAPS   O12 9092   0.321   1.872   6.457 -0.0166  0.1240 -0.0528
   93SAPS   O11 9093   0.361   1.919   6.689 -0.0747  0.4983  0.0761
   93SAPS    C1 9094   0.248   1.876   6.754  0.1891 -0.1330  0.1144
   93SAPS    HA 9095   0.167   1.838   6.688 -1.5413  2.3926  0.7340
   93SAPS    HB 9096   0.280   1.790   6.816 -3.1125 -0.6270  1.2476
   93SAPS    C2 9097   0.195   1.990   6.838  0.1893 -0.1460 -0.5506
   93SAPS    HS 9098   0.135   1.945   6.920 -0.6650  2.5681  0.3606
   93SAPS   O21 9099   0.103   2.067   6.759 -0.2920 -0.0258  0.8973
   93SAPS   C21 9100  -0.023   2.010   6.744 -0.1775 -0.5064  0.2292
   93SAPS   O22 9101  -0.059   1.910   6.799 -0.8847 -0.4098  0.8899
   93SAPS   C22 9102  -0.115   2.103   6.657 -0.0571  0.1332  0.1342
   93SAPS   H2R 9103  -0.055   2.148   6.575  0.8393 -1.4814 -0.0959
   93SAPS   H2S 9104  -0.191   2.034   6.616  0.3977 -0.0872 -0.3521
   93SAPS    C3 9105   0.310   2.078   6.897  0.1805 -0.3296 -0.6058
   93SAPS    HX 9106   0.341   2.152   6.820 -0.6085  1.9829  1.2007
   93SAPS    HY 9107   0.390   2.004   6.921  0.4688  0.3233  0.5305
   93SAPS   O31 9108   0.268   2.157   7.009 -0.3772  0.5522 -0.4726
   93SAPS   C31 9109   0.298   2.090   7.125  0.7446 -0.2200  0.5265
   93SAPS   O32 9110   0.318   1.973   7.133  0.0602  0.0447 -0.0606
   93SAPS   C32 9111   0.288   2.186   7.243  0.1749  0.5255  0.8555
   93SAPS   H2X 9112   0.190   2.239   7.239  0.3829  0.7832 -1.1686
   93SAPS   H2Y 9113   0.368   2.263   7.245 -0.4568  1.2054  0.1523
   93SAPS   C23 9114  -0.178   2.218   6.742  0.3514 -0.3301 -0.3202
   93SAPS   H3R 9115  -0.239   2.164   6.817  1.2626  1.6902  1.9521
   93SAPS   H3S 9116  -0.248   2.261   6.667  0.4269  0.8888  0.2948
   93SAPS   C24 9117  -0.080   2.306   6.821 -0.3131  0.2545  0.9569
   93SAPS   H4R 9118  -0.000   2.327   6.746  0.2505  0.9007  1.7283
   93SAPS   H4S 9119  -0.030   2.239   6.894  1.1201 -0.2878 -0.4812
   93SAPS   C25 9120  -0.149   2.428   6.882  0.3523 -0.7845 -0.6492
   93SAPS   H5R 9121  -0.175   2.506   6.809  0.6471 -0.9032 -0.8797
   93SAPS   C26 9122  -0.168   2.449   7.022 -0.9284  0.0779  0.0192
   93SAPS   H6R 9123  -0.220   2.541   7.053  1.5662  2.1826 -1.8235
   93SAPS   C27 9124  -0.109   2.360   7.132 -0.0929  0.7992  0.5766
   93SAPS   H7R 9125  -0.019   2.312   7.088  1.0264  1.5963  1.9430
   93SAPS   H7S 9126  -0.180   2.276   7.147  0.8410  0.2998  2.4004
   93SAPS   C28 9127  -0.065   2.425   7.257 -0.5863  0.0407 -0.5442
   93SAPS   H8R 9128   0.009   2.503   7.234  1.3279 -2.3322 -2.7786
   93SAPS   C29 9129  -0.109   2.401   7.381 -0.8300  0.4393  0.0563
   93SAPS   H9R 9130  -0.056   2.444   7.467  0.6109  1.1791 -1.1812
   93SAPS  C210 9131  -0.209   2.296   7.428 -0.4015 -0.1607  0.1915
   93SAPS  H10R 9132  -0.281   2.270   7.347 -0.3948 -1.2394  0.5278
   93SAPS  H10S 9133  -0.277   2.341   7.504 -1.4194 -2.0595  0.4336
   93SAPS  C211 9134  -0.141   2.171   7.470 -0.7008 -0.4322  0.3550
   93SAPS  H11R 9135  -0.083   2.115   7.395 -0.3360 -1.3738  1.3391
   93SAPS  C212 9136  -0.115   2.147   7.600  0.2741  0.1948 -0.1144
   93SAPS  H12R 9137  -0.064   2.052   7.623  0.2529 -0.0445 -1.0335
   93SAPS  C213 9138  -0.163   2.233   7.713  0.4228  0.1049 -0.1938
   93SAPS  H13R 9139  -0.271   2.257   7.701 -0.3215 -1.3223  2.9928
   93SAPS  H13S 9140  -0.105   2.325   7.690  0.5885 -0.2943 -1.3856
   93SAPS  C214 9141  -0.136   2.175   7.853 -0.0261 -0.5550 -0.5785
   93SAPS  H14R 9142  -0.082   2.079   7.850 -0.4023 -0.8061  0.8457
   93SAPS  C215 9143  -0.175   2.221   7.974 -0.5266 -0.7903  0.9607
   93SAPS  H15R 9144  -0.148   2.170   8.067  2.7117 -1.4923 -0.3022
   93SAPS  C216 9145  -0.269   2.341   7.979  0.1556 -0.1020 -0.3626
   93SAPS  H16R 9146  -0.333   2.346   7.889  1.6150 -0.2152 -1.4295
   93SAPS  H16S 9147  -0.228   2.443   7.995  0.4639 -0.1514 -0.8274
   93SAPS  C217 9148  -0.369   2.317   8.093  0.1914 -0.1911 -0.4125
   93SAPS  H17R 9149  -0.405   2.212   8.091 -0.9639  0.2012 -0.4184
   93SAPS  H17S 9150  -0.453   2.387   8.076  2.0522  2.4035  0.7177
   93SAPS  C218 9151  -0.316   2.361   8.228 -0.5926 -0.3719  1.1198
   93SAPS  H18R 9152  -0.286   2.468   8.225 -1.4324 -0.1632 -0.7366
   93SAPS  H18S 9153  -0.225   2.302   8.251  1.5105  2.1933 -0.4444
   93SAPS  C219 9154  -0.424   2.347   8.335  0.4915  0.0208  0.6437
   93SAPS  H19R 9155  -0.456   2.241   8.350 -0.6910  0.3635  0.5871
   93SAPS  H19S 9156  -0.513   2.403   8.299 -0.6904 -3.0950 -1.4779
   93SAPS  C220 9157  -0.376   2.398   8.469  0.1697 -0.0440  1.0483
   93SAPS  H20R 9158  -0.328   2.497   8.455  0.3399 -0.1710  0.7266
   93SAPS  H20S 9159  -0.300   2.330   8.512  1.7150  1.1400  0.2559
   93SAPS  H20T 9160  -0.459   2.422   8.538 -1.6286 -0.8315 -0.7689
   93SAPS   C33 9161   0.288   2.112   7.381 -0.6566 -0.6567 -0.3650
   93SAPS   H3X 9162   0.385   2.057   7.392 -0.1429  0.1674 -0.7226
   93SAPS   H3Y 9163   0.210   2.033   7.379  0.6022 -1.9366  0.1771
   93SAPS   C34 9164   0.264   2.198   7.507  0.7925  0.2108  0.4708
   93SAPS   H4X 9165   0.166   2.251   7.503  0.2481 -0.6914  1.4719
   93SAPS   H4Y 9166   0.342   2.277   7.510  0.7645  0.2164  1.0341
   93SAPS   C35 9167   0.256   2.106   7.635  0.4107 -0.8776 -0.0881
   93SAPS   H5X 9168   0.354   2.057   7.655 -0.4620 -2.4179  0.5134
   93SAPS   H5Y 9169   0.176   2.031   7.615  0.1651 -0.5174 -0.4503
   93SAPS   C36 9170   0.211   2.156   7.770 -0.0587  0.0049 -0.3848
   93SAPS   H6X 9171   0.110   2.199   7.756 -0.2370 -0.1219  0.4607
   93SAPS   H6Y 9172   0.276   2.239   7.806  1.6947 -0.6381 -2.0076
   93SAPS   C37 9173   0.196   2.047   7.874  0.7002  0.3280  0.8696
   93SAPS   H7X 9174   0.288   1.985   7.868 -0.0403 -0.6655 -0.3943
   93SAPS   H7Y 9175   0.108   1.981   7.860  1.6394 -0.5286 -1.2249
   93SAPS   C38 9176   0.188   2.108   8.014 -0.9865 -0.5381  0.2500
   93SAPS   H8X 9177   0.093   2.165   8.022 -1.8697 -2.0074  0.5335
   93SAPS   H8Y 9178   0.266   2.184   8.035 -0.6351 -0.9514  0.4478
   93SAPS   C39 9179   0.181   2.001   8.124  0.0869  0.3025 -0.4005
   93SAPS   H9X 9180   0.285   1.973   8.151 -0.7767 -1.8101  0.7840
   93SAPS   H9Y 9181   0.127   1.910   8.092  1.7935 -1.5194  1.7684
   93SAPS  C310 9182   0.108   2.062   8.242 -0.8835 -0.0594 -0.2531
   93SAPS  H10X 9183   0.002   2.076   8.211 -0.7236 -1.0638 -1.2848
   93SAPS  H10Y 9184   0.144   2.166   8.254 -0.1443 -0.2127 -1.0791
   93SAPS  C311 9185   0.116   1.981   8.367  0.1795  0.2797 -0.1424
   93SAPS  H11X 9186   0.223   1.965   8.392 -0.1838 -0.0004  1.2979
   93SAPS  H11Y 9187   0.076   1.882   8.335  1.9498  0.3420 -2.6438
   93SAPS  C312 9188   0.029   2.044   8.485  0.0054 -0.5154 -0.1830
   93SAPS  H12X 9189   0.065   2.145   8.511 -0.6747 -0.3593  0.1546
   93SAPS  H12Y 9190   0.049   1.988   8.579 -0.0112 -2.2407 -1.1811
   93SAPS  C313 9191  -0.120   2.044   8.454 -0.2140 -0.2873 -0.4809
   93SAPS  H13X 9192  -0.151   1.959   8.389  1.0340 -0.6608 -0.5947
   93SAPS  H13Y 9193  -0.151   2.132   8.393  2.1379 -1.0900 -2.9212
   93SAPS  C314 9194  -0.208   2.023   8.579 -0.0012 -0.5315  0.0576
   93SAPS  H14X 9195  -0.313   2.057   8.564  0.0788 -0.7280 -0.9437
   93SAPS  H14Y 9196  -0.170   2.068   8.673  0.4902 -2.8746  1.0199
   93SAPS  C315 9197  -0.242   1.874   8.605  0.0461  0.1729 -0.2238
   93SAPS  H15X 9198  -0.164   1.820   8.663  0.9844 -1.0705 -2.5621
   93SAPS  H15Y 9199  -0.253   1.812   8.513  2.0851 -2.3276  1.1477
   93SAPS  C316 9200  -0.381   1.864   8.670 -0.0518  0.6033 -0.4132
   93SAPS  H16X 9201  -0.440   1.949   8.631 -0.5626  0.8678  0.9088
   93SAPS  H16Y 9202  -0.358   1.887   8.777  0.5990 -0.0545 -0.4114
   93SAPS  C317 9203  -0.459   1.737   8.651 -0.0902  1.1781 -0.3558
   93SAPS  H17X 9204  -0.477   1.699   8.548  0.3055 -1.0561  0.3712
   93SAPS  H17Y 9205  -0.556   1.754   8.702  0.4694  4.2838 -0.2215
   93SAPS  C318 9206  -0.383   1.626   8.731  0.0498  0.2430  0.1027
   93SAPS  H18X 9207  -0.438   1.531   8.712  2.0383 -0.6661 -1.3746
   93SAPS  H18Y 9208  -0.408   1.643   8.837 -2.2181  1.4697 -0.5786
   93SAPS  H18Z 9209  -0.273   1.622   8.719 -0.0153  0.1673 -0.5341
   94SAPS     N 9210   6.476   3.887   5.797 -0.3516 -0.1173 -0.4857
   94SAPS   HN1 9211   6.428   3.903   5.887  1.0290 -1.1234  0.4477
   94SAPS   HN2 9212   6.417   3.837   5.727  1.3590  0.4621 -2.4002
   94SAPS   HN3 9213   6.560   3.831   5.821 -0.1843 -0.3887 -1.6553
   94SAPS   C12 9214   6.507   4.019   5.747  0.5350 -0.2205 -0.0718
   94SAPS  H12A 9215   6.579   4.017   5.667  1.2682 -1.7782  0.6042
   94SAPS   C13 9216   6.380   4.099   5.692 -1.1775 -0.1113  0.3180
   94SAPS  O13A 9217   6.270   4.054   5.716 -0.2319 -0.6070 -0.3628
   94SAPS  O13B 9218   6.395   4.215   5.653  0.0090  0.1673  0.0626
   94SAPS   C11 9219   6.579   4.103   5.856  0.4824 -0.3593 -0.2110
   94SAPS  H11A 9220   6.505   4.107   5.939 -1.8843 -2.1403 -2.1478
   94SAPS  H11B 9221   6.585   4.205   5.813 -0.3647  0.6155  1.9158
   94SAPS     P 9222   6.840   4.116   5.836  0.0420  0.2014  0.0341
   94SAPS   O13 9223   6.948   4.009   5.854  0.2263  0.0854 -0.3718
   94SAPS   O14 9224   6.808   4.148   5.694  0.3170  0.1560  0.1940
   94SAPS   O12 9225   6.707   4.062   5.900 -0.4872  0.4288 -0.2388
   94SAPS   O11 9226   6.885   4.239   5.921  0.5406 -0.2902  0.3762
   94SAPS    C1 9227   6.865   4.259   6.060  0.0906 -0.0911 -0.0783
   94SAPS    HA 9228   6.786   4.200   6.111  0.9392 -0.2986  1.0333
   94SAPS    HB 9229   6.958   4.237   6.117  0.3384  0.4306 -0.2789
   94SAPS    C2 9230   6.838   4.413   6.089 -0.6167 -0.5243  0.1521
   94SAPS    HS 9231   6.908   4.471   6.026 -1.0342 -0.8994 -0.6683
   94SAPS   O21 9232   6.857   4.435   6.228  0.2073 -0.3227  0.3723
   94SAPS   C21 9233   6.847   4.568   6.260  0.4550  0.4504  0.2740
   94SAPS   O22 9234   6.823   4.658   6.178 -0.5556 -1.1209  0.0838
   94SAPS   C22 9235   6.841   4.584   6.416  0.6941  0.1489 -0.3416
   94SAPS   H2R 9236   6.765   4.512   6.452  1.9206  0.4074  2.9287
   94SAPS   H2S 9237   6.933   4.535   6.454  2.2526  2.9756 -0.3186
   94SAPS    C3 9238   6.696   4.444   6.028 -0.0674  0.3808 -0.3169
   94SAPS    HX 9239   6.702   4.434   5.918 -1.7794 -1.5252 -0.2506
   94SAPS    HY 9240   6.659   4.548   6.043 -2.1660 -0.6472  2.0487
   94SAPS   O31 9241   6.604   4.344   6.078  0.1996 -0.2378  0.1950
   94SAPS   C31 9242   6.562   4.368   6.199  0.8058  0.9714 -0.2797
   94SAPS   O32 9243   6.589   4.468   6.268 -0.1218  0.5953  0.4077
   94SAPS   C32 9244   6.481   4.255   6.257 -0.2823  0.2752  0.3678
   94SAPS   H2X 9245   6.559   4.195   6.309  1.1297  3.0731  1.5713
   94SAPS   H2Y 9246   6.426   4.202   6.176  0.2027  1.5067 -0.7814
   94SAPS   C23 9247   6.808   4.724   6.463  0.1630  0.0080  0.2302
   94SAPS   H3R 9248   6.718   4.748   6.402  0.4953  0.7988  0.0455
   94SAPS   H3S 9249   6.884   4.797   6.428  1.1423 -1.3367 -0.4792
   94SAPS   C24 9250   6.770   4.754   6.611 -0.2921  0.0021  0.1288
   94SAPS   H4R 9251   6.673   4.699   6.619 -0.3675  0.0685 -0.2919
   94SAPS   H4S 9252   6.770   4.864   6.624 -0.7391 -0.2079  1.9919
   94SAPS   C25 9253   6.868   4.679   6.702  0.5392 -0.4174  0.4251
   94SAPS   H5R 9254   6.946   4.621   6.651 -0.5644  0.4760 -2.4020
   94SAPS   C26 9255   6.872   4.688   6.831 -0.4587 -0.2022  0.1414
   94SAPS   H6R 9256   6.939   4.626   6.893  0.2927  1.1660  0.7353
   94SAPS   C27 9257   6.762   4.765   6.899  0.4731  0.0217 -0.0518
   94SAPS   H7R 9258   6.689   4.694   6.941  0.8600 -0.5235 -0.2932
   94SAPS   H7S 9259   6.695   4.831   6.839  0.6320 -0.7450 -1.0933
   94SAPS   C28 9260   6.823   4.846   7.006  0.0266  0.0762 -0.4074
   94SAPS   H8R 9261   6.877   4.936   6.974 -3.5530  1.9998 -1.2948
   94SAPS   C29 9262   6.829   4.813   7.136  0.5685 -0.0496  0.5076
   94SAPS   H9R 9263   6.871   4.881   7.212 -0.3240 -0.3629  1.2842
   94SAPS  C210 9264   6.774   4.696   7.212  0.1242 -0.2621 -0.5881
   94SAPS  H10R 9265   6.742   4.610   7.149  0.5094 -0.6618 -0.2506
   94SAPS  H10S 9266   6.685   4.720   7.273  0.5699 -0.4865  0.1472
   94SAPS  C211 9267   6.878   4.641   7.296  0.1749  0.0834  0.7369
   94SAPS  H11R 9268   6.918   4.553   7.245 -0.6145  0.0868  0.1032
   94SAPS  C212 9269   6.941   4.683   7.407  0.4811 -0.0078  0.2094
   94SAPS  H12R 9270   7.024   4.619   7.442 -0.2135 -0.4869  0.9876
   94SAPS  C213 9271   6.914   4.806   7.487  0.2351  0.6712 -0.5688
   94SAPS  H13R 9272   6.878   4.887   7.421  1.1719  0.8241 -0.8946
   94SAPS  H13S 9273   7.008   4.845   7.533 -0.5124  0.5490  1.1111
   94SAPS  C214 9274   6.808   4.786   7.594  0.3106  0.1869  0.8658
   94SAPS  H14R 9275   6.710   4.752   7.556 -0.4075  3.6305 -0.5918
   94SAPS  C215 9276   6.812   4.792   7.729 -0.1654 -0.1696 -0.1257
   94SAPS  H15R 9277   6.716   4.765   7.774 -0.1556 -0.0337 -0.0223
   94SAPS  C216 9278   6.919   4.836   7.825 -0.8844  0.0099  0.3509
   94SAPS  H16R 9279   6.881   4.886   7.916 -0.3034  1.1071 -0.0045
   94SAPS  H16S 9280   6.978   4.914   7.772 -1.2176  0.1915  0.2461
   94SAPS  C217 9281   7.027   4.725   7.868 -0.2123 -0.1482  0.0733
   94SAPS  H17R 9282   7.119   4.781   7.895 -1.3310  1.8821 -0.1926
   94SAPS  H17S 9283   7.061   4.672   7.777  1.4668  0.7132  0.1838
   94SAPS  C218 9284   6.955   4.632   7.969  0.1369  0.0724 -0.1971
   94SAPS  H18R 9285   7.023   4.544   7.974 -0.0979 -0.0654  0.6366
   94SAPS  H18S 9286   6.861   4.593   7.925 -0.2622  0.3386  0.4200
   94SAPS  C219 9287   6.938   4.680   8.113  0.5162 -0.0447  0.6741
   94SAPS  H19R 9288   6.999   4.769   8.139  0.4238  0.2422 -0.0526
   94SAPS  H19S 9289   6.966   4.595   8.178 -0.4086 -1.0578 -0.2132
   94SAPS  C220 9290   6.795   4.730   8.148 -0.5769 -0.6655 -0.3181
   94SAPS  H20R 9291   6.725   4.644   8.158 -2.8929  1.2266  0.4107
   94SAPS  H20S 9292   6.743   4.789   8.069  2.2248 -0.6310 -2.1899
   94SAPS  H20T 9293   6.804   4.789   8.242  0.3040 -2.2025  0.5706
   94SAPS   C33 9294   6.377   4.304   6.366  0.4122  0.6108 -0.2435
   94SAPS   H3X 9295   6.305   4.222   6.386  0.9737  0.8469  2.9817
   94SAPS   H3Y 9296   6.316   4.391   6.332  0.2070  0.3843 -0.4620
   94SAPS   C34 9297   6.438   4.330   6.504  0.0533 -0.5178 -0.0940
   94SAPS   H4X 9298   6.521   4.403   6.498  0.1443 -0.7199 -1.4242
   94SAPS   H4Y 9299   6.470   4.233   6.547 -3.8040 -1.5602  0.6277
   94SAPS   C35 9300   6.336   4.391   6.603  0.0510  0.5840  0.5368
   94SAPS   H5X 9301   6.242   4.332   6.601 -0.5850  1.5973 -0.1772
   94SAPS   H5Y 9302   6.297   4.484   6.555  0.7272  0.3805 -0.4318
   94SAPS   C36 9303   6.381   4.401   6.742 -0.0597 -0.6545 -0.2412
   94SAPS   H6X 9304   6.484   4.442   6.747 -0.4131  0.2338 -0.1351
   94SAPS   H6Y 9305   6.375   4.297   6.781  1.0962 -1.2272 -1.5439
   94SAPS   C37 9306   6.287   4.491   6.824  0.0837 -0.0486  0.7404
   94SAPS   H7X 9307   6.187   4.443   6.819 -0.8550  1.7525  1.4472
   94SAPS   H7Y 9308   6.275   4.581   6.760 -0.5979  0.0689  1.0250
   94SAPS   C38 9309   6.341   4.534   6.960 -0.4676  0.1070  0.6189
   94SAPS   H8X 9310   6.270   4.606   7.007  0.1494  0.7746  0.5449
   94SAPS   H8Y 9311   6.434   4.592   6.942  0.5472 -1.3109  1.2592
   94SAPS   C39 9312   6.375   4.405   7.040  0.0421  0.0364 -0.5730
   94SAPS   H9X 9313   6.478   4.372   7.016  0.8084  1.3790  0.8477
   94SAPS   H9Y 9314   6.312   4.319   7.010  1.7242 -0.9601 -1.3073
   94SAPS  C310 9315   6.369   4.433   7.200 -0.6846 -0.0396  0.2178
   94SAPS  H10X 9316   6.299   4.362   7.249  1.2003 -1.6926  0.5703
   94SAPS  H10Y 9317   6.322   4.530   7.226 -0.6275  0.6130 -1.9878
   94SAPS  C311 9318   6.510   4.416   7.259 -0.2424 -0.1700  0.3362
   94SAPS  H11X 9319   6.577   4.492   7.214 -1.6501  0.6144 -0.4673
   94SAPS  H11Y 9320   6.550   4.317   7.229 -0.4939  0.2046 -1.2861
   94SAPS  C312 9321   6.511   4.435   7.406  0.0461 -0.4729  0.1032
   94SAPS  H12X 9322   6.605   4.411   7.461 -0.4424 -0.1960  1.0537
   94SAPS  H12Y 9323   6.440   4.358   7.444 -1.2197  0.9642  0.6784
   94SAPS  C313 9324   6.441   4.561   7.458 -0.2851 -0.3648 -0.0792
   94SAPS  H13X 9325   6.335   4.581   7.431 -0.5261 -1.4928  0.0239
   94SAPS  H13Y 9326   6.492   4.653   7.422  0.2703 -0.8084 -0.4231
   94SAPS  C314 9327   6.443   4.566   7.617  0.5053  0.1924 -0.3224
   94SAPS  H14X 9328   6.391   4.662   7.639 -0.2803 -0.3045 -0.0092
   94SAPS  H14Y 9329   6.554   4.572   7.626  0.6644 -0.3373 -1.8175
   94SAPS  C315 9330   6.385   4.440   7.680  0.7272  0.6136 -0.6499
   94SAPS  H15X 9331   6.461   4.363   7.657  0.8466  1.0989 -1.9278
   94SAPS  H15Y 9332   6.293   4.411   7.626 -1.1798  2.5254  1.4555
   94SAPS  C316 9333   6.349   4.433   7.833 -0.2780 -0.1370 -0.5992
   94SAPS  H16X 9334   6.257   4.491   7.858 -0.1826 -0.5480  0.7309
   94SAPS  H16Y 9335   6.437   4.488   7.874  0.7580 -2.4814  0.4126
   94SAPS  C317 9336   6.344   4.291   7.891 -0.0376 -0.0498  0.0289
   94SAPS  H17X 9337   6.439   4.235   7.902 -0.1736 -0.3992 -0.5591
   94SAPS  H17Y 9338   6.302   4.239   7.802  0.0284 -0.8617  0.4705
   94SAPS  C318 9339   6.268   4.281   8.020  0.6009 -0.5454 -0.3035
   94SAPS  H18X 9340   6.269   4.180   8.067  1.0178  1.0639  3.3264
   94SAPS  H18Y 9341   6.161   4.303   7.996  0.1184 -2.9293 -0.5313
   94SAPS  H18Z 9342   6.307   4.345   8.102 -0.1956 -2.5266  1.6848
   95SAPS     N 9343   2.912   2.287   5.914 -0.4833  0.3934 -0.5221
   95SAPS   HN1 9344   2.843   2.361   5.892 -1.8632 -0.3872  1.0953
   95SAPS   HN2 9345   2.973   2.327   5.988 -1.1392 -0.6972  0.6293
   95SAPS   HN3 9346   2.974   2.267   5.833  0.3497 -3.7971  0.9880
   95SAPS   C12 9347   2.850   2.153   5.948 -0.3981 -0.2272  0.5373
   95SAPS  H12A 9348   2.775   2.173   6.023  0.1537 -0.7052  1.2322
   95SAPS   C13 9349   2.775   2.077   5.839  0.2120  0.2959 -0.0364
   95SAPS  O13A 9350   2.772   2.120   5.721 -0.1262 -0.0317 -0.2349
   95SAPS  O13B 9351   2.692   1.988   5.883  0.1004  0.3075 -0.0551
   95SAPS   C11 9352   2.965   2.060   5.995 -0.2145  0.1827 -0.6296
   95SAPS  H11A 9353   3.037   2.062   5.911 -0.7612 -1.4083 -1.1531
   95SAPS  H11B 9354   2.938   1.953   6.010  1.4354 -0.0242  1.0214
   95SAPS     P 9355   2.983   2.068   6.255  0.3449 -0.1792  0.0052
   95SAPS   O13 9356   3.037   2.168   6.347 -0.4700  0.6964  0.0361
   95SAPS   O14 9357   2.834   2.044   6.251  0.5561 -0.2589  0.2309
   95SAPS   O12 9358   3.028   2.113   6.109  0.3237  0.2495  0.1519
   95SAPS   O11 9359   3.047   1.926   6.270  0.0181 -0.0036  0.2033
   95SAPS    C1 9360   2.990   1.815   6.332  0.2535  0.8423  0.3837
   95SAPS    HA 9361   2.882   1.810   6.306  0.4241 -0.5270 -0.1327
   95SAPS    HB 9362   3.035   1.716   6.308  1.9187  1.2376  1.7528
   95SAPS    C2 9363   3.003   1.830   6.488 -0.0342 -0.3509  0.4650
   95SAPS    HS 9364   2.946   1.920   6.518 -0.8941 -0.9901  0.7847
   95SAPS   O21 9365   3.140   1.839   6.516  0.5035  0.3779  0.0174
   95SAPS   C21 9366   3.177   1.903   6.627  0.3206  0.4821  0.5876
   95SAPS   O22 9367   3.113   1.992   6.684 -0.4417  0.7386 -0.0583
   95SAPS   C22 9368   3.322   1.866   6.671 -0.2571 -0.4572 -0.4115
   95SAPS   H2R 9369   3.336   1.756   6.681 -0.1793 -0.5701 -1.6808
   95SAPS   H2S 9370   3.384   1.896   6.584  1.6033 -1.5838  0.5001
   95SAPS    C3 9371   2.944   1.704   6.558 -0.3521 -0.0853  0.4669
   95SAPS    HX 9372   3.010   1.619   6.529  2.1753  3.0822 -3.4515
   95SAPS    HY 9373   2.844   1.684   6.514 -0.7059  1.7788  0.3909
   95SAPS   O31 9374   2.953   1.732   6.702 -0.1011  0.8197  0.8140
   95SAPS   C31 9375   2.863   1.820   6.754  0.6430  0.2412 -0.3119
   95SAPS   O32 9376   2.781   1.872   6.686  0.9816 -0.1557  0.5712
   95SAPS   C32 9377   2.876   1.843   6.904  0.1099  0.3291 -0.5370
   95SAPS   H2X 9378   2.979   1.813   6.933  0.1427  1.1578  0.2037
   95SAPS   H2Y 9379   2.811   1.765   6.950 -1.1023  0.6473 -1.6645
   95SAPS   C23 9380   3.369   1.936   6.798  0.6607  0.4541  0.1605
   95SAPS   H3R 9381   3.331   2.040   6.787  0.5294  0.3006 -0.9293
   95SAPS   H3S 9382   3.480   1.936   6.797  0.6774  2.0756  0.6838
   95SAPS   C24 9383   3.318   1.888   6.933 -0.2935 -0.0939  0.0790
   95SAPS   H4R 9384   3.208   1.874   6.938 -0.1025 -1.1541  2.0279
   95SAPS   H4S 9385   3.329   1.976   7.000 -3.2746  0.2537  0.1755
   95SAPS   C25 9386   3.403   1.782   6.989 -0.3098  0.7769 -0.3454
   95SAPS   H5R 9387   3.477   1.726   6.930 -0.3937 -1.3279  1.4793
   95SAPS   C26 9388   3.379   1.717   7.105  0.8170  0.0134  0.2359
   95SAPS   H6R 9389   3.439   1.633   7.140  1.9215  0.7348  0.0909
   95SAPS   C27 9390   3.256   1.744   7.182  0.1631  0.5255  0.4371
   95SAPS   H7R 9391   3.237   1.643   7.226  1.3744  0.2577  0.3826
   95SAPS   H7S 9392   3.162   1.769   7.129 -0.6953  1.2583  2.2785
   95SAPS   C28 9393   3.281   1.859   7.280 -0.4652 -0.7053 -0.1121
   95SAPS   H8R 9394   3.318   1.950   7.232 -2.4585 -0.1665 -0.6744
   95SAPS   C29 9395   3.293   1.851   7.415 -0.4462 -0.4115 -0.2106
   95SAPS   H9R 9396   3.318   1.945   7.467  3.0269 -0.5289 -1.5220
   95SAPS  C210 9397   3.278   1.725   7.502  0.4350 -0.5092 -0.0156
   95SAPS  H10R 9398   3.380   1.683   7.515  0.5727 -0.4054 -0.7601
   95SAPS  H10S 9399   3.223   1.638   7.461  2.0267 -1.1520 -0.8202
   95SAPS  C211 9400   3.218   1.765   7.633 -0.3595 -0.4898  0.1870
   95SAPS  H11R 9401   3.130   1.831   7.632  1.3003  1.7991 -0.5446
   95SAPS  C212 9402   3.265   1.734   7.756  0.8008  0.3504 -0.1087
   95SAPS  H12R 9403   3.206   1.773   7.840  1.5797  0.2900  0.4667
   95SAPS  C213 9404   3.384   1.656   7.799  0.4108 -1.0676 -0.2977
   95SAPS  H13R 9405   3.463   1.709   7.857 -1.3040 -0.2335  1.3322
   95SAPS  H13S 9406   3.443   1.638   7.707 -0.3641 -1.4340 -0.7226
   95SAPS  C214 9407   3.339   1.523   7.856 -0.4534 -0.3070 -0.3684
   95SAPS  H14R 9408   3.299   1.444   7.791 -0.3002 -2.2981  1.8614
   95SAPS  C215 9409   3.348   1.482   7.987  0.3236  0.0392 -0.1412
   95SAPS  H15R 9410   3.296   1.385   8.000 -1.0947  0.7245 -0.5083
   95SAPS  C216 9411   3.404   1.559   8.108 -0.0244 -0.3837  0.1473
   95SAPS  H16R 9412   3.387   1.668   8.114  0.5155 -0.3712  1.9444
   95SAPS  H16S 9413   3.514   1.552   8.092  0.3947 -0.0024  2.5534
   95SAPS  C217 9414   3.373   1.483   8.242 -0.0316  0.1023  1.2946
   95SAPS  H17R 9415   3.396   1.376   8.224  0.9743  0.5503 -0.2556
   95SAPS  H17S 9416   3.264   1.491   8.259  0.0565  2.6949  0.8893
   95SAPS  C218 9417   3.458   1.530   8.357  0.9792  0.6229  0.2276
   95SAPS  H18R 9418   3.565   1.542   8.328  1.2213  1.0075  1.2781
   95SAPS  H18S 9419   3.447   1.455   8.437  0.5481 -0.2854 -0.6709
   95SAPS  C219 9420   3.415   1.669   8.405  0.5057  0.2294  0.2842
   95SAPS  H19R 9421   3.420   1.744   8.324  0.0966  0.1770  0.2114
   95SAPS  H19S 9422   3.498   1.703   8.471  0.2893 -1.1022  1.2714
   95SAPS  C220 9423   3.284   1.670   8.481 -0.0425  0.0824  0.3174
   95SAPS  H20R 9424   3.281   1.604   8.570 -0.0777 -1.1283 -0.5629
   95SAPS  H20S 9425   3.197   1.652   8.415 -0.1261  0.6756  0.2621
   95SAPS  H20T 9426   3.266   1.774   8.514 -0.3543 -0.4851  1.9683
   95SAPS   C33 9427   2.859   1.995   6.943 -0.5135  0.7074  0.6189
   95SAPS   H3X 9428   2.751   2.015   6.927 -0.1251  1.6197 -0.9241
   95SAPS   H3Y 9429   2.934   2.051   6.883  1.8513 -0.4267  2.4157
   95SAPS   C34 9430   2.883   2.020   7.097  0.0263 -0.0305  0.3768
   95SAPS   H4X 9431   2.860   2.121   7.138 -1.3203  0.0177 -0.4320
   95SAPS   H4Y 9432   2.992   2.008   7.109 -0.1073 -0.3593  1.3106
   95SAPS   C35 9433   2.813   1.922   7.189 -0.4404 -0.3827  0.5382
   95SAPS   H5X 9434   2.846   1.818   7.169  0.4568  0.0727 -0.3815
   95SAPS   H5Y 9435   2.704   1.943   7.190 -0.0853  1.6029 -0.3351
   95SAPS   C36 9436   2.851   1.938   7.337 -0.0644  0.6326  0.6850
   95SAPS   H6X 9437   2.961   1.933   7.348 -0.0626 -0.6202  0.1255
   95SAPS   H6Y 9438   2.811   1.846   7.385  0.9731 -1.9735 -3.1648
   95SAPS   C37 9439   2.788   2.063   7.399  0.2756 -0.1150 -0.0111
   95SAPS   H7X 9440   2.678   2.051   7.393  0.3530 -0.5074 -0.7763
   95SAPS   H7Y 9441   2.821   2.155   7.347  3.3089 -0.1978  1.6602
   95SAPS   C38 9442   2.806   2.076   7.546  0.0689  0.2669  0.3312
   95SAPS   H8X 9443   2.773   1.980   7.591 -0.5247  0.6074  0.6283
   95SAPS   H8Y 9444   2.742   2.160   7.580 -0.1284 -1.0427  3.3085
   95SAPS   C39 9445   2.948   2.114   7.592 -0.2824 -0.7658 -0.2510
   95SAPS   H9X 9446   2.988   2.198   7.531  2.3399 -1.2003  0.7936
   95SAPS   H9Y 9447   3.027   2.036   7.583 -0.3382 -1.2083  2.5722
   95SAPS  C310 9448   2.947   2.184   7.732 -0.0290  0.8615  0.2049
   95SAPS  H10X 9449   2.899   2.282   7.711 -1.6094  0.1723  0.5492
   95SAPS  H10Y 9450   3.053   2.195   7.763 -0.6302  1.7532  2.0487
   95SAPS  C311 9451   2.879   2.114   7.843 -0.1292 -0.7224 -0.1494
   95SAPS  H11X 9452   2.947   2.026   7.853  1.1361  0.0882 -1.3451
   95SAPS  H11Y 9453   2.778   2.078   7.816 -0.2233  0.6386 -1.6941
   95SAPS  C312 9454   2.876   2.183   7.982 -0.3485  0.3952 -1.0569
   95SAPS  H12X 9455   2.826   2.282   7.982  1.1881  1.2059  1.2201
   95SAPS  H12Y 9456   2.980   2.209   8.011 -0.9034 -1.0593  2.6064
   95SAPS  C313 9457   2.827   2.085   8.090 -0.6275 -0.1927 -0.2580
   95SAPS  H13X 9458   2.910   2.035   8.145 -0.7578  1.3562  1.3956
   95SAPS  H13Y 9459   2.774   2.007   8.032  2.1341 -2.2318 -0.1863
   95SAPS  C314 9460   2.751   2.168   8.195 -0.5318  0.1615  0.5484
   95SAPS  H14X 9461   2.671   2.227   8.144 -0.6247 -0.8772 -0.5208
   95SAPS  H14Y 9462   2.813   2.242   8.250  1.3099 -0.3661 -0.7664
   95SAPS  C315 9463   2.693   2.082   8.315 -0.5249 -0.5030 -0.3040
   95SAPS  H15X 9464   2.774   2.037   8.376  2.0664  1.9655 -1.7498
   95SAPS  H15Y 9465   2.631   2.006   8.262 -2.0613 -1.1699  2.3781
   95SAPS  C316 9466   2.602   2.163   8.406  0.2708  1.1851 -0.6317
   95SAPS  H16X 9467   2.645   2.264   8.414  3.4846 -0.1578 -0.1773
   95SAPS  H16Y 9468   2.598   2.128   8.512 -2.7567 -0.6387 -1.2849
   95SAPS  C317 9469   2.459   2.171   8.365 -0.5341 -0.3904 -0.1272
   95SAPS  H17X 9470   2.400   2.080   8.388 -0.2885 -0.4845  0.1237
   95SAPS  H17Y 9471   2.458   2.192   8.255 -2.3884 -0.5897 -0.1632
   95SAPS  C318 9472   2.398   2.289   8.431 -0.6788 -0.7414 -0.2820
   95SAPS  H18X 9473   2.464   2.378   8.431 -1.7304  0.0506  0.0314
   95SAPS  H18Y 9474   2.388   2.274   8.540 -0.3946 -0.1613 -0.1758
   95SAPS  H18Z 9475   2.304   2.322   8.380  0.4471  0.6553 -1.4976
   96SAPS     N 9476   4.217   3.711   6.444 -0.1268 -0.2381 -0.3668
   96SAPS   HN1 9477   4.319   3.697   6.427  0.5293  0.4563  2.7112
   96SAPS   HN2 9478   4.220   3.750   6.540 -1.2901  1.2411 -0.9170
   96SAPS   HN3 9479   4.171   3.618   6.447  1.9500 -1.2643  1.5456
   96SAPS   C12 9480   4.156   3.794   6.346  0.8359 -0.6778  0.5231
   96SAPS  H12A 9481   4.163   3.889   6.398  1.1173 -0.7016  0.5296
   96SAPS   C13 9482   4.237   3.788   6.212 -0.3589  0.4594  0.4718
   96SAPS  O13A 9483   4.323   3.696   6.195 -0.7529 -0.0139  0.2297
   96SAPS  O13B 9484   4.203   3.867   6.126 -0.5028 -0.2338 -0.4960
   96SAPS   C11 9485   4.005   3.752   6.324  0.1475  0.0889 -0.2238
   96SAPS  H11A 9486   4.004   3.654   6.272 -0.0066 -0.5068  0.8783
   96SAPS  H11B 9487   3.960   3.831   6.260  2.7526  1.3992 -0.5301
   96SAPS     P 9488   3.797   3.683   6.452 -0.1778 -0.4178 -0.0663
   96SAPS   O13 9489   3.714   3.749   6.351 -0.1789 -0.1880  0.2127
   96SAPS   O14 9490   3.808   3.536   6.446  0.2846  0.0602  0.1101
   96SAPS   O12 9491   3.938   3.749   6.450  0.3934 -0.2906  0.1196
   96SAPS   O11 9492   3.744   3.736   6.593  0.0443 -0.2703 -0.0122
   96SAPS    C1 9493   3.761   3.867   6.645  0.1774  0.4542 -0.2452
   96SAPS    HA 9494   3.833   3.930   6.589  0.3821 -0.3224 -0.8700
   96SAPS    HB 9495   3.662   3.915   6.630 -0.1745  0.0051  0.6493
   96SAPS    C2 9496   3.818   3.857   6.787 -0.0356 -0.2952  0.2934
   96SAPS    HS 9497   3.912   3.797   6.780 -0.6507 -1.5714  2.5681
   96SAPS   O21 9498   3.716   3.803   6.871 -0.9311  0.4196 -0.4384
   96SAPS   C21 9499   3.765   3.752   6.983 -0.4134 -0.0970  0.2235
   96SAPS   O22 9500   3.885   3.740   7.003  0.6457 -0.2300 -0.1017
   96SAPS   C22 9501   3.655   3.705   7.071 -0.3705  0.1428 -0.0379
   96SAPS   H2R 9502   3.557   3.710   7.019 -1.1787  1.2049  1.5280
   96SAPS   H2S 9503   3.669   3.595   7.079  0.1352  0.1048 -1.2826
   96SAPS    C3 9504   3.864   3.999   6.832  0.4533 -0.5974 -0.3280
   96SAPS    HX 9505   3.776   4.066   6.817  1.9884  0.8588 -3.2616
   96SAPS    HY 9506   3.937   4.044   6.761 -1.5220  1.9538 -0.8076
   96SAPS   O31 9507   3.906   4.008   6.966  0.3153 -0.1907  0.5633
   96SAPS   C31 9508   4.041   4.016   6.987  0.1509 -0.3909  0.0864
   96SAPS   O32 9509   4.123   4.040   6.898  0.1149  0.1165  0.1664
   96SAPS   C32 9510   4.087   3.991   7.129  0.5747  0.3218 -0.5660
   96SAPS   H2X 9511   4.197   3.992   7.139  0.5025  2.2785  0.2401
   96SAPS   H2Y 9512   4.059   3.887   7.159  1.6151  0.2653  0.2049
   96SAPS   C23 9513   3.642   3.763   7.213 -0.6799  0.9576  0.1672
   96SAPS   H3R 9514   3.546   3.717   7.245 -0.8303  0.9384 -0.3161
   96SAPS   H3S 9515   3.632   3.872   7.196 -1.4616  1.2149  2.2035
   96SAPS   C24 9516   3.741   3.725   7.318  0.2837  0.6199  0.1627
   96SAPS   H4R 9517   3.839   3.775   7.306  0.5234  0.0156 -0.4637
   96SAPS   H4S 9518   3.748   3.614   7.326 -1.5852  0.3590 -1.3927
   96SAPS   C25 9519   3.683   3.781   7.449 -0.1501 -0.3518 -0.0270
   96SAPS   H5R 9520   3.689   3.891   7.455  2.8725 -0.3727 -1.4947
   96SAPS   C26 9521   3.631   3.716   7.550  0.8020  0.0947  0.4351
   96SAPS   H6R 9522   3.580   3.769   7.632 -2.1834 -0.0788 -1.2343
   96SAPS   C27 9523   3.608   3.573   7.567  0.4458 -0.3820 -0.0695
   96SAPS   H7R 9524   3.690   3.543   7.635  2.0619  2.1159 -0.8294
   96SAPS   H7S 9525   3.618   3.524   7.468  2.1718  0.7761 -0.4881
   96SAPS   C28 9526   3.472   3.529   7.620 -0.2809 -0.4109 -0.3125
   96SAPS   H8R 9527   3.396   3.508   7.544  0.6802  1.4709 -1.8489
   96SAPS   C29 9528   3.444   3.518   7.755  0.0496 -0.0082 -0.1051
   96SAPS   H9R 9529   3.344   3.480   7.778 -0.5193  2.7592  2.1630
   96SAPS  C210 9530   3.532   3.558   7.870 -0.3266 -0.5718 -0.1423
   96SAPS  H10R 9531   3.522   3.668   7.882  0.0671 -0.5916  0.3847
   96SAPS  H10S 9532   3.640   3.534   7.855  1.0487  3.5958  2.4122
   96SAPS  C211 9533   3.475   3.502   7.997  0.6294 -0.2271 -0.4383
   96SAPS  H11R 9534   3.400   3.422   7.989  2.3850 -1.8595 -1.0666
   96SAPS  C212 9535   3.473   3.553   8.123 -0.3095 -1.0072  0.7787
   96SAPS  H12R 9536   3.415   3.514   8.207  0.6881  0.0822  1.9937
   96SAPS  C213 9537   3.544   3.674   8.165  0.3475  0.6624 -0.0905
   96SAPS  H13R 9538   3.482   3.747   8.221  0.4957 -0.5186  1.6455
   96SAPS  H13S 9539   3.575   3.732   8.075  1.9032 -0.1676 -0.1025
   96SAPS  C214 9540   3.664   3.651   8.250  0.0893  0.8423  0.8297
   96SAPS  H14R 9541   3.756   3.612   8.203  0.5489  1.5334  1.1405
   96SAPS  C215 9542   3.685   3.682   8.381 -0.1155  0.2064 -0.3057
   96SAPS  H15R 9543   3.788   3.664   8.417 -1.4341 -4.3218  1.5745
   96SAPS  C216 9544   3.581   3.738   8.476 -0.6185  0.1300  0.2167
   96SAPS  H16R 9545   3.603   3.719   8.583 -2.1575 -0.5823  0.4231
   96SAPS  H16S 9546   3.488   3.680   8.457 -0.2262 -0.1816 -0.7951
   96SAPS  C217 9547   3.571   3.887   8.453 -0.0644  0.5783  0.4349
   96SAPS  H17R 9548   3.552   3.906   8.345 -3.8768 -0.2035  0.8984
   96SAPS  H17S 9549   3.669   3.936   8.469  0.3633  0.8879 -2.8030
   96SAPS  C218 9550   3.463   3.960   8.530 -0.2460 -0.3495  0.1105
   96SAPS  H18R 9551   3.483   3.949   8.639  1.0779 -0.2670 -0.1093
   96SAPS  H18S 9552   3.369   3.909   8.500  0.4544 -1.2705 -0.5356
   96SAPS  C219 9553   3.469   4.106   8.492  0.7553  0.1823  0.6408
   96SAPS  H19R 9554   3.456   4.113   8.382 -2.7838 -1.5508  0.8763
   96SAPS  H19S 9555   3.566   4.154   8.519 -0.1954  2.2534  0.5082
   96SAPS  C220 9556   3.352   4.193   8.554  0.0435 -0.0237  0.2736
   96SAPS  H20R 9557   3.375   4.297   8.522  0.4770 -0.4690 -0.8767
   96SAPS  H20S 9558   3.346   4.190   8.665  0.2690  1.7326  0.3582
   96SAPS  H20T 9559   3.261   4.160   8.501  0.3765  0.4039 -0.5723
   96SAPS   C33 9560   4.029   4.088   7.233 -0.1958  0.2844  0.0531
   96SAPS   H3X 9561   3.923   4.107   7.205  0.1009 -0.6762 -1.8198
   96SAPS   H3Y 9562   4.091   4.180   7.226  0.3096 -0.1199 -0.8585
   96SAPS   C34 9563   4.021   4.031   7.377 -0.6248 -0.0677 -0.6976
   96SAPS   H4X 9564   4.122   3.997   7.408 -0.5596  0.0496 -0.7845
   96SAPS   H4Y 9565   3.954   3.942   7.382 -1.0277  0.2513 -0.2892
   96SAPS   C35 9566   3.968   4.137   7.483 -0.2775 -0.5776 -0.1722
   96SAPS   H5X 9567   3.863   4.110   7.504 -1.0398  1.1952 -1.5745
   96SAPS   H5Y 9568   3.975   4.233   7.429  0.3523 -1.2231 -1.2701
   96SAPS   C36 9569   4.039   4.139   7.619 -0.0147 -0.1674 -0.3086
   96SAPS   H6X 9570   3.987   4.220   7.673 -0.2751 -1.2315  1.0610
   96SAPS   H6Y 9571   4.148   4.164   7.615 -0.4558  1.8266 -0.3470
   96SAPS   C37 9572   4.031   4.012   7.705 -0.1807  0.4735 -0.0017
   96SAPS   H7X 9573   4.112   4.013   7.782  1.1318 -0.9685 -1.3312
   96SAPS   H7Y 9574   4.051   3.923   7.642  0.4020  1.0039 -0.5772
   96SAPS   C38 9575   3.880   3.989   7.758  0.0395 -0.1447 -0.2209
   96SAPS   H8X 9576   3.806   3.986   7.675  1.4474 -2.2330 -1.4410
   96SAPS   H8Y 9577   3.859   4.073   7.828  2.2460 -1.0040  1.5339
   96SAPS   C39 9578   3.861   3.852   7.820 -0.0774  0.0162 -0.0191
   96SAPS   H9X 9579   3.876   3.774   7.742 -1.5646  0.2006 -0.5094
   96SAPS   H9Y 9580   3.755   3.845   7.852  0.2436  1.3432  1.4041
   96SAPS  C310 9581   3.927   3.827   7.952  0.6511  0.1875  0.3870
   96SAPS  H10X 9582   4.035   3.837   7.928  0.4905 -0.8376 -0.7650
   96SAPS  H10Y 9583   3.908   3.726   7.992 -2.6531  0.4316 -0.4622
   96SAPS  C311 9584   3.899   3.939   8.061 -0.1701 -0.4486 -0.4969
   96SAPS  H11X 9585   3.789   3.959   8.061  0.1171  1.2291  0.4412
   96SAPS  H11Y 9586   3.947   4.029   8.015  0.1735 -0.6855 -0.6021
   96SAPS  C312 9587   3.966   3.906   8.193  0.2920  0.3387 -0.5665
   96SAPS  H12X 9588   4.073   3.888   8.169  0.5133 -0.1793  0.7273
   96SAPS  H12Y 9589   3.932   3.808   8.232  0.3811  0.0074 -1.3080
   96SAPS  C313 9590   3.944   4.007   8.305 -0.0901 -0.4975 -0.3326
   96SAPS  H13X 9591   3.845   3.997   8.354 -1.2731  1.6731 -2.1943
   96SAPS  H13Y 9592   3.962   4.108   8.262  0.6920 -0.3619  0.2940
   96SAPS  C314 9593   4.031   3.998   8.425 -0.7149 -0.1775  0.1193
   96SAPS  H14X 9594   4.134   3.994   8.383  0.1548  0.7097  2.1058
   96SAPS  H14Y 9595   4.014   3.906   8.484 -0.0094  0.7936  1.8652
   96SAPS  C315 9596   4.016   4.118   8.513 -0.3675 -0.6963 -0.2696
   96SAPS  H15X 9597   3.909   4.128   8.542 -0.3854  2.4059 -1.1970
   96SAPS  H15Y 9598   4.056   4.208   8.461 -0.0553 -0.5985  0.1416
   96SAPS  C316 9599   4.103   4.106   8.632 -0.5123 -0.2883  0.4364
   96SAPS  H16X 9600   4.095   4.194   8.698  0.1785  1.1773 -1.3852
   96SAPS  H16Y 9601   4.213   4.101   8.615 -0.6613  1.1473 -1.1161
   96SAPS  C317 9602   4.055   3.986   8.719  0.0002  0.0233 -0.9113
   96SAPS  H17X 9603   4.061   3.884   8.675  0.7803 -0.2129 -0.2792
   96SAPS  H17Y 9604   3.946   4.004   8.731  0.1490  0.1406  0.3179
   96SAPS  C318 9605   4.117   3.986   8.855 -0.3892 -0.5102  0.2752
   96SAPS  H18X 9606   4.215   3.934   8.849 -0.4069 -0.6476  1.0142
   96SAPS  H18Y 9607   4.057   3.915   8.917 -0.3961 -1.5543 -0.8971
   96SAPS  H18Z 9608   4.121   4.087   8.901 -0.7648 -0.0421 -0.7271
   97SAPS     N 9609   4.369   1.954   6.386 -0.2378 -0.3997  1.0308
   97SAPS   HN1 9610   4.273   1.957   6.427 -0.1662 -0.0339  1.1681
   97SAPS   HN2 9611   4.436   1.901   6.445 -0.5082 -0.8087  0.9737
   97SAPS   HN3 9612   4.391   2.055   6.389 -0.4747 -0.3845  2.5661
   97SAPS   C12 9613   4.348   1.914   6.241  0.0836 -0.1979 -0.0909
   97SAPS  H12A 9614   4.253   1.864   6.235  0.0221 -0.0007 -0.8058
   97SAPS   C13 9615   4.343   2.048   6.159 -0.3065 -0.6906  0.0623
   97SAPS  O13A 9616   4.380   2.159   6.211  0.3041  0.2992 -0.3109
   97SAPS  O13B 9617   4.308   2.048   6.039 -0.3177 -0.6737  0.2738
   97SAPS   C11 9618   4.478   1.849   6.189  0.0011 -0.0599 -0.2516
   97SAPS  H11A 9619   4.569   1.914   6.186  1.1433 -1.6830 -1.9862
   97SAPS  H11B 9620   4.459   1.835   6.081  2.1715  0.6023 -0.7412
   97SAPS     P 9621   4.633   1.715   6.339 -0.1048  0.0542  0.1438
   97SAPS   O13 9622   4.648   1.575   6.389 -0.0170 -0.0795 -0.0169
   97SAPS   O14 9623   4.744   1.766   6.259  0.6591  0.0808 -0.1582
   97SAPS   O12 9624   4.505   1.722   6.250 -0.3439  0.1497  0.7645
   97SAPS   O11 9625   4.594   1.810   6.455 -0.0535 -0.0048  0.3592
   97SAPS    C1 9626   4.660   1.933   6.478 -0.3970 -0.0195 -0.2371
   97SAPS    HA 9627   4.697   1.973   6.382  0.5649 -0.0740  0.1009
   97SAPS    HB 9628   4.601   2.009   6.533 -2.0013 -0.6977 -1.0037
   97SAPS    C2 9629   4.781   1.904   6.569 -0.1156 -0.2369 -0.1245
   97SAPS    HS 9630   4.835   1.817   6.526 -0.9584 -0.6856 -0.2929
   97SAPS   O21 9631   4.734   1.862   6.702  0.2237 -0.7621  0.5169
   97SAPS   C21 9632   4.824   1.785   6.767 -0.1065  0.4337 -0.4602
   97SAPS   O22 9633   4.940   1.762   6.731  0.4278  0.1490 -0.3103
   97SAPS   C22 9634   4.751   1.724   6.895 -0.1451 -0.7335 -0.3121
   97SAPS   H2R 9635   4.641   1.738   6.883 -0.3073 -1.1071  0.6902
   97SAPS   H2S 9636   4.754   1.614   6.879  0.5859 -0.4278 -2.4150
   97SAPS    C3 9637   4.870   2.028   6.572  0.8937 -0.4057 -0.5320
   97SAPS    HX 9638   4.913   2.054   6.473 -0.7102 -0.2836 -1.2075
   97SAPS    HY 9639   4.956   2.020   6.641 -0.2979  0.7106  1.1184
   97SAPS   O31 9640   4.792   2.137   6.611 -0.7785  0.1582  0.2453
   97SAPS   C31 9641   4.792   2.161   6.748 -0.6477  0.3584 -0.5622
   97SAPS   O32 9642   4.867   2.106   6.831 -0.0328  0.3641 -0.5060
   97SAPS   C32 9643   4.716   2.289   6.774 -0.5167 -0.4356  0.3878
   97SAPS   H2X 9644   4.682   2.329   6.676 -1.1043 -0.9902  0.3618
   97SAPS   H2Y 9645   4.791   2.365   6.806 -0.3099 -0.1080 -0.8613
   97SAPS   C23 9646   4.807   1.763   7.026 -0.4453 -0.1585  0.2947
   97SAPS   H3R 9647   4.918   1.756   7.015 -0.5450  2.1211 -2.6379
   97SAPS   H3S 9648   4.776   1.690   7.103 -2.0972  1.4800  1.2004
   97SAPS   C24 9649   4.768   1.904   7.072 -0.5621  0.2277 -0.2584
   97SAPS   H4R 9650   4.813   1.977   7.002  1.2840 -3.0442 -2.6550
   97SAPS   H4S 9651   4.810   1.920   7.173  0.1622 -0.2791 -0.4754
   97SAPS   C25 9652   4.621   1.917   7.075 -0.2723 -0.9572 -0.0102
   97SAPS   H5R 9653   4.572   1.919   6.976  0.9625 -0.0491 -0.6099
   97SAPS   C26 9654   4.548   1.923   7.188  0.3026 -0.0894 -0.2524
   97SAPS   H6R 9655   4.440   1.939   7.176  0.3143 -0.1429 -0.4333
   97SAPS   C27 9656   4.598   1.928   7.326 -0.6868 -0.4505 -0.0716
   97SAPS   H7R 9657   4.707   1.924   7.344 -0.7903 -1.6263  0.3442
   97SAPS   H7S 9658   4.556   1.840   7.380 -2.1021  0.4030  0.2574
   97SAPS   C28 9659   4.562   2.059   7.395  0.3943 -0.1728  0.0813
   97SAPS   H8R 9660   4.636   2.134   7.366  1.1942 -0.9881  0.0078
   97SAPS   C29 9661   4.471   2.082   7.491 -0.5918  0.4428 -0.0596
   97SAPS   H9R 9662   4.473   2.176   7.547 -0.8778  1.2129 -1.3098
   97SAPS  C210 9663   4.377   1.976   7.545  0.4133  0.4146  0.6749
   97SAPS  H10R 9664   4.341   2.017   7.641 -0.8749  0.9452 -0.0234
   97SAPS  H10S 9665   4.430   1.883   7.573 -0.1414  0.0699  0.5917
   97SAPS  C211 9666   4.261   1.940   7.453 -0.4984  0.5360 -0.1869
   97SAPS  H11R 9667   4.264   1.978   7.349  0.7831  2.0946  0.4088
   97SAPS  C212 9668   4.155   1.868   7.496 -0.3683  0.0029  0.2046
   97SAPS  H12R 9669   4.076   1.839   7.424  0.4226 -0.7891 -0.3524
   97SAPS  C213 9670   4.137   1.820   7.635  0.1480 -0.5807 -0.4056
   97SAPS  H13R 9671   4.176   1.896   7.707  1.2071 -0.1108 -1.4702
   97SAPS  H13S 9672   4.207   1.735   7.649  0.0061 -0.6620 -0.1755
   97SAPS  C214 9673   3.995   1.795   7.681  0.3256  0.6226 -0.5076
   97SAPS  H14R 9674   3.917   1.799   7.603 -0.1020 -4.2937 -0.5065
   97SAPS  C215 9675   3.958   1.765   7.807 -0.0180 -0.2826 -0.0730
   97SAPS  H15R 9676   3.852   1.761   7.836  0.0757  0.0251  0.3147
   97SAPS  C216 9677   4.056   1.743   7.921 -0.9442 -0.3120 -0.4934
   97SAPS  H16R 9678   4.077   1.846   7.957 -1.8389 -0.6530  1.0362
   97SAPS  H16S 9679   4.151   1.696   7.885  0.4872  0.9265  1.5445
   97SAPS  C217 9680   3.982   1.664   8.040 -0.5610 -0.2377 -0.0929
   97SAPS  H17R 9681   3.961   1.562   8.001  0.3961 -0.1972 -0.7537
   97SAPS  H17S 9682   3.888   1.712   8.073  0.0172  1.5466 -0.9666
   97SAPS  C218 9683   4.091   1.638   8.151  0.4667  0.7429  0.1317
   97SAPS  H18R 9684   4.141   1.735   8.175  1.3917  0.2667  0.1437
   97SAPS  H18S 9685   4.171   1.572   8.112  0.0733  1.7768 -2.5769
   97SAPS  C219 9686   4.019   1.589   8.283  0.1702 -0.4901  0.1990
   97SAPS  H19R 9687   3.985   1.686   8.325 -0.3573 -0.5339 -0.1250
   97SAPS  H19S 9688   4.101   1.554   8.350 -0.7399  1.3718  2.3217
   97SAPS  C220 9689   3.907   1.490   8.267  0.1309 -0.4981  0.4733
   97SAPS  H20R 9690   3.811   1.530   8.229 -0.3831  0.0257  2.2463
   97SAPS  H20S 9691   3.892   1.417   8.350 -0.4437 -1.4999 -0.4915
   97SAPS  H20T 9692   3.944   1.429   8.182  1.7117  0.0610  0.7353
   97SAPS   C33 9693   4.606   2.284   6.887 -0.1770  0.1968 -0.2015
   97SAPS   H3X 9694   4.588   2.391   6.910  1.3042  0.4811 -0.3021
   97SAPS   H3Y 9695   4.635   2.232   6.981 -1.4561 -0.4364 -0.1494
   97SAPS   C34 9696   4.471   2.222   6.849 -0.2006 -0.1745 -0.2112
   97SAPS   H4X 9697   4.503   2.132   6.791 -0.6180  0.0792 -0.8458
   97SAPS   H4Y 9698   4.409   2.291   6.787  1.3773  0.9291 -0.5811
   97SAPS   C35 9699   4.379   2.188   6.964  0.0145 -0.1389 -0.2189
   97SAPS   H5X 9700   4.435   2.137   7.045  1.6819  1.0094 -0.6110
   97SAPS   H5Y 9701   4.293   2.128   6.929  0.1425 -0.6371  0.3122
   97SAPS   C36 9702   4.293   2.301   7.022  0.1419 -0.1823  0.4783
   97SAPS   H6X 9703   4.232   2.342   6.938  1.4673  1.5473  0.3452
   97SAPS   H6Y 9704   4.364   2.379   7.056  0.4128 -1.3321  2.6563
   97SAPS   C37 9705   4.187   2.261   7.132 -0.3046 -0.1025  0.1068
   97SAPS   H7X 9706   4.248   2.218   7.214 -1.0998  1.5322  1.5827
   97SAPS   H7Y 9707   4.122   2.189   7.077 -0.2560  0.8626 -1.2383
   97SAPS   C38 9708   4.102   2.373   7.196  0.4024 -0.1201  0.7883
   97SAPS   H8X 9709   4.025   2.403   7.123  1.9260  1.6458 -0.1483
   97SAPS   H8Y 9710   4.176   2.452   7.223  2.0903 -0.3244 -2.9194
   97SAPS   C39 9711   4.034   2.319   7.321 -0.3129  0.1138 -0.6998
   97SAPS   H9X 9712   3.967   2.243   7.278  0.7220 -1.1921 -0.0369
   97SAPS   H9Y 9713   3.970   2.401   7.360  0.1441 -0.2477  0.8388
   97SAPS  C310 9714   4.124   2.282   7.433 -0.1043 -0.3199  0.4811
   97SAPS  H10X 9715   4.193   2.367   7.453 -0.4631 -0.3869  2.1064
   97SAPS  H10Y 9716   4.174   2.189   7.401 -2.2820 -1.3538 -0.0121
   97SAPS  C311 9717   4.066   2.239   7.571  0.9175 -0.2176  0.2464
   97SAPS  H11X 9718   4.126   2.154   7.611 -0.5751 -0.4194  2.1563
   97SAPS  H11Y 9719   3.962   2.200   7.556  0.0311  2.8720 -2.0988
   97SAPS  C312 9720   4.052   2.352   7.675 -0.0625  0.5446 -0.2955
   97SAPS  H12X 9721   3.955   2.405   7.665  0.3783  1.3957 -0.1755
   97SAPS  H12Y 9722   4.124   2.435   7.656  1.8155 -0.5322  1.8174
   97SAPS  C313 9723   4.064   2.308   7.817 -0.3736  0.4067  0.1961
   97SAPS  H13X 9724   4.082   2.393   7.885 -1.9777  1.8439 -1.1230
   97SAPS  H13Y 9725   4.151   2.239   7.823 -1.2043 -0.8044 -1.0832
   97SAPS  C314 9726   3.951   2.223   7.870 -0.0694  0.5493  0.2969
   97SAPS  H14X 9727   3.943   2.133   7.805  2.0503  0.7457 -0.2912
   97SAPS  H14Y 9728   3.858   2.283   7.865 -1.7636 -2.0034  0.3661
   97SAPS  C315 9729   3.970   2.185   8.018 -0.6268  0.4650 -0.8678
   97SAPS  H15X 9730   3.943   2.279   8.070  0.9005  1.1986 -1.3819
   97SAPS  H15Y 9731   4.069   2.140   8.042 -1.4454 -0.9108  0.0144
   97SAPS  C316 9732   3.876   2.074   8.080 -0.6777 -0.2381  0.5224
   97SAPS  H16X 9733   3.901   1.983   8.022 -0.4849  0.2279 -0.1273
   97SAPS  H16Y 9734   3.772   2.098   8.050 -1.5345 -2.3584  1.6764
   97SAPS  C317 9735   3.904   2.027   8.228 -0.8815 -0.4574  0.4637
   97SAPS  H17X 9736   3.898   2.127   8.277 -0.0905 -0.6590  0.9834
   97SAPS  H17Y 9737   4.004   1.984   8.252 -0.2860 -0.2851 -1.5731
   97SAPS  C318 9738   3.808   1.937   8.290  1.1530  0.4906  0.2935
   97SAPS  H18X 9739   3.812   1.834   8.249 -0.4125 -0.2360  1.9600
   97SAPS  H18Y 9740   3.706   1.978   8.278  0.0942 -2.1223  0.0855
   97SAPS  H18Z 9741   3.815   1.926   8.400 -0.2301  1.8992  0.5360
   98SAPS     N 9742   1.928   1.547   6.276  0.4638  0.9490  0.0641
   98SAPS   HN1 9743   1.837   1.497   6.271  1.3282 -0.6709  0.5818
   98SAPS   HN2 9744   2.003   1.482   6.305 -0.9869 -0.7693  0.0745
   98SAPS   HN3 9745   1.933   1.625   6.345 -1.2314  1.8827 -0.8149
   98SAPS   C12 9746   1.944   1.607   6.151  0.7365  0.3135  0.0600
   98SAPS  H12A 9747   1.959   1.531   6.075  0.8030  1.2523 -0.8866
   98SAPS   C13 9748   1.818   1.678   6.100 -0.1526 -0.5587  0.0435
   98SAPS  O13A 9749   1.723   1.704   6.182 -0.2991 -0.3835 -0.4627
   98SAPS  O13B 9750   1.829   1.731   5.988  0.2300  0.3071 -0.2718
   98SAPS   C11 9751   2.070   1.701   6.145  0.1968 -0.8062 -0.1011
   98SAPS  H11A 9752   2.041   1.784   6.213  1.3540  0.0540 -0.6423
   98SAPS  H11B 9753   2.093   1.741   6.044  1.6112  0.4207  0.6810
   98SAPS     P 9754   2.323   1.735   6.225 -0.4146  0.3788  0.2624
   98SAPS   O13 9755   2.446   1.652   6.213  0.2904  0.1002 -0.0227
   98SAPS   O14 9756   2.309   1.844   6.135  0.4522 -0.3436 -0.1278
   98SAPS   O12 9757   2.193   1.644   6.201  0.1862  0.5590  0.0111
   98SAPS   O11 9758   2.312   1.781   6.377 -0.1625  0.3632 -0.3441
   98SAPS    C1 9759   2.266   1.691   6.475  0.3786  0.5058 -0.1777
   98SAPS    HA 9760   2.167   1.714   6.520 -0.1350 -0.5865 -0.7227
   98SAPS    HB 9761   2.259   1.588   6.433 -1.0658  0.6830 -0.3954
   98SAPS    C2 9762   2.365   1.682   6.597  0.5922 -0.1167 -0.3741
   98SAPS    HS 9763   2.323   1.625   6.682  3.4343 -0.8885  0.5722
   98SAPS   O21 9764   2.399   1.814   6.647 -0.1388  0.0405  0.7755
   98SAPS   C21 9765   2.414   1.828   6.778  0.6389 -0.2645 -0.1386
   98SAPS   O22 9766   2.395   1.743   6.861  0.2815  0.0870 -0.0924
   98SAPS   C22 9767   2.450   1.969   6.806  0.4566  0.0979  0.3068
   98SAPS   H2R 9768   2.543   1.992   6.748  0.7470 -1.7640  0.0234
   98SAPS   H2S 9769   2.371   2.043   6.783 -1.1667 -0.8236  2.7341
   98SAPS    C3 9770   2.498   1.615   6.545  0.3081  0.8600  0.5249
   98SAPS    HX 9771   2.555   1.689   6.484  1.8490 -0.2003  0.6346
   98SAPS    HY 9772   2.478   1.518   6.495 -0.0458  1.2636 -0.1201
   98SAPS   O31 9773   2.579   1.579   6.662 -0.0956  0.6801 -0.0668
   98SAPS   C31 9774   2.550   1.472   6.726 -0.7670 -0.2722 -0.4707
   98SAPS   O32 9775   2.460   1.395   6.715  0.2247 -0.2549 -0.1073
   98SAPS   C32 9776   2.664   1.443   6.829 -0.0679 -0.5130 -0.1274
   98SAPS   H2X 9777   2.761   1.479   6.788 -0.2899  1.1093  0.7074
   98SAPS   H2Y 9778   2.686   1.335   6.840 -2.6216 -0.6867  4.5715
   98SAPS   C23 9779   2.482   2.002   6.958  0.2727  0.5018 -0.3434
   98SAPS   H3R 9780   2.553   2.088   6.956 -2.5148  2.8530 -2.8554
   98SAPS   H3S 9781   2.542   1.924   7.010  0.3724  1.1737  0.5722
   98SAPS   C24 9782   2.363   2.059   7.043  0.2230  0.3668  0.3116
   98SAPS   H4R 9783   2.296   2.119   6.977 -0.2471 -1.8803 -1.2932
   98SAPS   H4S 9784   2.407   2.121   7.124 -0.4165 -0.8628  1.6127
   98SAPS   C25 9785   2.277   1.947   7.110 -0.3248 -0.6475 -1.0861
   98SAPS   H5R 9786   2.243   1.872   7.037 -1.4041  0.0715 -1.3433
   98SAPS   C26 9787   2.239   1.933   7.236  0.4634  0.1274  0.0127
   98SAPS   H6R 9788   2.159   1.861   7.260  0.9065  0.2732  2.0162
   98SAPS   C27 9789   2.269   2.040   7.331  0.3833  0.3825 -0.0044
   98SAPS   H7R 9790   2.233   2.137   7.292  0.7679  0.6685  0.3451
   98SAPS   H7S 9791   2.379   2.054   7.334  0.2169  1.7615 -0.2209
   98SAPS   C28 9792   2.206   2.015   7.463  0.4295 -0.2914 -0.0463
   98SAPS   H8R 9793   2.097   1.999   7.463  0.1281  1.5984 -0.6005
   98SAPS   C29 9794   2.256   2.019   7.583 -0.0440 -0.7378 -0.0402
   98SAPS   H9R 9795   2.191   2.006   7.671  0.6767  3.0876  1.1702
   98SAPS  C210 9796   2.407   2.039   7.600  0.1736 -0.5049 -0.6966
   98SAPS  H10R 9797   2.454   2.098   7.517 -0.0408  1.1194  0.3138
   98SAPS  H10S 9798   2.443   1.936   7.579 -2.3787 -1.9043  1.4481
   98SAPS  C211 9799   2.435   2.098   7.731  0.2971  0.3648 -0.0846
   98SAPS  H11R 9800   2.424   2.207   7.737  1.4116  0.4164  1.3484
   98SAPS  C212 9801   2.478   2.039   7.849  0.6649  0.1252  0.2075
   98SAPS  H12R 9802   2.487   2.103   7.938 -0.3594  2.4317 -1.3055
   98SAPS  C213 9803   2.504   1.897   7.868  0.0349 -0.3924  0.2027
   98SAPS  H13R 9804   2.587   1.894   7.941 -0.3037  1.5959  0.7165
   98SAPS  H13S 9805   2.532   1.848   7.772  0.6008  1.1991 -0.4607
   98SAPS  C214 9806   2.381   1.833   7.929 -0.3368  0.5134  0.4442
   98SAPS  H14R 9807   2.284   1.882   7.906  0.1822  0.6758 -1.4948
   98SAPS  C215 9808   2.375   1.731   8.013 -0.3449 -0.0103 -0.0397
   98SAPS  H15R 9809   2.278   1.696   8.051 -0.5686 -0.7690 -1.3044
   98SAPS  C216 9810   2.488   1.655   8.072 -0.7342 -0.5225 -0.1050
   98SAPS  H16R 9811   2.584   1.704   8.048 -0.1354 -0.1475  2.8954
   98SAPS  H16S 9812   2.488   1.557   8.020 -1.1543 -0.4043 -0.3413
   98SAPS  C217 9813   2.475   1.626   8.219  0.5045 -0.4918 -0.0245
   98SAPS  H17R 9814   2.554   1.553   8.245 -0.3453 -1.2254  0.5223
   98SAPS  H17S 9815   2.380   1.571   8.236 -0.1206  0.6110  0.1525
   98SAPS  C218 9816   2.476   1.750   8.309  0.5612  0.6327  0.3546
   98SAPS  H18R 9817   2.393   1.817   8.281 -0.6295 -1.0761 -0.3242
   98SAPS  H18S 9818   2.574   1.795   8.282  2.3040 -0.5622  4.2219
   98SAPS  C219 9819   2.477   1.723   8.463  0.1071  0.3379  0.0285
   98SAPS  H19R 9820   2.524   1.817   8.500 -0.4585  2.4352 -4.2510
   98SAPS  H19S 9821   2.548   1.639   8.475  0.0222  0.4069  1.0831
   98SAPS  C220 9822   2.345   1.687   8.532  0.7807 -0.0842 -0.4310
   98SAPS  H20R 9823   2.307   1.589   8.496 -0.9281  0.8823 -1.2977
   98SAPS  H20S 9824   2.278   1.769   8.500  0.2207 -0.3632  0.0156
   98SAPS  H20T 9825   2.357   1.685   8.643  2.0963  1.8741 -0.5081
   98SAPS   C33 9826   2.619   1.488   6.970 -0.0643  0.1689  0.0192
   98SAPS   H3X 9827   2.521   1.445   6.998 -0.2380  2.0120  2.3801
   98SAPS   H3Y 9828   2.606   1.598   6.962  0.4122  0.1689 -0.8128
   98SAPS   C34 9829   2.712   1.437   7.087 -0.4163 -0.6677  1.0275
   98SAPS   H4X 9830   2.814   1.473   7.063 -1.1814  2.2177  1.7819
   98SAPS   H4Y 9831   2.721   1.327   7.088  0.9541 -0.5562  1.7521
   98SAPS   C35 9832   2.655   1.488   7.218 -0.1556 -0.2689 -0.1493
   98SAPS   H5X 9833   2.565   1.429   7.244  0.4556 -1.2240 -0.1721
   98SAPS   H5Y 9834   2.613   1.589   7.199  0.5455  0.2579  1.0661
   98SAPS   C36 9835   2.756   1.486   7.324 -0.4167 -0.3836 -0.0724
   98SAPS   H6X 9836   2.853   1.517   7.280 -0.9519  1.7124  0.1911
   98SAPS   H6Y 9837   2.776   1.378   7.344 -0.4488 -0.5962 -1.1451
   98SAPS   C37 9838   2.723   1.559   7.454  0.1937  0.0071 -0.4840
   98SAPS   H7X 9839   2.628   1.523   7.498  1.4472  0.7052  2.9809
   98SAPS   H7Y 9840   2.718   1.667   7.433  0.2653  0.4469  1.5738
   98SAPS   C38 9841   2.836   1.549   7.561  0.0978  0.0857 -0.3349
   98SAPS   H8X 9842   2.935   1.565   7.512 -1.2854  0.6158 -3.0225
   98SAPS   H8Y 9843   2.839   1.444   7.599 -1.7945  0.1544  0.0250
   98SAPS   C39 9844   2.821   1.655   7.676 -0.0537  0.0537  0.0617
   98SAPS   H9X 9845   2.714   1.681   7.680  0.6689  2.9761  1.2140
   98SAPS   H9Y 9846   2.867   1.751   7.646 -0.6078  0.6823  1.2177
   98SAPS  C310 9847   2.883   1.611   7.805  0.3369  0.4814  0.3326
   98SAPS  H10X 9848   2.984   1.567   7.793  0.4455  0.7289  0.3230
   98SAPS  H10Y 9849   2.819   1.536   7.856  0.6644  0.7934  1.2201
   98SAPS  C311 9850   2.890   1.732   7.900  0.0211 -0.3402  0.1256
   98SAPS  H11X 9851   2.789   1.776   7.918 -0.1843 -0.2990 -1.1127
   98SAPS  H11Y 9852   2.939   1.812   7.841 -2.3392 -0.7185 -2.4223
   98SAPS  C312 9853   2.956   1.706   8.026 -0.2395 -0.2819  0.3108
   98SAPS  H12X 9854   3.014   1.795   8.056 -0.6028  0.9702 -2.5925
   98SAPS  H12Y 9855   3.029   1.623   8.011  0.1304  0.1452 -0.2434
   98SAPS  C313 9856   2.858   1.668   8.130 -0.2978 -0.4043 -0.0274
   98SAPS  H13X 9857   2.799   1.584   8.086 -0.8071  1.2754 -2.6752
   98SAPS  H13Y 9858   2.787   1.753   8.138 -0.4416 -0.6562  1.4151
   98SAPS  C314 9859   2.903   1.636   8.278 -0.2307  0.0602  0.5094
   98SAPS  H14X 9860   2.819   1.626   8.351  1.1503 -0.7914  2.0174
   98SAPS  H14Y 9861   2.962   1.725   8.309  0.4203 -1.2046  3.0950
   98SAPS  C315 9862   2.983   1.505   8.285 -0.0904  0.4672 -0.7816
   98SAPS  H15X 9863   3.023   1.484   8.387 -4.0386  2.3000  1.2364
   98SAPS  H15Y 9864   3.065   1.523   8.212  0.3148 -0.5972 -0.5956
   98SAPS  C316 9865   2.898   1.381   8.233 -0.1483 -0.0404  0.3903
   98SAPS  H16X 9866   2.871   1.401   8.127  3.8416 -0.6585 -0.8063
   98SAPS  H16Y 9867   2.803   1.376   8.291 -0.6470 -2.6977 -0.5451
   98SAPS  C317 9868   2.970   1.245   8.233 -0.3194  0.0505  0.7158
   98SAPS  H17X 9869   3.047   1.251   8.152  1.3506  0.7141  2.3231
   98SAPS  H17Y 9870   2.898   1.176   8.185 -0.7500  1.0279 -0.0585
   98SAPS  C318 9871   3.023   1.201   8.366 -0.9513 -0.2317  0.3282
   98SAPS  H18X 9872   3.106   1.268   8.395 -2.0410  1.5770 -0.6472
   98SAPS  H18Y 9873   3.058   1.096   8.355 -0.0840  0.4073 -3.6008
   98SAPS  H18Z 9874   2.937   1.216   8.435 -1.4113 -0.2819 -0.2272
   99SAPS     N 9875   2.026   6.519   5.738 -0.1342 -0.2025 -0.3265
   99SAPS   HN1 9876   1.923   6.533   5.728 -0.3356 -2.5743 -2.0111
   99SAPS   HN2 9877   2.066   6.514   5.642  0.4335 -2.1886 -0.0091
   99SAPS   HN3 9878   2.044   6.434   5.795  1.7587  0.5159  0.1874
   99SAPS   C12 9879   2.094   6.635   5.805 -0.4932 -0.1030 -0.3549
   99SAPS  H12A 9880   2.193   6.592   5.816  0.3639  1.7635 -0.5677
   99SAPS   C13 9881   2.118   6.768   5.736  0.1940  0.8656  0.1815
   99SAPS  O13A 9882   2.094   6.785   5.614 -0.3954  0.6660  0.7365
   99SAPS  O13B 9883   2.186   6.855   5.793 -0.1186 -0.2913  0.1052
   99SAPS   C11 9884   2.034   6.643   5.943  0.3360 -0.4790 -0.3243
   99SAPS  H11A 9885   1.929   6.676   5.929  0.6004 -0.1953 -1.7662
   99SAPS  H11B 9886   2.094   6.721   5.996  1.2742 -0.2879 -1.6345
   99SAPS     P 9887   1.925   6.467   6.113  0.4096  0.3964  0.0496
   99SAPS   O13 9888   1.794   6.527   6.085  0.4350  0.1729  0.0692
   99SAPS   O14 9889   1.927   6.319   6.110 -0.0600  0.8678  0.1365
   99SAPS   O12 9890   2.037   6.523   6.014  0.1546  0.7810  0.4228
   99SAPS   O11 9891   1.976   6.523   6.258 -0.0289 -0.6936 -0.1501
   99SAPS    C1 9892   2.103   6.476   6.304  0.4371  0.3917  0.3068
   99SAPS    HA 9893   2.155   6.406   6.237 -1.2862 -1.8741  1.2718
   99SAPS    HB 9894   2.162   6.569   6.322 -0.1934  0.5589  1.6115
   99SAPS    C2 9895   2.088   6.396   6.441 -0.1147 -0.3100 -0.0809
   99SAPS    HS 9896   2.022   6.308   6.430 -1.1602  0.8760 -3.9957
   99SAPS   O21 9897   2.036   6.479   6.547  0.0122 -0.2917 -0.8406
   99SAPS   C21 9898   1.972   6.419   6.647  0.0307 -0.3072 -0.2305
   99SAPS   O22 9899   1.950   6.298   6.655 -0.0736  0.0258  0.8124
   99SAPS   C22 9900   1.929   6.526   6.741  0.0202  0.1755 -0.4446
   99SAPS   H2R 9901   2.014   6.593   6.765 -0.3504 -0.1433  1.8078
   99SAPS   H2S 9902   1.863   6.584   6.672  1.6052 -0.5277 -2.6261
   99SAPS    C3 9903   2.231   6.334   6.481 -0.0407  0.0646 -0.1428
   99SAPS    HX 9904   2.297   6.423   6.484 -1.9521  1.4859 -0.2901
   99SAPS    HY 9905   2.253   6.259   6.402 -1.2089 -0.6887  0.2336
   99SAPS   O31 9906   2.238   6.263   6.607  0.8716 -0.0633 -0.0816
   99SAPS   C31 9907   2.280   6.329   6.715  0.0404 -0.3444 -0.4493
   99SAPS   O32 9908   2.291   6.452   6.718  0.5048 -0.5528 -0.0902
   99SAPS   C32 9909   2.302   6.232   6.822 -0.2666  0.3340 -0.6423
   99SAPS   H2X 9910   2.394   6.173   6.804  0.5934  1.3475  0.3872
   99SAPS   H2Y 9911   2.210   6.170   6.834  0.7271 -1.2023 -0.7401
   99SAPS   C23 9912   1.836   6.483   6.858  0.3846 -0.4857  0.2871
   99SAPS   H3R 9913   1.757   6.417   6.816  0.6513 -1.1014  0.7381
   99SAPS   H3S 9914   1.791   6.581   6.882  0.5752 -0.8929  2.4456
   99SAPS   C24 9915   1.916   6.411   6.965  0.3686  0.6524 -0.0739
   99SAPS   H4R 9916   1.980   6.484   7.018  1.8499 -0.7494  0.0840
   99SAPS   H4S 9917   1.975   6.337   6.907  0.5956  0.3800  0.5112
   99SAPS   C25 9918   1.826   6.330   7.056 -0.1906 -0.7690 -0.0271
   99SAPS   H5R 9919   1.732   6.382   7.079  0.5520  0.4341  0.3837
   99SAPS   C26 9920   1.850   6.211   7.117  1.0981  0.2806 -0.2498
   99SAPS   H6R 9921   1.774   6.158   7.177  2.8572 -1.2831  0.6270
   99SAPS   C27 9922   1.984   6.141   7.104  0.0258  0.1294  0.2360
   99SAPS   H7R 9923   2.067   6.210   7.133 -0.0870 -0.1629  1.2898
   99SAPS   H7S 9924   2.006   6.112   6.999  0.6016  0.6251  0.2163
   99SAPS   C28 9925   1.994   6.019   7.204 -0.0849 -0.3691 -0.5739
   99SAPS   H8R 9926   2.029   6.043   7.305 -2.2003 -0.6206  0.2440
   99SAPS   C29 9927   1.976   5.889   7.176  0.6524  0.0312  0.3467
   99SAPS   H9R 9928   1.973   5.806   7.248  0.4402 -0.0450  0.2495
   99SAPS  C210 9929   1.918   5.854   7.047 -0.2253 -0.5598 -0.1167
   99SAPS  H10R 9930   1.853   5.932   7.001  0.0189  0.6808  1.5749
   99SAPS  H10S 9931   1.844   5.773   7.062 -0.3546 -0.4140  0.0379
   99SAPS  C211 9932   2.019   5.818   6.943  0.5664 -0.0021  0.6756
   99SAPS  H11R 9933   2.102   5.886   6.918 -0.9475  1.7220  0.2087
   99SAPS  C212 9934   2.020   5.698   6.876 -0.5045 -0.2663  0.0217
   99SAPS  H12R 9935   2.106   5.685   6.808 -0.5283  2.5062 -0.6054
   99SAPS  C213 9936   1.920   5.580   6.886  0.0645 -0.3381  0.1162
   99SAPS  H13R 9937   1.832   5.608   6.825 -0.8717 -0.2437  1.5037
   99SAPS  H13S 9938   1.888   5.573   6.992  1.1445  0.9582  0.5377
   99SAPS  C214 9939   1.992   5.451   6.854  0.1543 -0.0884  0.3745
   99SAPS  H14R 9940   1.951   5.392   6.771  1.2910  0.4397 -0.5738
   99SAPS  C215 9941   2.095   5.396   6.926 -0.0698  0.3724  0.2525
   99SAPS  H15R 9942   2.128   5.295   6.897  0.4340 -0.4235  3.3822
   99SAPS  C216 9943   2.166   5.445   7.045  0.0045  0.0689 -0.4445
   99SAPS  H16R 9944   2.121   5.544   7.067 -0.2774 -0.2504  0.4362
   99SAPS  H16S 9945   2.276   5.461   7.037  0.1229 -1.1212 -1.2636
   99SAPS  C217 9946   2.140   5.355   7.174  0.3550 -0.0619  0.0171
   99SAPS  H17R 9947   2.032   5.346   7.195  0.5031 -0.2391  0.7458
   99SAPS  H17S 9948   2.184   5.402   7.265 -2.3168 -0.3431  1.4751
   99SAPS  C218 9949   2.188   5.213   7.146 -0.4389 -0.5181 -0.0789
   99SAPS  H18R 9950   2.289   5.224   7.101  0.7027  0.7618  2.7158
   99SAPS  H18S 9951   2.116   5.163   7.077  0.1435 -2.3192  0.5863
   99SAPS  C219 9952   2.207   5.117   7.270 -0.0948 -0.0585  0.2911
   99SAPS  H19R 9953   2.105   5.102   7.311 -1.5311 -1.0879 -3.4441
   99SAPS  H19S 9954   2.267   5.163   7.351  0.8345 -0.0895 -0.3591
   99SAPS  C220 9955   2.268   4.979   7.245 -0.5859  0.1627 -0.5157
   99SAPS  H20R 9956   2.267   4.919   7.338  2.1576  0.7748 -0.0572
   99SAPS  H20S 9957   2.375   4.986   7.218 -0.7323 -0.7342 -1.3647
   99SAPS  H20T 9958   2.212   4.918   7.169  0.8849 -0.8827 -0.7740
   99SAPS   C33 9959   2.329   6.298   6.963 -0.3131 -0.3063 -0.4694
   99SAPS   H3X 9960   2.240   6.357   6.995 -0.9463 -0.5577 -1.7390
   99SAPS   H3Y 9961   2.417   6.364   6.950 -0.2350 -0.0043  1.5121
   99SAPS   C34 9962   2.368   6.197   7.073 -0.3778 -0.2438 -0.3985
   99SAPS   H4X 9963   2.456   6.141   7.037 -0.9056 -1.9427  0.8983
   99SAPS   H4Y 9964   2.294   6.117   7.093 -0.2728 -0.5927 -1.3875
   99SAPS   C35 9965   2.386   6.273   7.208  0.0407  0.5553  0.0353
   99SAPS   H5X 9966   2.280   6.290   7.236 -0.8834 -0.1070 -2.8844
   99SAPS   H5Y 9967   2.444   6.368   7.204 -0.9179  1.3609  3.3868
   99SAPS   C36 9968   2.451   6.176   7.310  1.3151  0.0698  0.8844
   99SAPS   H6X 9969   2.558   6.159   7.287  1.1037 -0.6438  0.4229
   99SAPS   H6Y 9970   2.404   6.075   7.314  1.7449 -0.2561 -1.6008
   99SAPS   C37 9971   2.448   6.236   7.450 -0.7915  0.0357  0.5556
   99SAPS   H7X 9972   2.479   6.343   7.456  1.8741 -0.7148  0.6031
   99SAPS   H7Y 9973   2.522   6.175   7.505  2.0053  3.8773  1.2620
   99SAPS   C38 9974   2.314   6.215   7.516  0.1638 -0.1864  0.0582
   99SAPS   H8X 9975   2.291   6.107   7.517  2.8890 -0.8210 -0.7878
   99SAPS   H8Y 9976   2.234   6.265   7.457 -0.4617 -1.1434  0.0926
   99SAPS   C39 9977   2.313   6.265   7.658  0.2483 -0.2178 -0.6368
   99SAPS   H9X 9978   2.211   6.238   7.695 -0.0039 -0.0535 -1.1964
   99SAPS   H9Y 9979   2.320   6.376   7.664 -0.8594 -0.2430  1.8570
   99SAPS  C310 9980   2.410   6.200   7.758  0.1686 -0.2327 -0.6002
   99SAPS  H10X 9981   2.521   6.205   7.752  0.1453  1.8388  0.2713
   99SAPS  H10Y 9982   2.393   6.092   7.737  0.8375 -0.2823 -0.8849
   99SAPS  C311 9983   2.381   6.221   7.908 -0.2868  0.4000  0.3253
   99SAPS  H11X 9984   2.272   6.203   7.925  0.2645 -2.7436  0.8870
   99SAPS  H11Y 9985   2.417   6.322   7.936 -1.2278  0.8548 -0.0731
   99SAPS  C312 9986   2.450   6.118   8.010 -0.3254 -0.8148 -0.4131
   99SAPS  H12X 9987   2.555   6.128   7.975  0.0945  1.4236  1.3101
   99SAPS  H12Y 9988   2.411   6.014   8.005 -2.4153 -0.0835  0.0084
   99SAPS  C313 9989   2.439   6.157   8.156  0.3004 -0.1788  0.2829
   99SAPS  H13X 9990   2.473   6.262   8.169 -0.4738  0.1524 -0.3051
   99SAPS  H13Y 9991   2.510   6.091   8.210  2.3054  0.9258 -0.9664
   99SAPS  C314 9992   2.299   6.128   8.219  0.7405  0.4164 -0.3756
   99SAPS  H14X 9993   2.261   6.028   8.192 -2.2436  0.8051  2.0972
   99SAPS  H14Y 9994   2.223   6.196   8.174 -0.8875 -0.7465  0.5689
   99SAPS  C315 9995   2.311   6.125   8.370 -0.4880  0.6920  0.3173
   99SAPS  H15X 9996   2.344   6.228   8.398 -1.2397  0.6897  1.2360
   99SAPS  H15Y 9997   2.386   6.053   8.407 -1.2270 -0.4282 -0.3342
   99SAPS  C316 9998   2.173   6.112   8.433  0.2271  0.2109 -0.0931
   99SAPS  H16X 9999   2.133   6.012   8.408 -0.9553  0.3453  1.1728
   99SAPS  H16Y10000   2.108   6.198   8.407  1.4686  2.1277  2.7731
   99SAPS  C31710001   2.194   6.100   8.587 -0.3763 -0.3843  0.1052
   99SAPS  H17X10002   2.266   6.183   8.605  0.0368 -1.1358  2.1175
   99SAPS  H17Y10003   2.240   6.001   8.606 -0.7813 -0.7922 -1.0277
   99SAPS  C31810004   2.059   6.109   8.667  0.3313 -0.1496  0.1509
   99SAPS  H18X10005   1.996   6.194   8.632 -1.1601 -1.5382 -0.6172
   99SAPS  H18Y10006   2.095   6.131   8.770  2.2371 -0.2898 -0.4624
   99SAPS  H18Z10007   1.997   6.019   8.686  2.1418 -1.5654 -0.5085
  100SAPS     N10008   5.036   1.063   6.042  0.2391  0.2454  0.0774
  100SAPS   HN110009   5.076   0.986   6.099 -1.0873  0.2900  1.0876
  100SAPS   HN210010   5.105   1.092   5.970  0.0705  1.3926  0.3640
  100SAPS   HN310011   5.006   1.142   6.103 -1.2467 -0.3010  0.0706
  100SAPS   C1210012   4.917   1.005   5.979  0.4186 -0.6723 -0.2256
  100SAPS  H12A10013   4.853   1.089   5.956  1.1211 -0.0125  0.1863
  100SAPS   C1310014   4.948   0.922   5.851  0.0908  0.3502  0.2080
  100SAPS  O13A10015   5.064   0.915   5.801  0.0496  0.4934 -0.2301
  100SAPS  O13B10016   4.847   0.879   5.793  0.1801  0.0273  0.3524
  100SAPS   C1110017   4.854   0.906   6.089  0.8708 -0.6756 -0.3605
  100SAPS  H11A10018   4.938   0.839   6.114  0.0816 -1.9090 -0.9749
  100SAPS  H11B10019   4.767   0.858   6.039 -0.1057 -0.1866  0.8286
  100SAPS     P10020   4.681   1.031   6.241 -0.1935 -0.3223  0.0451
  100SAPS   O1310021   4.662   1.174   6.201 -0.2053 -0.1956  0.3273
  100SAPS   O1410022   4.588   0.928   6.187  1.0027  0.0987 -0.1392
  100SAPS   O1210023   4.825   0.973   6.208  0.1340  0.3182 -0.0176
  100SAPS   O1110024   4.667   1.030   6.403  0.2473  0.8380  0.4555
  100SAPS    C110025   4.731   0.924   6.471 -0.3806 -0.6803 -0.4561
  100SAPS    HA10026   4.650   0.875   6.530 -1.1791  1.8101  0.5895
  100SAPS    HB10027   4.780   0.840   6.417  1.3951 -0.1412  0.2693
  100SAPS    C210028   4.827   0.986   6.577  0.2546  0.0895  0.0539
  100SAPS    HS10029   4.871   0.896   6.624 -0.3002 -1.1289 -1.7316
  100SAPS   O2110030   4.756   1.075   6.669  0.7913  0.7732  0.6984
  100SAPS   C2110031   4.678   1.018   6.765 -0.1814 -0.3218  0.2644
  100SAPS   O2210032   4.663   0.898   6.774 -0.1530 -0.0626  1.0109
  100SAPS   C2210033   4.602   1.125   6.844  0.3120 -0.7519  0.6805
  100SAPS   H2R10034   4.530   1.171   6.774 -0.0944 -1.0332  0.9115
  100SAPS   H2S10035   4.536   1.073   6.917  0.9594 -1.2951  0.8801
  100SAPS    C310036   4.952   1.066   6.519 -0.9976  0.1298  0.1081
  100SAPS    HX10037   4.914   1.141   6.447 -0.4749  0.8029  0.5265
  100SAPS    HY10038   5.016   0.992   6.466  0.2372 -0.1596  1.9639
  100SAPS   O3110039   5.029   1.112   6.629  0.2920  0.1013 -0.2230
  100SAPS   C3110040   5.024   1.243   6.643 -0.1433  0.1193 -0.3830
  100SAPS   O3210041   4.958   1.325   6.586 -0.3840  0.2629 -0.0785
  100SAPS   C3210042   5.120   1.272   6.763 -0.2386 -1.1933  0.4518
  100SAPS   H2X10043   5.188   1.351   6.726 -0.1375 -0.9873  1.0709
  100SAPS   H2Y10044   5.179   1.180   6.785 -1.8300 -2.3686 -0.0374
  100SAPS   C2310045   4.682   1.223   6.936 -0.0518 -0.6345 -0.1481
  100SAPS   H3R10046   4.601   1.283   6.984 -0.0713  0.3153 -1.3346
  100SAPS   H3S10047   4.753   1.289   6.882  1.0303 -2.3773 -0.8540
  100SAPS   C2410048   4.759   1.153   7.053  0.3495 -0.1994  0.1732
  100SAPS   H4R10049   4.825   1.231   7.098  1.1918 -0.3498 -0.8023
  100SAPS   H4S10050   4.829   1.074   7.019 -0.3076 -0.6128 -0.2175
  100SAPS   C2510051   4.659   1.094   7.157  0.2093  0.2504  0.0242
  100SAPS   H5R10052   4.616   0.995   7.139  0.3320  0.6123 -2.3668
  100SAPS   C2610053   4.608   1.163   7.261  0.2765 -0.2925  0.2743
  100SAPS   H6R10054   4.558   1.102   7.338  0.1378  1.2357  1.4320
  100SAPS   C2710055   4.627   1.305   7.285 -0.5181 -0.0143 -0.7491
  100SAPS   H7R10056   4.527   1.354   7.287 -0.5719 -0.1599  0.5325
  100SAPS   H7S10057   4.687   1.353   7.204 -0.2379 -0.4336 -0.7895
  100SAPS   C2810058   4.702   1.325   7.418  0.0557  0.1472 -0.1086
  100SAPS   H8R10059   4.799   1.275   7.430 -0.1249 -0.7292 -2.0547
  100SAPS   C2910060   4.660   1.402   7.516 -0.0193 -1.0824  0.2503
  100SAPS   H9R10061   4.727   1.400   7.603 -1.1958 -3.3222  1.1518
  100SAPS  C21010062   4.529   1.479   7.531  0.1415 -0.6477 -0.2593
  100SAPS  H10R10063   4.442   1.411   7.517  0.8578 -1.0461 -3.1054
  100SAPS  H10S10064   4.509   1.553   7.451 -2.1939 -2.2422 -1.2251
  100SAPS  C21110065   4.506   1.548   7.665 -0.0782 -0.0632  0.5003
  100SAPS  H11R10066   4.510   1.658   7.666 -3.1301  0.1529 -2.3956
  100SAPS  C21210067   4.496   1.498   7.791  0.9445  0.7053 -0.2187
  100SAPS  H12R10068   4.482   1.556   7.883 -1.8636 -0.6269  0.2576
  100SAPS  C21310069   4.505   1.352   7.808 -0.5303  0.4624  0.3096
  100SAPS  H13R10070   4.595   1.331   7.869 -1.6805 -1.6656  1.3358
  100SAPS  H13S10071   4.526   1.285   7.721 -0.0046 -1.1152  1.6339
  100SAPS  C21410072   4.382   1.298   7.878 -0.2786  0.3255  0.2492
  100SAPS  H14R10073   4.298   1.272   7.811 -1.4306 -0.0775  1.8265
  100SAPS  C21510074   4.367   1.272   8.006 -0.5094  0.0560  0.1062
  100SAPS  H15R10075   4.271   1.226   8.031 -1.1354  0.6698 -1.1187
  100SAPS  C21610076   4.475   1.292   8.114 -0.0091  0.3923  0.2567
  100SAPS  H16R10077   4.576   1.309   8.072  1.1761 -1.5326  2.2633
  100SAPS  H16S10078   4.488   1.199   8.173  0.5331  0.4804  0.2740
  100SAPS  C21710079   4.447   1.415   8.209  1.0096 -0.1821 -0.0612
  100SAPS  H17R10080   4.339   1.410   8.236  1.2085 -0.5498  0.6560
  100SAPS  H17S10081   4.446   1.512   8.155  2.1739  0.9017  1.8557
  100SAPS  C21810082   4.519   1.444   8.339 -0.0884  0.2014 -0.0596
  100SAPS  H18R10083   4.607   1.503   8.305  0.5192  0.4938  1.9639
  100SAPS  H18S10084   4.556   1.343   8.364  0.8440  0.3368 -0.8665
  100SAPS  C21910085   4.439   1.516   8.449 -0.1556  0.2829 -0.5260
  100SAPS  H19R10086   4.501   1.553   8.533 -2.3922  0.7109  0.9994
  100SAPS  H19S10087   4.361   1.446   8.486  0.2321  0.4325  0.5899
  100SAPS  C22010088   4.356   1.636   8.396 -0.1879 -0.7969 -0.3180
  100SAPS  H20R10089   4.419   1.724   8.371  0.8375 -1.8385 -1.5053
  100SAPS  H20S10090   4.275   1.665   8.466 -0.9292  0.4570 -1.6626
  100SAPS  H20T10091   4.303   1.608   8.302 -1.9741  1.7322 -0.0858
  100SAPS   C3310092   5.052   1.316   6.888  0.5001  0.0995 -0.3375
  100SAPS   H3X10093   4.985   1.233   6.920  0.2547 -0.0731 -1.2874
  100SAPS   H3Y10094   4.984   1.398   6.856 -1.0395  0.2714  3.1980
  100SAPS   C3410095   5.148   1.355   6.997 -0.0833 -0.8490 -0.7978
  100SAPS   H4X10096   5.192   1.448   6.956  0.8709 -0.7248  0.4872
  100SAPS   H4Y10097   5.239   1.292   7.008 -0.0517 -0.3334  2.1707
  100SAPS   C3510098   5.082   1.375   7.135  0.4317 -0.3509 -0.2008
  100SAPS   H5X10099   5.152   1.423   7.207  0.0697  0.8068 -0.6072
  100SAPS   H5Y10100   5.044   1.279   7.177  0.8351  0.0935  1.1842
  100SAPS   C3610101   4.972   1.482   7.124 -0.2441  0.3421 -0.8245
  100SAPS   H6X10102   4.893   1.444   7.055  0.0390  0.8595 -1.4405
  100SAPS   H6Y10103   5.019   1.568   7.072  0.7681 -0.3556 -1.0619
  100SAPS   C3710104   4.929   1.530   7.261  0.5880  0.2641  0.1477
  100SAPS   H7X10105   4.944   1.449   7.336  1.4321  0.8323  0.6127
  100SAPS   H7Y10106   4.821   1.554   7.254  0.9319  1.8352  0.0318
  100SAPS   C3810107   4.992   1.664   7.312  0.1036 -0.2601  0.1379
  100SAPS   H8X10108   4.950   1.751   7.258  0.2615  0.7430  1.5988
  100SAPS   H8Y10109   5.102   1.662   7.293 -0.2408  0.9844 -2.1577
  100SAPS   C3910110   4.982   1.667   7.464  0.3530  0.0116 -0.3469
  100SAPS   H9X10111   5.080   1.704   7.501 -1.2334  2.6315  1.3820
  100SAPS   H9Y10112   4.968   1.560   7.490 -1.1318  0.5843  1.3209
  100SAPS  C31010113   4.866   1.749   7.507 -0.5248  0.0755 -0.4171
  100SAPS  H10X10114   4.770   1.711   7.464  0.1142 -0.4164 -1.4282
  100SAPS  H10Y10115   4.891   1.846   7.459 -0.8116  1.2387  1.7650
  100SAPS  C31110116   4.852   1.767   7.658  0.6268 -0.6245 -0.3132
  100SAPS  H11X10117   4.949   1.781   7.709  0.5340  0.0425 -0.3135
  100SAPS  H11Y10118   4.807   1.675   7.700  2.4458 -1.7201 -0.7489
  100SAPS  C31210119   4.748   1.876   7.694  0.2142 -0.0627 -0.4016
  100SAPS  H12X10120   4.647   1.844   7.659  0.5319  0.1560 -1.5154
  100SAPS  H12Y10121   4.780   1.967   7.640  1.7241 -2.5770 -3.9096
  100SAPS  C31310122   4.737   1.915   7.848  0.1265 -0.0007 -0.3665
  100SAPS  H13X10123   4.682   2.009   7.869  0.4426  0.2463 -0.6432
  100SAPS  H13Y10124   4.843   1.921   7.880 -0.4610 -1.5740  2.0229
  100SAPS  C31410125   4.671   1.802   7.940 -0.3058 -0.2880 -0.0599
  100SAPS  H14X10126   4.731   1.709   7.948  0.3879  0.1174 -0.4136
  100SAPS  H14Y10127   4.575   1.778   7.891  0.0105  1.0224 -1.3659
  100SAPS  C31510128   4.656   1.845   8.087 -0.5261 -0.7542 -0.1077
  100SAPS  H15X10129   4.747   1.889   8.133 -1.7152  0.3449  1.2436
  100SAPS  H15Y10130   4.624   1.757   8.147  0.1541 -1.3590 -0.6273
  100SAPS  C31610131   4.546   1.952   8.096 -0.2199 -0.1288 -0.1064
  100SAPS  H16X10132   4.575   2.054   8.064 -0.8090  0.2443  0.5426
  100SAPS  H16Y10133   4.525   1.963   8.204  1.5624 -0.6355  0.3130
  100SAPS  C31710134   4.414   1.911   8.038 -0.5171 -0.1600 -0.6677
  100SAPS  H17X10135   4.381   1.809   8.066  1.1784 -0.9709 -1.5744
  100SAPS  H17Y10136   4.414   1.915   7.927 -0.2040  0.1155 -0.6594
  100SAPS  C31810137   4.306   2.009   8.076 -0.7302  0.2166 -0.2271
  100SAPS  H18X10138   4.307   2.014   8.187 -0.5023 -0.6412 -0.1888
  100SAPS  H18Y10139   4.214   1.962   8.037 -0.9975  1.9433 -1.7671
  100SAPS  H18Z10140   4.326   2.106   8.026  1.5779 -0.0513  0.1190
  101OSM      N10141   3.763   1.004  11.069 -0.6306  0.7615  0.3284
  101OSM    C1510142   3.812   0.908  11.169 -0.5170  0.0758 -0.2351
  101OSM   H15A10143   3.861   0.821  11.128  3.4493  2.4248 -0.8419
  101OSM   H15B10144   3.741   0.883  11.246  0.3389 -0.5927  0.3434
  101OSM   H15C10145   3.903   0.949  11.212  0.1472 -0.2594 -1.2828
  101OSM    C1410146   3.644   0.952  10.990 -0.2502  0.6262  0.3334
  101OSM   H14A10147   3.565   0.918  11.055  1.0466  0.3486  1.7817
  101OSM   H14B10148   3.672   0.880  10.915 -4.2194 -0.9209  0.2257
  101OSM   H14C10149   3.605   1.038  10.937  0.0437  0.6142  0.0937
  101OSM    C1310150   3.720   1.121  11.143 -0.0386 -0.8933  0.3806
  101OSM   H13A10151   3.662   1.080  11.224  0.2465  0.7786  1.4708
  101OSM   H13B10152   3.663   1.198  11.092  1.0990 -0.6439 -0.5421
  101OSM   H13C10153   3.813   1.168  11.173 -1.1310  0.1207  2.2829
  101OSM    C1210154   3.890   1.038  10.982  0.5606  0.1310 -0.6374
  101OSM   H12A10155   3.928   0.942  10.950 -1.4048 -0.7208 -0.4978
  101OSM   H12B10156   3.954   1.100  11.044  0.5959  0.4188 -0.9632
  101OSM    C1110157   3.877   1.128  10.859 -0.3421  0.1305 -0.0708
  101OSM   H11A10158   3.805   1.085  10.786 -0.5070  2.7714 -1.5199
  101OSM   H11B10159   3.975   1.121  10.809 -1.1889  0.8644 -1.8703
  101OSM      P10160   3.720   1.325  10.819 -0.2403 -0.2585 -0.2451
  101OSM    O1310161   3.610   1.233  10.838  0.2266 -0.5013 -0.5573
  101OSM    O1410162   3.705   1.466  10.853 -1.2442 -0.4265  0.0620
  101OSM    O1110163   3.781   1.317  10.668  0.1758  0.1275 -0.1929
  101OSM    O1210164   3.843   1.262  10.895 -0.4650  0.5788  0.8450
  101OSM    C1S10165   3.692   1.309  10.561  0.4318 -1.0876 -0.1621
  101OSM    H1S10166   3.635   1.404  10.575  1.0004 -0.9315  1.1390
  101OSM    H1T10167   3.622   1.223  10.571  1.0800 -1.5198  0.7672
  101OSM     NF10168   3.667   1.312  10.316  0.3846 -0.3749 -0.7534
  101OSM    HNF10169   3.646   1.235  10.256 -1.1974 -0.4962 -0.0899
  101OSM    C2S10170   3.759   1.301  10.426  0.6736  0.1828  0.4416
  101OSM    H2S10171   3.830   1.385  10.412  1.4511 -0.5921 -0.3854
  101OSM    C3S10172   3.840   1.168  10.410  0.1456 -0.1305 -0.5340
  101OSM    H3S10173   3.767   1.084  10.402  0.5177 -0.3500 -1.7089
  101OSM     O310174   3.924   1.142  10.518  0.1544  0.6122 -0.0996
  101OSM    HO310175   3.901   1.213  10.579  0.0131  0.4159  0.0749
  101OSM    C4S10176   3.925   1.163  10.283 -0.8386  0.5338 -0.2303
  101OSM    H4S10177   3.875   1.132  10.190 -1.2217 -0.4116  0.2809
  101OSM    C5S10178   4.054   1.195  10.266 -0.1317 -0.0514  0.2883
  101OSM    H5S10179   4.114   1.239  10.347 -0.5243 -0.3404  0.7386
  101OSM    C6S10180   4.123   1.202  10.128  0.4071 -0.1787 -0.5362
  101OSM    H6S10181   4.206   1.129  10.125  1.7568  1.3387 -0.6805
  101OSM    H6T10182   4.174   1.300  10.116 -0.2389  0.1973 -0.3013
  101OSM    C7S10183   4.020   1.180  10.010  0.2124 -1.0344  0.1448
  101OSM    H7S10184   3.941   1.257   9.996  0.8598 -0.8741 -3.1426
  101OSM    H7T10185   3.969   1.084  10.034  1.4072 -2.0089 -1.1401
  101OSM    C8S10186   4.091   1.178   9.876  0.6453  0.4954  0.3428
  101OSM    H8S10187   4.186   1.120   9.876 -1.5354 -3.2958 -2.2864
  101OSM    H8T10188   4.118   1.281   9.845  1.8073  0.1898  0.3086
  101OSM    C9S10189   4.009   1.114   9.763  0.1171 -0.1291 -0.5973
  101OSM    H9S10190   3.905   1.152   9.764 -0.8599 -2.7160  1.6877
  101OSM    H9T10191   4.005   1.005   9.783  1.3411 -0.2397 -0.8886
  101OSM   C10S10192   4.062   1.144   9.629 -0.1888  0.4007  0.2325
  101OSM   H10S10193   4.163   1.097   9.630  0.2722  1.3705  2.1083
  101OSM   H10T10194   4.071   1.254   9.615  0.5879  0.1487 -1.4470
  101OSM   C11S10195   3.965   1.085   9.525 -0.0727 -0.3340  0.8270
  101OSM   H11S10196   3.867   1.135   9.509  0.2337 -0.3744 -1.3741
  101OSM   H11T10197   3.935   0.980   9.546  0.4721 -0.8141 -0.7333
  101OSM   C12S10198   4.033   1.081   9.386 -0.4264 -0.4595 -0.6118
  101OSM   H12S10199   4.129   1.025   9.392 -0.8235 -1.2096 -1.1808
  101OSM   H12T10200   4.060   1.186   9.363 -1.1924 -0.4755 -1.5959
  101OSM   C13S10201   3.948   1.010   9.282  0.5931  0.4704  0.3942
  101OSM   H13S10202   3.843   1.047   9.278  0.7385  0.7836 -0.8360
  101OSM   H13T10203   3.939   0.903   9.309 -0.0054 -0.0584 -1.7524
  101OSM   C14S10204   4.014   1.010   9.144  0.0026  0.3811 -0.2007
  101OSM   H14S10205   4.106   0.949   9.155 -1.4658 -1.6385  1.5789
  101OSM   H14T10206   4.045   1.113   9.117  0.5581  0.5386  1.0128
  101OSM   C15S10207   3.926   0.933   9.037 -0.4225 -0.1273  0.2877
  101OSM   H15S10208   3.828   0.985   9.038  0.2669  1.2302 -0.3918
  101OSM   H15T10209   3.920   0.825   9.060  0.9340 -0.1222  0.6780
  101OSM   C16S10210   3.988   0.949   8.894  0.1590 -0.5504  0.5537
  101OSM   H16S10211   4.082   0.890   8.893  0.2664 -0.3794 -0.2398
  101OSM   H16T10212   4.011   1.057   8.881  0.1360 -0.7746 -1.6765
  101OSM   C17S10213   3.895   0.909   8.783 -0.9128 -0.0828 -0.0499
  101OSM   H17S10214   3.800   0.965   8.786 -0.1500  1.2037  0.3805
  101OSM   H17T10215   3.865   0.802   8.788  0.3133 -0.4140  0.4521
  101OSM   C18S10216   3.949   0.934   8.638  0.4919  0.2685  0.4134
  101OSM   H18S10217   4.017   1.023   8.639  0.7719  0.0548  1.1968
  101OSM   H18T10218   3.865   0.951   8.568 -0.6782  1.6221  2.1033
  101OSM   H18U10219   4.004   0.850   8.590  0.6451  1.3416 -1.3316
  101OSM    C1F10220   3.604   1.422  10.281  0.0545 -0.2435 -0.1142
  101OSM     OF10221   3.641   1.533  10.324 -0.2508 -0.0420  0.5213
  101OSM    C2F10222   3.498   1.416  10.169 -0.4144 -0.0408  0.5490
  101OSM    H2F10223   3.405   1.365  10.202 -2.1168  3.6208  1.7449
  101OSM    H2G10224   3.544   1.356  10.088  0.3747  2.6542 -1.0757
  101OSM    C3F10225   3.464   1.555  10.110  0.1374  0.3555 -0.0368
  101OSM    H3F10226   3.564   1.598  10.085 -0.5110  0.6897 -2.2146
  101OSM    H3G10227   3.420   1.626  10.183 -0.6409  2.8012 -2.7989
  101OSM    C4F10228   3.384   1.550   9.977  0.1475  0.4805 -0.0590
  101OSM    H4F10229   3.297   1.619   9.977  1.3784  2.0594 -0.9688
  101OSM    H4G10230   3.326   1.455   9.981  0.3338  0.3817  0.3911
  101OSM    C5F10231   3.476   1.545   9.855  0.2965  0.2149 -0.8994
  101OSM    H5F10232   3.539   1.455   9.836 -1.5287 -1.1926 -0.3945
  101OSM    H5G10233   3.540   1.635   9.863 -1.3489  1.2003  2.1400
  101OSM    C6F10234   3.385   1.545   9.726  0.0868 -0.1961  0.2178
  101OSM    H6F10235   3.303   1.619   9.732 -0.3438 -0.6046 -0.6929
  101OSM    H6G10236   3.335   1.447   9.714 -2.0482  1.2336 -2.9708
  101OSM    C7F10237   3.468   1.574   9.598 -0.0328 -0.7841  0.0735
  101OSM    H7F10238   3.547   1.496   9.592  2.1199  1.2859  0.6502
  101OSM    H7G10239   3.508   1.677   9.593 -0.7321 -0.4934  0.4585
  101OSM    C8F10240   3.385   1.554   9.470 -0.4720  0.5836  0.2821
  101OSM    H8F10241   3.300   1.625   9.479 -0.6108  0.4006  0.4011
  101OSM    H8G10242   3.348   1.450   9.465  0.3584  0.3838 -2.9576
  101OSM    C9F10243   3.468   1.573   9.343  0.1034 -0.5946  0.8458
  101OSM    H9F10244   3.545   1.649   9.366 -0.7795  0.6772 -0.3381
  101OSM   C10F10245   3.449   1.540   9.217  0.3210 -0.0370  0.6066
  101OSM   H10F10246   3.514   1.579   9.137 -2.5691 -1.4592 -2.5098
  101OSM   C11F10247   3.337   1.454   9.172  0.2130  0.2328  0.4095
  101OSM   H11F10248   3.242   1.511   9.168 -0.5374 -0.8198  2.6305
  101OSM   H11G10249   3.320   1.359   9.227 -0.7714 -1.7134 -3.1100
  101OSM   C12F10250   3.365   1.395   9.033  0.0179 -0.5573 -0.2300
  101OSM   H12F10251   3.445   1.318   9.038 -0.0917 -0.6110  0.9272
  101OSM   H12G10252   3.387   1.464   8.949 -0.3623 -2.7489 -2.1789
  101OSM   C13F10253   3.242   1.319   8.980 -0.1106  0.6624  0.1642
  101OSM   H13F10254   3.165   1.395   8.954  1.3674  1.5017 -1.8657
  101OSM   H13G10255   3.199   1.258   9.062 -1.6883  3.0953  1.1838
  101OSM   C14F10256   3.264   1.245   8.845  0.0204  0.3314 -0.6790
  101OSM   H14F10257   3.348   1.173   8.860  0.0355  0.2121 -1.3546
  101OSM   H14G10258   3.297   1.329   8.780  2.9326  0.5260  0.9332
  101OSM   C15F10259   3.136   1.176   8.791 -0.1379  0.1827 -0.4777
  101OSM   H15F10260   3.167   1.142   8.690 -1.6308  0.5970 -1.0842
  101OSM   H15G10261   3.052   1.249   8.787 -2.0137 -1.9157 -0.3702
  101OSM   C16F10262   3.084   1.048   8.869 -0.5923 -0.6038 -0.6358
  101OSM   H16F10263   3.098   1.076   8.976 -0.3904  2.3516 -1.4070
  101OSM   H16G10264   3.158   0.966   8.852 -1.6954 -2.0767  1.3654
  101OSM   C17F10265   2.936   1.019   8.852  0.2442 -0.2978  0.0841
  101OSM   H17F10266   2.878   1.097   8.907 -1.9194 -2.1191  0.4589
  101OSM   H17G10267   2.915   0.923   8.904  1.6606 -0.5134  0.2693
  101OSM   C18F10268   2.884   0.999   8.712  0.9423  0.2375 -0.3409
  101OSM   H18F10269   2.890   1.098   8.660 -0.2217  0.6123  0.2253
  101OSM   H18G10270   2.776   0.976   8.703  1.4341 -1.5666 -1.9260
  101OSM   H18H10271   2.934   0.922   8.649  0.0444  0.2712 -1.1115
  102OSM      N10272   3.425   0.321  10.774  0.1022  0.0681  0.5177
  102OSM    C1510273   3.357   0.221  10.857  0.8364 -0.2239 -0.4279
  102OSM   H15A10274   3.420   0.136  10.875 -0.8550 -1.2799  0.6536
  102OSM   H15B10275   3.275   0.173  10.804  0.7460 -0.9039  0.3159
  102OSM   H15C10276   3.324   0.257  10.953  0.5708 -0.4403 -0.4358
  102OSM    C1410277   3.568   0.345  10.828  0.5280  0.1599  0.5770
  102OSM   H14A10278   3.621   0.251  10.830  2.9112  1.3033 -3.0526
  102OSM   H14B10279   3.573   0.394  10.924 -0.7102  1.1009  0.1788
  102OSM   H14C10280   3.604   0.405  10.746 -0.1954  0.2647  0.3287
  102OSM    C1310281   3.435   0.271  10.630 -0.2806  0.0286  0.4731
  102OSM   H13A10282   3.337   0.245  10.592  0.0587 -2.0144  0.9596
  102OSM   H13B10283   3.481   0.175  10.616 -1.3217 -0.0224 -3.0742
  102OSM   H13C10284   3.483   0.346  10.568  1.2636 -0.4235  1.1129
  102OSM    C1210285   3.338   0.451  10.779 -0.6983 -0.2780  0.0445
  102OSM   H12A10286   3.322   0.481  10.882 -1.6822  2.5716 -0.8988
  102OSM   H12B10287   3.241   0.428  10.737 -1.0971  3.2085 -1.0798
  102OSM    C1110288   3.385   0.578  10.703  0.4801 -0.1055 -0.0163
  102OSM   H11A10289   3.304   0.654  10.718 -0.0163 -0.9033  1.4949
  102OSM   H11B10290   3.392   0.548  10.597 -0.8393  1.8023 -0.6747
  102OSM      P10291   3.556   0.759  10.692  0.0848 -0.0361 -0.3325
  102OSM    O1310292   3.451   0.854  10.736  0.7482 -0.0826  0.3321
  102OSM    O1410293   3.691   0.798  10.750  0.4516  0.3162  0.6034
  102OSM    O1110294   3.555   0.735  10.541  0.4241 -0.3810  0.8428
  102OSM    O1210295   3.508   0.617  10.747 -0.3373  0.5832  0.2174
  102OSM    C1S10296   3.444   0.773  10.451 -0.3749 -0.3693 -0.4611
  102OSM    H1S10297   3.435   0.884  10.446  0.3240 -0.2972 -0.2353
  102OSM    H1T10298   3.344   0.741  10.487  0.1655 -0.4706  0.9898
  102OSM     NF10299   3.336   0.746  10.230 -0.1142 -0.4694 -0.2867
  102OSM    HNF10300   3.279   0.672  10.196  0.9030 -2.7864  2.7993
  102OSM    C2S10301   3.459   0.718  10.307  0.5461 -0.0804  0.6134
  102OSM    H2S10302   3.546   0.762  10.254  1.5006 -0.4201  1.8740
  102OSM    C3S10303   3.475   0.560  10.296  0.2274 -0.3698  0.2150
  102OSM    H3S10304   3.383   0.507  10.329  1.8515 -2.3250  1.7211
  102OSM     O310305   3.588   0.508  10.362  0.3810 -0.1006 -0.3289
  102OSM    HO310306   3.620   0.578  10.420  0.2829 -0.1420 -0.2243
  102OSM    C4S10307   3.488   0.520  10.151 -0.8901  0.6439  0.5024
  102OSM    H4S10308   3.574   0.562  10.097 -0.7511 -1.3288 -0.8576
  102OSM    C5S10309   3.423   0.416  10.101 -0.4338 -0.7000  0.3919
  102OSM    H5S10310   3.365   0.354  10.171 -2.7126  0.8400 -0.0834
  102OSM    C6S10311   3.432   0.360   9.959 -0.5304 -0.1049  0.3727
  102OSM    H6S10312   3.333   0.327   9.921 -0.3047 -0.6424  0.2569
  102OSM    H6T10313   3.492   0.268   9.968  1.4017  1.4555  4.9439
  102OSM    C7S10314   3.496   0.454   9.853 -0.0492  0.0546 -0.2882
  102OSM    H7S10315   3.600   0.474   9.884  0.5188 -2.1976 -0.6436
  102OSM    H7T10316   3.426   0.540   9.840 -2.6390 -1.6369  1.7586
  102OSM    C8S10317   3.520   0.385   9.715  0.3720  0.0529 -0.7184
  102OSM    H8S10318   3.611   0.321   9.718 -0.3632 -0.9469  0.7854
  102OSM    H8T10319   3.557   0.466   9.649 -0.4223 -0.4297 -1.7782
  102OSM    C9S10320   3.396   0.322   9.654  0.4165  0.0910  0.1602
  102OSM    H9S10321   3.316   0.396   9.631  1.8484  0.8155 -2.5885
  102OSM    H9T10322   3.351   0.253   9.729  0.2824  1.3817  1.2880
  102OSM   C10S10323   3.419   0.253   9.527  0.0640  0.0251 -0.3381
  102OSM   H10S10324   3.347   0.170   9.513  0.6930 -0.3774 -1.1951
  102OSM   H10T10325   3.515   0.199   9.522  0.7960  1.0203  1.9541
  102OSM   C11S10326   3.390   0.345   9.404 -0.6451 -1.0391  0.0925
  102OSM   H11S10327   3.416   0.453   9.411  0.5348 -1.0316 -3.2542
  102OSM   H11T10328   3.279   0.341   9.393 -0.6155 -0.2885 -0.5491
  102OSM   C12S10329   3.458   0.288   9.272 -0.1350 -0.0098  1.0438
  102OSM   H12S10330   3.418   0.344   9.185  2.3389  0.1120 -0.0651
  102OSM   H12T10331   3.428   0.182   9.260 -1.8807  0.4206  1.5280
  102OSM   C13S10332   3.608   0.308   9.285 -0.0594  0.2530 -0.8630
  102OSM   H13S10333   3.650   0.255   9.374  2.4513  1.9582 -0.9820
  102OSM   H13T10334   3.618   0.418   9.293 -0.7500  0.4723 -2.6871
  102OSM   C14S10335   3.701   0.270   9.171 -0.0402  0.1372 -0.1877
  102OSM   H14S10336   3.681   0.161   9.156 -1.3724  0.5073 -1.2441
  102OSM   H14T10337   3.808   0.278   9.198  0.4865 -0.9731 -1.8344
  102OSM   C15S10338   3.676   0.346   9.038 -0.3831  0.0195 -0.0559
  102OSM   H15S10339   3.723   0.444   9.059 -1.3388  0.4954 -0.1335
  102OSM   H15T10340   3.569   0.357   9.009 -0.2146 -0.2731 -0.8064
  102OSM   C16S10341   3.754   0.282   8.916  0.5748 -0.0471 -0.7538
  102OSM   H16S10342   3.851   0.248   8.958  0.8184  0.8319 -0.5939
  102OSM   H16T10343   3.777   0.359   8.840  0.8367 -2.1344 -2.8517
  102OSM   C17S10344   3.677   0.173   8.847  0.2849  0.0298 -0.7482
  102OSM   H17S10345   3.583   0.213   8.806 -0.2598 -1.4067 -0.9388
  102OSM   H17T10346   3.654   0.089   8.916  4.1461  0.5426  1.3323
  102OSM   C18S10347   3.751   0.124   8.717  0.1088  0.3191 -0.2476
  102OSM   H18S10348   3.723   0.024   8.679 -0.3744  0.6959 -0.8875
  102OSM   H18T10349   3.854   0.104   8.755 -1.3865  0.6514  4.3854
  102OSM   H18U10350   3.753   0.196   8.633  1.0851 -1.4306 -1.7463
  102OSM    C1F10351   3.323   0.878  10.194 -0.0695  0.1254 -0.0006
  102OSM     OF10352   3.408   0.960  10.218  0.3714 -0.1201  0.6659
  102OSM    C2F10353   3.206   0.908  10.111  0.4357  0.3719  0.0880
  102OSM    H2F10354   3.112   0.893  10.169 -0.0627 -0.3034 -0.8843
  102OSM    H2G10355   3.202   0.851  10.016  1.8606  0.3010  0.0569
  102OSM    C3F10356   3.197   1.059  10.055  0.0182 -0.6862  0.3400
  102OSM    H3F10357   3.299   1.101  10.049 -0.3716  0.2639  0.2581
  102OSM    H3G10358   3.147   1.119  10.134  0.8150  1.0156 -0.4222
  102OSM    C4F10359   3.126   1.059   9.923  0.2328  0.7524 -0.7533
  102OSM    H4F10360   3.016   1.051   9.936  0.1433  3.0596  0.0750
  102OSM    H4G10361   3.159   0.982   9.850 -0.0937  0.9167 -1.0781
  102OSM    C5F10362   3.152   1.196   9.849 -0.2605  0.8883  0.1610
  102OSM    H5F10363   3.260   1.201   9.823  0.0054 -0.9153  0.8475
  102OSM    H5G10364   3.136   1.279   9.921 -3.1799  1.0823 -0.6510
  102OSM    C6F10365   3.057   1.204   9.734  0.0820 -0.9568 -0.3864
  102OSM    H6F10366   2.967   1.251   9.778  0.6934  1.1696 -1.3243
  102OSM    H6G10367   3.014   1.115   9.684 -1.2327  0.3297 -1.6190
  102OSM    C7F10368   3.098   1.298   9.620  0.1086  0.1851  0.8589
  102OSM    H7F10369   3.201   1.271   9.589 -0.5836 -2.1838  0.5496
  102OSM    H7G10370   3.094   1.399   9.665 -0.2773 -0.1077  1.4934
  102OSM    C8F10371   2.995   1.301   9.508 -0.1432 -0.7256 -0.0322
  102OSM    H8F10372   2.897   1.319   9.558  0.3446  0.1443  0.6156
  102OSM    H8G10373   2.999   1.203   9.456  0.7185  0.5495 -2.4515
  102OSM    C9F10374   3.034   1.402   9.409 -0.2419  0.2288 -0.2568
  102OSM    H9F10375   3.136   1.392   9.371 -0.7978 -1.9502 -1.2755
  102OSM   C10F10376   2.969   1.516   9.377  0.1135 -0.5462  0.6938
  102OSM   H10F10377   3.001   1.580   9.294  0.7938 -3.2218 -1.1968
  102OSM   C11F10378   2.827   1.540   9.419  0.4026  0.1377  0.1978
  102OSM   H11F10379   2.835   1.588   9.519 -0.4615 -0.8619  0.7583
  102OSM   H11G10380   2.773   1.443   9.420  1.5489 -0.5030  1.0901
  102OSM   C12F10381   2.760   1.641   9.321  0.4569 -1.0478 -0.0679
  102OSM   H12F10382   2.823   1.732   9.318 -0.9973  0.0387  1.6134
  102OSM   H12G10383   2.678   1.689   9.378  0.2869 -1.6102  0.1668
  102OSM   C13F10384   2.722   1.597   9.184  0.2090 -0.0911  0.5410
  102OSM   H13F10385   2.684   1.493   9.190  0.9302 -0.3852  0.0985
  102OSM   H13G10386   2.809   1.586   9.116 -0.2909 -1.3211  0.0715
  102OSM   C14F10387   2.620   1.694   9.114 -0.1391 -0.6392  0.8329
  102OSM   H14F10388   2.550   1.735   9.190 -0.4780  0.5371 -0.1029
  102OSM   H14G10389   2.560   1.634   9.042  0.6657 -1.0520  0.4940
  102OSM   C15F10390   2.691   1.813   9.051 -0.0045 -0.2588  0.0275
  102OSM   H15F10391   2.786   1.798   8.994  1.0670  1.1607  1.3677
  102OSM   H15G10392   2.726   1.864   9.143 -0.5815 -0.2457  0.2385
  102OSM   C16F10393   2.595   1.911   8.987 -0.0632 -0.1492  0.0591
  102OSM   H16F10394   2.636   2.014   8.997  0.7879 -0.3962 -0.8027
  102OSM   H16G10395   2.509   1.919   9.056  0.4200  0.0450  0.6440
  102OSM   C17F10396   2.568   1.880   8.841 -0.2957 -0.6867 -0.3907
  102OSM   H17F10397   2.539   1.772   8.836  2.9186 -1.6396  0.3148
  102OSM   H17G10398   2.657   1.896   8.776 -1.1142  1.1945 -1.0852
  102OSM   C18F10399   2.440   1.947   8.795 -0.1466  0.7294 -0.2842
  102OSM   H18F10400   2.434   1.933   8.685  0.0672 -1.1607 -0.0790
  102OSM   H18G10401   2.458   2.054   8.816 -0.4935  0.7095  0.1297
  102OSM   H18H10402   2.349   1.911   8.848 -0.6042  2.1818 -0.0653
  103OSM      N10403   4.571   2.911  10.912 -0.0535  0.1734  0.0269
  103OSM    C1510404   4.452   2.984  10.950 -0.2223 -0.8595 -0.4642
  103OSM   H15A10405   4.425   2.986  11.054  0.8579 -0.1795 -0.1980
  103OSM   H15B10406   4.374   2.955  10.881  0.9770 -0.3752 -2.0742
  103OSM   H15C10407   4.465   3.086  10.917 -1.9520 -0.8889 -1.3300
  103OSM    C1410408   4.565   2.782  10.998 -0.0702  0.5701 -0.3948
  103OSM   H14A10409   4.650   2.719  10.978 -0.0685 -0.1045  1.6476
  103OSM   H14B10410   4.482   2.716  10.980  1.6560 -2.2639  1.7241
  103OSM   H14C10411   4.563   2.808  11.103  0.5121  0.5398 -0.3735
  103OSM    C1310412   4.561   2.854  10.769 -0.3652  0.3835  0.0355
  103OSM   H13A10413   4.641   2.787  10.741 -1.2343 -0.4620 -0.4342
  103OSM   H13B10414   4.572   2.942  10.706  0.3309 -0.2867 -0.7909
  103OSM   H13C10415   4.474   2.800  10.737 -0.4316  0.0625  0.7430
  103OSM    C1210416   4.704   2.986  10.934 -0.6719 -0.1743 -0.2646
  103OSM   H12A10417   4.792   2.927  10.912 -0.4059 -0.1571  0.7254
  103OSM   H12B10418   4.693   2.995  11.041 -0.6070  2.9952 -0.4994
  103OSM    C1110419   4.712   3.125  10.875  0.3729  0.5785  0.2236
  103OSM   H11A10420   4.689   3.119  10.766 -2.8861 -1.3786  0.9378
  103OSM   H11B10421   4.817   3.158  10.889  0.3649 -0.1097  2.0398
  103OSM      P10422   4.575   3.351  10.921 -0.0131 -0.0247  0.1559
  103OSM    O1310423   4.428   3.350  10.954 -0.2354  0.3055 -0.6741
  103OSM    O1410424   4.659   3.460  10.985  0.5054  0.0407  0.1535
  103OSM    O1110425   4.599   3.354  10.769  0.4134  0.4343 -0.0618
  103OSM    O1210426   4.629   3.213  10.960  0.0263  0.1489  0.0891
  103OSM    C1S10427   4.487   3.325  10.682 -0.7966 -0.9212  0.4834
  103OSM    H1S10428   4.398   3.387  10.708 -0.7500 -0.6873  0.0877
  103OSM    H1T10429   4.461   3.218  10.688 -1.0062 -0.9872 -1.3195
  103OSM     NF10430   4.405   3.353  10.440  0.0073  0.0232 -0.5759
  103OSM    HNF10431   4.426   3.288  10.367  1.5272 -1.5557  1.2049
  103OSM    C2S10432   4.515   3.371  10.532 -0.4361 -0.1569  0.2108
  103OSM    H2S10433   4.537   3.480  10.541  0.0433 -0.3374  1.3911
  103OSM    C3S10434   4.651   3.308  10.484 -0.5616 -0.2691 -0.9272
  103OSM    H3S10435   4.639   3.198  10.482  1.2191 -0.5782  2.0699
  103OSM     O310436   4.758   3.335  10.575 -0.2796  0.2691 -0.3741
  103OSM    HO310437   4.717   3.369  10.655 -0.1101 -1.4980  0.4876
  103OSM    C4S10438   4.686   3.365  10.349  0.2337  0.3018  0.0046
  103OSM    H4S10439   4.735   3.463  10.363 -0.5555  0.5928  0.7632
  103OSM    C5S10440   4.648   3.318  10.230 -0.5105 -0.0440 -0.1987
  103OSM    H5S10441   4.588   3.226  10.227  0.1112 -0.4540 -0.1826
  103OSM    C6S10442   4.667   3.384  10.092  0.4077 -0.4902 -0.5444
  103OSM    H6S10443   4.702   3.489  10.101  2.3237 -1.0166 -1.3587
  103OSM    H6T10444   4.572   3.385  10.035  0.5168  0.9684 -0.7281
  103OSM    C7S10445   4.762   3.325   9.992 -0.2816 -0.5008 -0.5247
  103OSM    H7S10446   4.723   3.226   9.960 -0.8494 -0.6237  0.5287
  103OSM    H7T10447   4.855   3.303  10.048 -0.3968 -1.5677 -0.7454
  103OSM    C8S10448   4.792   3.412   9.869  0.2363  0.2028 -0.2043
  103OSM    H8S10449   4.758   3.515   9.892  0.5122  0.4752 -0.9977
  103OSM    H8T10450   4.745   3.364   9.781  1.7880 -0.1790 -0.8558
  103OSM    C9S10451   4.944   3.426   9.837 -0.6056 -0.0278 -0.0355
  103OSM    H9S10452   5.003   3.357   9.900 -1.2988  0.0465  0.7013
  103OSM    H9T10453   4.968   3.530   9.870  4.2848 -0.9518 -0.2987
  103OSM   C10S10454   4.984   3.410   9.685  0.2265  0.1954  0.0417
  103OSM   H10S10455   5.092   3.433   9.672 -0.1666  2.8589  1.1508
  103OSM   H10T10456   4.912   3.475   9.630  0.0191 -1.0048 -1.1295
  103OSM   C11S10457   4.962   3.275   9.617 -0.1804  0.1232 -0.7120
  103OSM   H11S10458   4.865   3.233   9.653 -0.1054 -0.5679 -1.3178
  103OSM   H11T10459   5.031   3.198   9.656 -1.3214 -0.3727  0.3683
  103OSM   C12S10460   4.994   3.281   9.465 -0.0595  0.8773  0.0513
  103OSM   H12S10461   5.092   3.332   9.465  0.2177  0.3369 -0.4276
  103OSM   H12T10462   4.913   3.340   9.417 -3.2895 -2.0009  1.7182
  103OSM   C13S10463   5.006   3.148   9.401 -0.2026 -0.5145  0.3382
  103OSM   H13S10464   4.912   3.090   9.415 -0.5495  0.1687  0.8399
  103OSM   H13T10465   5.085   3.083   9.443 -1.9172 -1.7866  1.6921
  103OSM   C14S10466   5.029   3.151   9.248 -0.2491  0.0093 -0.2952
  103OSM   H14S10467   5.121   3.199   9.208  0.2533 -0.6210  0.0823
  103OSM   H14T10468   4.954   3.225   9.214 -1.7977 -1.0643  0.7195
  103OSM   C15S10469   4.990   3.022   9.175 -0.2534  0.2600 -0.0932
  103OSM   H15S10470   4.967   3.046   9.070  0.2477 -1.6934 -0.6646
  103OSM   H15T10471   4.893   2.985   9.213 -0.9314  1.2471 -0.8509
  103OSM   C16S10472   5.109   2.921   9.188  0.6373  0.0874 -0.3125
  103OSM   H16S10473   5.166   2.942   9.281  1.2937 -1.2668 -0.3896
  103OSM   H16T10474   5.180   2.924   9.103  2.1505  3.7243  0.9552
  103OSM   C17S10475   5.066   2.770   9.211  0.5750 -0.0729 -0.3815
  103OSM   H17S10476   5.138   2.709   9.153  0.5449  0.2255 -0.7381
  103OSM   H17T10477   4.968   2.760   9.158  1.1534 -0.6233 -1.3611
  103OSM   C18S10478   5.058   2.729   9.357 -0.1248 -0.0210  0.7852
  103OSM   H18S10479   5.044   2.620   9.373  1.4361 -0.2141  0.8679
  103OSM   H18T10480   4.981   2.788   9.410 -1.9439  1.1443 -2.9333
  103OSM   H18U10481   5.149   2.750   9.417 -0.0982  2.0377  0.0451
  103OSM    C1F10482   4.288   3.414  10.442  0.0468  0.2728  0.3528
  103OSM     OF10483   4.279   3.512  10.512  0.4496 -0.5578 -0.0842
  103OSM    C2F10484   4.175   3.348  10.374  0.2995 -0.8005 -0.1420
  103OSM    H2F10485   4.124   3.281  10.447  1.7197  0.4611  2.0478
  103OSM    H2G10486   4.210   3.273  10.300  0.5773 -2.1009  1.2630
  103OSM    C3F10487   4.078   3.461  10.324  0.3625 -0.5178  0.7955
  103OSM    H3F10488   4.039   3.514  10.413  2.5875  1.3263  0.7112
  103OSM    H3G10489   3.991   3.411  10.275 -0.2506  0.1568  1.1928
  103OSM    C4F10490   4.129   3.569  10.221 -0.3977  0.6212 -0.3457
  103OSM    H4F10491   4.189   3.647  10.273  1.9211 -0.6322 -1.0663
  103OSM    H4G10492   4.043   3.623  10.177 -0.4736 -0.7138 -1.8863
  103OSM    C5F10493   4.196   3.503  10.105 -0.8484  0.2920  0.3952
  103OSM    H5F10494   4.132   3.415  10.082 -0.4770  0.1516 -0.1167
  103OSM    H5G10495   4.298   3.482  10.143 -1.2974  0.2315  1.5704
  103OSM    C6F10496   4.218   3.589   9.979  0.0822  0.4701 -0.5774
  103OSM    H6F10497   4.299   3.657  10.013  2.1781 -0.3419 -3.6534
  103OSM    H6G10498   4.127   3.647   9.955  0.6991  1.1363 -1.3407
  103OSM    C7F10499   4.256   3.513   9.852 -0.1215 -0.2093  0.0530
  103OSM    H7F10500   4.177   3.437   9.832  0.8659 -1.9119  2.4034
  103OSM    H7G10501   4.349   3.454   9.866  0.2141  0.5645  1.0859
  103OSM    C8F10502   4.264   3.603   9.727 -0.5418  0.3614  0.0546
  103OSM    H8F10503   4.346   3.678   9.737 -0.2659  0.2724 -1.4254
  103OSM    H8G10504   4.176   3.669   9.716 -0.7786 -0.3678 -2.7177
  103OSM    C9F10505   4.287   3.528   9.596 -0.1831  0.6661 -0.4121
  103OSM    H9F10506   4.385   3.479   9.586  0.6229  1.3961  3.2200
  103OSM   C10F10507   4.219   3.553   9.485  0.4422 -0.0814 -0.1079
  103OSM   H10F10508   4.241   3.486   9.401  2.1527 -1.7711  1.6405
  103OSM   C11F10509   4.105   3.645   9.462 -0.0858 -0.1303  0.1034
  103OSM   H11F10510   4.061   3.697   9.550  2.2407 -0.5865  1.5850
  103OSM   H11G10511   4.026   3.583   9.414 -0.6235  1.6743 -1.3857
  103OSM   C12F10512   4.122   3.756   9.358 -0.0925  0.3431 -0.2513
  103OSM   H12F10513   4.193   3.834   9.394 -0.5167  0.2021  0.8965
  103OSM   H12G10514   4.022   3.804   9.361  0.1275  0.6867  1.9594
  103OSM   C13F10515   4.156   3.698   9.219 -0.9507 -0.9208 -0.2589
  103OSM   H13F10516   4.182   3.791   9.163  1.6771 -0.9952  0.7744
  103OSM   H13G10517   4.240   3.625   9.221  0.4326  0.6947  2.9884
  103OSM   C14F10518   4.036   3.633   9.151  0.4602 -0.1595 -0.7027
  103OSM   H14F10519   3.948   3.700   9.159 -0.6265 -1.6539  0.2091
  103OSM   H14G10520   4.014   3.534   9.196  0.6519  1.1991  2.4685
  103OSM   C15F10521   4.056   3.613   8.997 -0.4640 -0.4241  0.1636
  103OSM   H15F10522   4.150   3.555   8.986 -0.3089 -0.0681 -0.4307
  103OSM   H15G10523   4.077   3.710   8.946  0.6616  0.5864  2.4538
  103OSM   C16F10524   3.948   3.532   8.927 -0.4245 -0.1706  0.3235
  103OSM   H16F10525   3.854   3.588   8.946 -0.6437 -0.3934 -0.1142
  103OSM   H16G10526   3.933   3.434   8.978 -0.8577  0.7173  1.9549
  103OSM   C17F10527   3.962   3.516   8.780 -0.1686 -0.3206 -0.2118
  103OSM   H17F10528   4.059   3.464   8.763 -0.1050 -0.4556  0.5661
  103OSM   H17G10529   3.965   3.618   8.738 -1.8539  0.8138  2.3225
  103OSM   C18F10530   3.845   3.437   8.710 -0.0693 -1.0184  0.4113
  103OSM   H18F10531   3.879   3.411   8.608  0.7764  0.8890  0.1825
  103OSM   H18G10532   3.746   3.488   8.709  0.4561  0.4032  5.1342
  103OSM   H18H10533   3.834   3.339   8.762 -4.2239 -1.9916 -2.1134
  104OSM      N10534   1.806   2.527  11.028 -0.8780  0.6621  0.1570
  104OSM    C1510535   1.924   2.507  11.125  0.7426 -0.1131 -0.1944
  104OSM   H15A10536   1.899   2.566  11.212 -1.2192 -1.3523  0.1188
  104OSM   H15B10537   2.024   2.527  11.091  0.4712  1.0409 -0.3666
  104OSM   H15C10538   1.919   2.403  11.153 -3.5233  0.1540  0.3935
  104OSM    C1410539   1.693   2.450  11.088 -0.8317 -0.8134  0.0563
  104OSM   H14A10540   1.674   2.481  11.190  0.9768  2.4458 -0.5255
  104OSM   H14B10541   1.701   2.343  11.075  1.2111 -0.6229 -0.3753
  104OSM   H14C10542   1.601   2.475  11.038 -0.6735 -2.8005 -1.2409
  104OSM    C1310543   1.778   2.673  11.031 -0.0035  0.7925  0.5211
  104OSM   H13A10544   1.850   2.743  10.991 -2.5793  1.9460 -2.3079
  104OSM   H13B10545   1.734   2.696  11.127 -1.0126  1.1329 -0.0091
  104OSM   H13C10546   1.702   2.688  10.955  1.4077 -0.5524 -1.2168
  104OSM    C1210547   1.843   2.478  10.887 -0.6491  1.0045 -0.2406
  104OSM   H12A10548   1.866   2.372  10.886 -3.1615  0.4469 -0.0999
  104OSM   H12B10549   1.932   2.529  10.852  2.0725 -3.8440 -0.9026
  104OSM    C1110550   1.746   2.508  10.768 -0.5104  0.1288 -0.0576
  104OSM   H11A10551   1.654   2.453  10.798 -1.9840  2.5172 -0.1308
  104OSM   H11B10552   1.804   2.466  10.684  2.7239  1.0323  1.6398
  104OSM      P10553   1.811   2.731  10.656  0.0722  0.0397 -0.0620
  104OSM    O1310554   1.783   2.875  10.697 -0.0915 -0.4440  0.7390
  104OSM    O1410555   1.951   2.687  10.642 -0.2890 -0.2487  0.4271
  104OSM    O1110556   1.743   2.702  10.515 -0.0194 -0.1739 -0.5094
  104OSM    O1210557   1.729   2.645  10.753  0.0586 -0.7258  0.5667
  104OSM    C1S10558   1.655   2.777  10.442 -0.3404 -0.7034 -0.3910
  104OSM    H1S10559   1.629   2.870  10.498  2.4394 -0.6683  0.9326
  104OSM    H1T10560   1.564   2.716  10.429 -1.2663  0.6388 -0.3685
  104OSM     NF10561   1.617   2.911  10.239  0.5099  0.1736 -0.2992
  104OSM    HNF10562   1.544   2.874  10.183 -0.5910  0.2161  1.0682
  104OSM    C2S10563   1.702   2.812  10.297  0.7976  0.3006  0.2578
  104OSM    H2S10564   1.800   2.861  10.314  1.4196 -0.1352 -1.9318
  104OSM    C3S10565   1.723   2.682  10.215  0.2891 -0.1406 -0.3199
  104OSM    H3S10566   1.628   2.624  10.213  0.5330 -0.5668  0.3625
  104OSM     O310567   1.822   2.595  10.263  0.2167  0.5628  0.2694
  104OSM    HO310568   1.839   2.618  10.354 -1.5101 -0.5568  0.8990
  104OSM    C4S10569   1.746   2.703  10.056 -0.0460 -0.0939 -0.6777
  104OSM    H4S10570   1.665   2.762  10.011  0.8413  1.4841 -0.2198
  104OSM    C5S10571   1.844   2.662   9.973  0.0542  0.1465  0.3661
  104OSM    H5S10572   1.924   2.604  10.020 -0.1036 -0.0530  0.3892
  104OSM    C6S10573   1.857   2.686   9.824  0.1323 -0.8117  0.0768
  104OSM    H6S10574   1.846   2.590   9.769 -0.7940 -1.0350  0.6358
  104OSM    H6T10575   1.959   2.726   9.802 -0.7211  0.3032 -1.9249
  104OSM    C7S10576   1.753   2.781   9.752 -1.6401 -0.3780 -0.1276
  104OSM    H7S10577   1.804   2.800   9.656 -0.1382 -3.2333  0.0605
  104OSM    H7T10578   1.741   2.879   9.804  0.9458  1.1854 -2.3515
  104OSM    C8S10579   1.614   2.723   9.733  0.4357  0.4352  0.2992
  104OSM    H8S10580   1.547   2.809   9.709  0.9686  0.3071 -1.7577
  104OSM    H8T10581   1.585   2.671   9.826 -1.7577  0.1114 -0.5351
  104OSM    C9S10582   1.602   2.617   9.619 -0.6737 -0.4694  0.1442
  104OSM    H9S10583   1.499   2.575   9.616 -0.8254 -0.1537  0.7501
  104OSM    H9T10584   1.674   2.533   9.626  2.8292  2.2516 -1.4850
  104OSM   C10S10585   1.621   2.679   9.483 -0.2647 -0.0714  0.2395
  104OSM   H10S10586   1.719   2.728   9.469 -1.8135  4.1962  3.1761
  104OSM   H10T10587   1.555   2.769   9.474 -0.1480 -0.0398 -0.3134
  104OSM   C11S10588   1.583   2.576   9.374  0.0813  0.3293 -0.0695
  104OSM   H11S10589   1.484   2.530   9.397 -0.6550  1.0123 -1.7288
  104OSM   H11T10590   1.663   2.499   9.372 -1.0019 -0.8717  1.5369
  104OSM   C12S10591   1.559   2.645   9.238 -1.1463 -0.5446  0.3599
  104OSM   H12S10592   1.660   2.680   9.206 -2.6804  4.0228  0.0824
  104OSM   H12T10593   1.486   2.727   9.258 -0.1023  0.6319 -0.5200
  104OSM   C13S10594   1.510   2.547   9.141  0.7519  0.1121  0.2187
  104OSM   H13S10595   1.422   2.498   9.188  1.7722 -2.2462 -0.2620
  104OSM   H13T10596   1.593   2.475   9.129  0.1979 -0.4852 -0.0348
  104OSM   C14S10597   1.488   2.608   9.000 -0.1618 -0.0735 -0.2008
  104OSM   H14S10598   1.563   2.689   8.986 -2.2802  2.0883  0.7010
  104OSM   H14T10599   1.394   2.667   8.995  0.5704  1.1416  0.2118
  104OSM   C15S10600   1.488   2.498   8.893 -0.0179 -0.5334 -0.5413
  104OSM   H15S10601   1.410   2.427   8.929 -1.2271  0.7759 -0.5198
  104OSM   H15T10602   1.590   2.455   8.898  0.2318  0.0185 -0.8579
  104OSM   C16S10603   1.436   2.540   8.759 -0.0956 -0.3262 -1.0041
  104OSM   H16S10604   1.496   2.615   8.704  0.0239  0.1540 -0.2195
  104OSM   H16T10605   1.337   2.589   8.771 -1.0962 -2.5966  0.4539
  104OSM   C17S10606   1.414   2.410   8.671  0.5799 -0.0606  0.0327
  104OSM   H17S10607   1.352   2.330   8.718  0.0692  0.7241  0.7057
  104OSM   H17T10608   1.520   2.377   8.677  0.4836 -0.2895  0.4687
  104OSM   C18S10609   1.361   2.439   8.532  0.3739  0.4374 -0.6862
  104OSM   H18S10610   1.251   2.449   8.539  0.1793 -2.5257  1.4007
  104OSM   H18T10611   1.397   2.373   8.450  0.2765  1.0366 -1.2115
  104OSM   H18U10612   1.392   2.542   8.506  1.1810  0.1485 -0.9070
  104OSM    C1F10613   1.623   3.040  10.292  0.2524  0.0942  0.1247
  104OSM     OF10614   1.714   3.079  10.370  0.1847  0.0860 -0.0244
  104OSM    C2F10615   1.510   3.125  10.247  0.0636  0.2519 -0.4305
  104OSM    H2F10616   1.425   3.127  10.319 -0.3923  3.2634 -1.0137
  104OSM    H2G10617   1.467   3.080  10.154  1.2817 -0.1279 -0.8139
  104OSM    C3F10618   1.562   3.270  10.219 -0.3733 -0.9851  0.2455
  104OSM    H3F10619   1.595   3.320  10.312  0.1877  1.7444 -1.3728
  104OSM    H3G10620   1.469   3.322  10.188 -0.4590 -0.8510  0.7286
  104OSM    C4F10621   1.670   3.290  10.110  0.7600  0.2647  0.0348
  104OSM    H4F10622   1.773   3.263  10.139  0.8101  0.9606  0.5290
  104OSM    H4G10623   1.665   3.401  10.098 -1.9688 -0.0115 -1.8525
  104OSM    C5F10624   1.644   3.207   9.984  0.2958  0.4095 -0.3830
  104OSM    H5F10625   1.636   3.100  10.011 -0.0219  0.0904 -1.6763
  104OSM    H5G10626   1.724   3.225   9.908  1.2037  0.0288  0.4600
  104OSM    C6F10627   1.510   3.240   9.914 -0.2897 -0.1373  0.2607
  104OSM    H6F10628   1.425   3.240   9.986 -0.8625  0.7767 -0.4077
  104OSM    H6G10629   1.492   3.165   9.835  1.5088 -1.7262  1.3084
  104OSM    C7F10630   1.504   3.369   9.842 -0.7437  0.5308  0.2411
  104OSM    H7F10631   1.593   3.377   9.777  0.1350 -0.2130  1.3522
  104OSM    H7G10632   1.500   3.454   9.914  3.1881  1.7374 -0.8554
  104OSM    C8F10633   1.390   3.368   9.735 -0.2898  0.4417  0.3303
  104OSM    H8F10634   1.294   3.360   9.791 -0.0049  0.0669  0.7696
  104OSM    H8G10635   1.396   3.286   9.660  0.8911  1.7689 -1.0741
  104OSM    C9F10636   1.383   3.502   9.662 -0.4838  0.0483  0.0753
  104OSM    H9F10637   1.412   3.582   9.732 -2.1206 -0.0561  0.8782
  104OSM   C10F10638   1.371   3.538   9.531  0.1728  0.3768 -0.1456
  104OSM   H10F10639   1.398   3.643   9.512 -2.5331  1.3830  1.3124
  104OSM   C11F10640   1.348   3.441   9.419 -0.7740 -0.2410 -0.1764
  104OSM   H11F10641   1.270   3.364   9.439  0.9987 -1.5030  2.0878
  104OSM   H11G10642   1.447   3.393   9.399 -0.2135  1.3792 -1.3694
  104OSM   C12F10643   1.312   3.529   9.294  0.1881  0.8302  0.2681
  104OSM   H12F10644   1.376   3.617   9.272  0.5422  0.0365 -2.0134
  104OSM   H12G10645   1.212   3.572   9.316 -0.3223 -0.0463 -0.2920
  104OSM   C13F10646   1.296   3.447   9.162 -0.6663 -0.3631  0.6265
  104OSM   H13F10647   1.204   3.385   9.166  0.5145 -2.2097 -0.2298
  104OSM   H13G10648   1.377   3.370   9.170  1.0553  1.5611  2.3709
  104OSM   C14F10649   1.302   3.517   9.028 -0.1915 -0.3349 -0.8850
  104OSM   H14F10650   1.291   3.432   8.957  1.1209  1.0653 -2.8265
  104OSM   H14G10651   1.400   3.560   8.999  0.0852  0.5942  1.3894
  104OSM   C15F10652   1.184   3.620   9.015 -0.4608  0.6397 -0.3371
  104OSM   H15F10653   1.189   3.708   9.083 -1.3073  1.4791 -1.3269
  104OSM   H15G10654   1.093   3.565   9.047  0.1721 -1.1470 -1.5127
  104OSM   C16F10655   1.169   3.661   8.868  0.4213  0.2125 -0.7249
  104OSM   H16F10656   1.074   3.717   8.863  0.7887  1.1547  1.8809
  104OSM   H16G10657   1.137   3.572   8.809 -0.7469 -2.4001  3.6168
  104OSM   C17F10658   1.276   3.753   8.812 -0.9681 -0.0735 -0.0427
  104OSM   H17F10659   1.255   3.761   8.703  0.2274  1.0050 -0.2063
  104OSM   H17G10660   1.375   3.706   8.797  0.2977  2.6004 -0.3563
  104OSM   C18F10661   1.293   3.892   8.868 -0.0744 -0.3374 -0.1645
  104OSM   H18F10662   1.217   3.965   8.832  0.7238  0.7899  0.3943
  104OSM   H18G10663   1.389   3.944   8.847  0.8397 -2.3873 -1.1195
  104OSM   H18H10664   1.290   3.895   8.979 -0.3756 -1.3055 -0.1467
  105OSM      N10665   2.144   1.864  10.879  0.0930  0.3725 -0.1780
  105OSM    C1510666   2.025   1.824  10.958  0.1125  0.0066  0.2170
  105OSM   H15A10667   2.033   1.721  10.991 -2.1612 -0.5504 -0.8659
  105OSM   H15B10668   1.937   1.852  10.903  0.6353  0.6638 -0.2900
  105OSM   H15C10669   2.025   1.887  11.046 -0.9875  1.6613 -0.9486
  105OSM    C1410670   2.175   2.006  10.906  0.0769  0.4688 -0.2055
  105OSM   H14A10671   2.278   2.030  10.885  0.6422  0.0416  1.9677
  105OSM   H14B10672   2.171   2.033  11.010  1.9559  0.3706 -0.0989
  105OSM   H14C10673   2.107   2.065  10.846 -0.5434  2.6777  2.5770
  105OSM    C1310674   2.253   1.774  10.935 -0.6958 -0.3434  0.4851
  105OSM   H13A10675   2.258   1.676  10.890 -1.5122 -0.1812  0.0402
  105OSM   H13B10676   2.259   1.772  11.043 -0.0620  1.6408  0.5053
  105OSM   H13C10677   2.350   1.816  10.912 -1.2284  0.0036 -1.1725
  105OSM    C1210678   2.118   1.839  10.737  0.5555  0.0217  0.5741
  105OSM   H12A10679   2.089   1.736  10.725  2.1366 -0.1656 -1.9136
  105OSM   H12B10680   2.212   1.847  10.684 -1.1563  1.3191 -2.4077
  105OSM    C1110681   2.031   1.944  10.666  0.6293  0.0781  0.0304
  105OSM   H11A10682   2.011   1.907  10.563  0.0934  0.0181  0.1588
  105OSM   H11B10683   2.091   2.037  10.652 -0.3439  0.3778 -2.3373
  105OSM      P10684   1.833   2.088  10.768 -0.1825  0.0695  0.3674
  105OSM    O1310685   1.721   2.069  10.859  0.0955  0.1842  0.0322
  105OSM    O1410686   1.938   2.185  10.804 -0.5414 -0.4095 -0.3049
  105OSM    O1110687   1.762   2.124  10.634 -0.0147  0.4918 -0.1840
  105OSM    O1210688   1.902   1.949  10.727  0.3830  0.8239 -0.8242
  105OSM    C1S10689   1.847   2.193  10.540  0.9505  0.0947  0.5050
  105OSM    H1S10690   1.937   2.132  10.518  0.2372 -0.7594 -0.1356
  105OSM    H1T10691   1.876   2.293  10.578 -1.9711  0.4905  1.9110
  105OSM     NF10692   1.874   2.296  10.321  0.2104 -0.1575 -0.4496
  105OSM    HNF10693   1.848   2.386  10.287 -2.0300 -1.1377 -1.4372
  105OSM    C2S10694   1.780   2.216  10.401  0.0546 -0.2245 -0.1418
  105OSM    H2S10695   1.756   2.119  10.354 -1.2351 -0.2156  0.4731
  105OSM    C3S10696   1.638   2.279  10.414 -0.3737 -0.3753  0.4858
  105OSM    H3S10697   1.658   2.380  10.457  1.9351 -0.6083  0.0711
  105OSM     O310698   1.554   2.220  10.504 -0.0428 -0.0147 -0.2164
  105OSM    HO310699   1.619   2.176  10.560  1.0835 -1.3895 -2.5117
  105OSM    C4S10700   1.576   2.295  10.277 -0.6025 -0.0907 -0.2482
  105OSM    H4S10701   1.585   2.202  10.219 -1.1638  0.1651 -0.7519
  105OSM    C5S10702   1.508   2.400  10.231 -0.0306  0.0717 -0.1055
  105OSM    H5S10703   1.507   2.485  10.301 -0.5347 -0.6237  0.7395
  105OSM    C6S10704   1.452   2.404  10.090  0.5032 -0.1243  0.2191
  105OSM    H6S10705   1.526   2.388  10.009  0.1340 -0.4287 -0.0590
  105OSM    H6T10706   1.433   2.510  10.064  0.9037  0.0833  0.7621
  105OSM    C7S10707   1.341   2.305  10.059 -0.1143 -0.1774 -0.6577
  105OSM    H7S10708   1.271   2.309  10.145  0.1577  0.3358 -0.4590
  105OSM    H7T10709   1.384   2.203  10.060 -1.9089 -0.9477 -0.5915
  105OSM    C8S10710   1.255   2.321   9.940  0.2182 -0.8571  0.4016
  105OSM    H8S10711   1.323   2.353   9.858  0.9540 -1.3811  0.7987
  105OSM    H8T10712   1.184   2.401   9.971 -0.1771 -0.0669 -2.4068
  105OSM    C9S10713   1.156   2.208   9.905 -0.4383  0.1038  0.2188
  105OSM    H9S10714   1.089   2.181   9.990  1.8584 -0.6290  1.8372
  105OSM    H9T10715   1.210   2.117   9.874  0.1508  0.8559 -0.9838
  105OSM   C10S10716   1.068   2.242   9.779 -0.1073  0.6168 -0.5932
  105OSM   H10S10717   1.015   2.340   9.787 -0.1405  0.6292 -0.9484
  105OSM   H10T10718   0.990   2.165   9.767  0.8006 -0.3314 -0.4443
  105OSM   C11S10719   1.141   2.251   9.645  0.3628 -0.4817  0.6049
  105OSM   H11S10720   1.195   2.154   9.640  2.0114  0.3007  2.7495
  105OSM   H11T10721   1.208   2.339   9.645  0.1422 -0.3097  0.0820
  105OSM   C12S10722   1.032   2.269   9.543 -0.0236 -0.3249 -0.2565
  105OSM   H12S10723   0.970   2.359   9.560  1.0475  0.0079  2.1077
  105OSM   H12T10724   0.975   2.174   9.539 -1.2572  0.4099 -0.4773
  105OSM   C13S10725   1.103   2.286   9.409  0.3052  0.8457  0.0287
  105OSM   H13S10726   1.160   2.193   9.388  1.1027  2.0641 -3.5812
  105OSM   H13T10727   1.186   2.360   9.406  0.7499  0.3230 -1.3408
  105OSM   C14S10728   1.000   2.306   9.298 -0.0384 -0.4793 -0.0452
  105OSM   H14S10729   0.945   2.399   9.325  0.0915  0.1211 -1.7706
  105OSM   H14T10730   0.917   2.233   9.311  2.0882 -2.6984  1.4502
  105OSM   C15S10731   1.042   2.314   9.153 -0.0001 -0.2420 -0.7532
  105OSM   H15S10732   1.120   2.392   9.138 -0.9470  1.2257  1.8447
  105OSM   H15T10733   0.956   2.340   9.088  0.8011  0.6149 -1.4814
  105OSM   C16S10734   1.082   2.176   9.092 -0.9577  0.7733  0.0428
  105OSM   H16S10735   1.002   2.099   9.101  0.1193 -0.2289  1.1347
  105OSM   H16T10736   1.160   2.136   9.160 -1.4716 -0.0732  0.1369
  105OSM   C17S10737   1.129   2.181   8.952 -0.2740  0.4563  0.9312
  105OSM   H17S10738   1.180   2.086   8.924 -1.9931 -0.0859 -0.4446
  105OSM   H17T10739   1.193   2.269   8.931  0.9002 -0.6246 -0.1239
  105OSM   C18S10740   1.013   2.195   8.854  0.1568  0.0306 -0.1001
  105OSM   H18S10741   0.940   2.269   8.892  0.4320  0.3655 -0.2274
  105OSM   H18T10742   0.959   2.099   8.837 -0.2739  0.1453  0.5986
  105OSM   H18U10743   1.053   2.230   8.756 -0.5106 -2.0486 -1.1635
  105OSM    C1F10744   1.997   2.255  10.278 -0.3829 -0.1839  0.3490
  105OSM     OF10745   2.034   2.133  10.294  0.3020 -0.3208  0.8969
  105OSM    C2F10746   2.081   2.361  10.207 -0.4409  1.0816  0.3626
  105OSM    H2F10747   2.123   2.432  10.282  2.3744  0.8125 -0.8843
  105OSM    H2G10748   2.014   2.413  10.135 -2.3700  0.1046  1.4261
  105OSM    C3F10749   2.198   2.304  10.112  0.2784  0.5028  0.2148
  105OSM    H3F10750   2.145   2.234  10.044 -1.3166  2.7283 -0.8629
  105OSM    H3G10751   2.271   2.249  10.176 -0.3158 -0.3415  0.1756
  105OSM    C4F10752   2.272   2.412  10.028  0.5141 -0.9657  0.6338
  105OSM    H4F10753   2.319   2.358   9.943 -1.7021  0.2129 -1.4042
  105OSM    H4G10754   2.347   2.465  10.090  0.7103 -0.6588  0.1390
  105OSM    C5F10755   2.183   2.519   9.963  0.2408  0.5142  0.5964
  105OSM    H5F10756   2.139   2.569  10.051  0.2281  2.4968 -0.5007
  105OSM    H5G10757   2.105   2.470   9.901  2.1355  1.8999 -3.0470
  105OSM    C6F10758   2.251   2.634   9.884 -0.2994 -0.8037  0.2100
  105OSM    H6F10759   2.331   2.671   9.952  0.0488 -0.7087 -0.2461
  105OSM    H6G10760   2.178   2.716   9.872 -0.6544 -0.6092  3.3434
  105OSM    C7F10761   2.310   2.603   9.743 -0.4705  0.3383 -0.2178
  105OSM    H7F10762   2.220   2.549   9.706 -1.4347  0.2334  2.2310
  105OSM    H7G10763   2.399   2.536   9.743  0.5216  1.6530  0.0242
  105OSM    C8F10764   2.341   2.725   9.650 -0.2097  0.6223  0.0334
  105OSM    H8F10765   2.436   2.771   9.685  0.6676 -0.5852 -0.7026
  105OSM    H8G10766   2.256   2.792   9.675 -0.9735  0.3927 -1.8328
  105OSM    C9F10767   2.332   2.680   9.508 -0.2997  0.2386 -0.0944
  105OSM    H9F10768   2.427   2.642   9.466 -1.0965  0.5084 -2.1688
  105OSM   C10F10769   2.229   2.696   9.417 -0.6053 -0.4717  0.0932
  105OSM   H10F10770   2.239   2.672   9.310  1.5048  2.3992 -0.4142
  105OSM   C11F10771   2.094   2.761   9.454 -1.1374  0.0997  0.2627
  105OSM   H11F10772   2.074   2.750   9.563 -2.3522 -0.7762 -0.0312
  105OSM   H11G10773   2.017   2.697   9.405 -0.6508  0.3454 -0.8391
  105OSM   C12F10774   2.076   2.911   9.415 -0.1153  0.4024  0.2523
  105OSM   H12F10775   2.170   2.961   9.447  1.6027 -2.4744 -0.1110
  105OSM   H12G10776   1.988   2.951   9.470 -1.6723 -2.9538  0.3453
  105OSM   C13F10777   2.063   2.919   9.269  0.2545  0.7769 -0.4715
  105OSM   H13F10778   1.978   2.865   9.220  0.5694  1.0134 -1.2860
  105OSM   H13G10779   2.145   2.872   9.211 -1.5557  0.7940 -3.1307
  105OSM   C14F10780   2.073   3.064   9.226  0.5966  0.4727  0.3768
  105OSM   H14F10781   2.153   3.119   9.279  1.5769 -0.0010 -0.6055
  105OSM   H14G10782   1.980   3.121   9.248  0.7576  0.5694  0.7977
  105OSM   C15F10783   2.098   3.088   9.069 -0.3273  0.3488 -0.4904
  105OSM   H15F10784   2.178   3.022   9.030  0.1670 -0.0388  1.1542
  105OSM   H15G10785   2.119   3.195   9.047 -0.5082  0.6204  0.6408
  105OSM   C16F10786   1.977   3.055   8.984  0.0851  0.3389  0.6155
  105OSM   H16F10787   1.896   3.127   9.008 -0.2994  0.1178 -0.0159
  105OSM   H16G10788   1.942   2.959   9.026  0.2692 -0.6198 -1.3776
  105OSM   C17F10789   2.003   3.033   8.838 -0.0731  0.0050 -0.3505
  105OSM   H17F10790   2.068   2.944   8.821 -0.8182 -0.5189 -0.5043
  105OSM   H17G10791   2.049   3.121   8.787 -1.3660 -0.7379 -2.9079
  105OSM   C18F10792   1.886   2.998   8.749 -0.9655 -0.0020 -0.2245
  105OSM   H18F10793   1.807   3.076   8.741 -0.6129  0.2310 -1.5199
  105OSM   H18G10794   1.836   2.905   8.785 -0.1105 -1.4651 -2.6376
  105OSM   H18H10795   1.926   2.977   8.648  1.7317  2.0899  0.3747
  106OSM      N10796   3.041   1.060  10.703  0.0483 -0.1907  0.0237
  106OSM    C1510797   2.908   1.021  10.760 -0.5282  0.5335 -0.4615
  106OSM   H15A10798   2.841   1.104  10.777  2.0090  2.5342  0.0250
  106OSM   H15B10799   2.919   0.978  10.858 -0.0551  1.2574 -0.1952
  106OSM   H15C10800   2.853   0.947  10.703 -1.0499 -0.5575  1.4235
  106OSM    C1410801   3.027   1.158  10.589 -0.2200  0.4176  0.2380
  106OSM   H14A10802   2.937   1.138  10.532  0.0632  2.3210 -0.9438
  106OSM   H14B10803   3.112   1.159  10.522  0.9568 -0.6503  1.6934
  106OSM   H14C10804   3.015   1.258  10.630 -0.4933 -1.0083  3.8334
  106OSM    C1310805   3.126   1.118  10.814 -0.1320 -0.5334 -0.0569
  106OSM   H13A10806   3.137   1.051  10.899 -0.5560 -3.4415 -2.2282
  106OSM   H13B10807   3.080   1.211  10.845  1.2225  0.2722 -0.4149
  106OSM   H13C10808   3.226   1.132  10.776 -0.5304 -0.4919 -1.1034
  106OSM    C1210809   3.124   0.942  10.652  0.3992 -0.0460 -0.5438
  106OSM   H12A10810   3.147   0.879  10.737  1.8764 -0.4480 -1.2103
  106OSM   H12B10811   3.222   0.976  10.620  1.1421 -0.3751  1.3033
  106OSM    C1110812   3.069   0.856  10.537  0.1709  0.0062  0.2744
  106OSM   H11A10813   3.151   0.792  10.497  0.4584 -0.0581  0.9567
  106OSM   H11B10814   3.038   0.925  10.457 -3.3747 -2.7432 -0.8791
  106OSM      P10815   2.969   0.652  10.668 -0.4691  0.6597 -0.3638
  106OSM    O1310816   3.071   0.670  10.771 -0.0842 -0.1380 -0.0997
  106OSM    O1410817   2.834   0.603  10.704  0.2768 -0.3699 -0.0646
  106OSM    O1110818   3.023   0.548  10.569 -0.5759  0.0200  0.5555
  106OSM    O1210819   2.957   0.781  10.581  0.0668 -0.2973 -0.6567
  106OSM    C1S10820   2.949   0.506  10.450  0.5546  0.0189  0.2913
  106OSM    H1S10821   2.949   0.593  10.381  0.2134 -1.1032 -1.1466
  106OSM    H1T10822   2.842   0.489  10.474  0.6980 -2.4793 -0.7437
  106OSM     NF10823   2.985   0.392  10.227  0.3456  0.5622 -0.1800
  106OSM    HNF10824   2.926   0.319  10.193  0.4131  0.3803  0.0941
  106OSM    C2S10825   3.024   0.391  10.369  0.0857 -0.1544  0.6600
  106OSM    H2S10826   3.134   0.408  10.379  0.4822 -2.4381  0.2792
  106OSM    C3S10827   3.010   0.259  10.450  0.5576 -0.5632 -0.6500
  106OSM    H3S10828   2.905   0.223  10.441  0.0380  1.3238 -2.5441
  106OSM     O310829   3.032   0.270  10.589  0.3646  0.3333  0.5997
  106OSM    HO310830   3.022   0.363  10.608  0.2705  0.6146 -0.7954
  106OSM    C4S10831   3.100   0.152  10.380  0.0491  0.2869  0.8168
  106OSM    H4S10832   3.197   0.185  10.340 -0.5248 -1.8267 -2.4629
  106OSM    C5S10833   3.061   0.029  10.352 -0.4470  0.5846  0.8340
  106OSM    H5S10834   2.965  -0.010  10.390 -1.1319  0.3046 -1.0871
  106OSM    C6S10835   3.140  -0.067  10.279  0.3343 -0.1577  0.5228
  106OSM    H6S10836   3.070  -0.152  10.260  0.4959 -0.1969  0.0933
  106OSM    H6T10837   3.220  -0.111  10.341  2.5899  2.0697 -0.7251
  106OSM    C7S10838   3.193  -0.025  10.144  0.5613 -0.8939  0.4447
  106OSM    H7S10839   3.269  -0.095  10.102  0.4279 -0.9208  0.2473
  106OSM    H7T10840   3.255   0.066  10.161  0.3564 -0.4113 -1.3190
  106OSM    C8S10841   3.085   0.018  10.045 -0.7328 -0.5493 -0.6537
  106OSM    H8S10842   3.025   0.102  10.086 -0.5475 -0.9614  0.4718
  106OSM    H8T10843   3.014  -0.063  10.016 -2.5522  0.3371  1.2142
  106OSM    C9S10844   3.138   0.066   9.913  0.3438 -0.1811  0.7883
  106OSM    H9S10845   3.217   0.144   9.921 -1.5907  1.6670  2.5310
  106OSM    H9T10846   3.046   0.104   9.864  0.9125  1.6850  1.1038
  106OSM   C10S10847   3.187  -0.048   9.825 -0.1903 -0.1545  0.6607
  106OSM   H10S10848   3.117  -0.133   9.838 -0.9596  0.4833  0.7300
  106OSM   H10T10849   3.288  -0.065   9.868 -1.1243 -1.4554  2.4144
  106OSM   C11S10850   3.193   0.003   9.683 -0.0666  0.2132  0.2349
  106OSM   H11S10851   3.291  -0.028   9.641 -0.4506  1.3166 -1.5430
  106OSM   H11T10852   3.180   0.114   9.678  0.9110  0.4287  1.8570
  106OSM   C12S10853   3.084  -0.072   9.600  0.4450  0.1801  0.0248
  106OSM   H12S10854   2.992  -0.064   9.661  0.5528 -1.4663  0.4416
  106OSM   H12T10855   3.114  -0.179   9.592  0.0119  0.0181  0.5489
  106OSM   C13S10856   3.073   0.002   9.466  1.0939 -0.2268  0.3045
  106OSM   H13S10857   3.175  -0.023   9.427  1.6365  0.9886  0.9233
  106OSM   H13T10858   3.060   0.110   9.486 -0.1558 -0.1074 -1.1190
  106OSM   C14S10859   2.962  -0.062   9.389 -0.3126  0.0549  0.1980
  106OSM   H14S10860   2.882  -0.067   9.466  0.6137  1.1655  1.2453
  106OSM   H14T10861   2.990  -0.169   9.375 -1.0211  0.1117 -1.7365
  106OSM   C15S10862   2.915   0.003   9.257  0.1533  0.5980  0.5980
  106OSM   H15S10863   3.001  -0.023   9.192 -0.6805  2.5900 -1.3213
  106OSM   H15T10864   2.918   0.114   9.260  0.9578  0.6018  0.0317
  106OSM   C16S10865   2.781  -0.052   9.215 -0.0913  0.3118  0.2877
  106OSM   H16S10866   2.702   0.001   9.272  0.3918  3.5795 -1.9854
  106OSM   H16T10867   2.777  -0.158   9.248 -1.4866  0.5723  0.9926
  106OSM   C17S10868   2.752  -0.041   9.062 -0.4132  0.3174 -0.3210
  106OSM   H17S10869   2.675  -0.119   9.041  1.0250 -1.0060 -0.7833
  106OSM   H17T10870   2.849  -0.047   9.009 -0.4596 -0.6338 -0.3127
  106OSM   C18S10871   2.703   0.092   9.005 -0.0870 -0.0123 -0.7764
  106OSM   H18S10872   2.785   0.167   9.005  2.8448 -3.0644  3.2409
  106OSM   H18T10873   2.616   0.130   9.063  1.7077 -0.0234  2.0139
  106OSM   H18U10874   2.681   0.078   8.897 -0.1053  0.3285 -0.8182
  106OSM    C1F10875   3.026   0.485  10.141  0.4983  0.2028 -0.0816
  106OSM     OF10876   3.112   0.561  10.174 -0.0323 -0.4522 -0.1631
  106OSM    C2F10877   2.962   0.495  10.007  0.1887  0.6249 -0.5597
  106OSM    H2F10878   2.874   0.562  10.015  0.7611  1.2205  0.8073
  106OSM    H2G10879   2.934   0.396   9.966 -2.4069  1.0328  0.1901
  106OSM    C3F10880   3.060   0.545   9.899 -0.0435  0.3267  0.1416
  106OSM    H3F10881   3.147   0.477   9.884 -0.2102 -0.2802  1.7586
  106OSM    H3G10882   3.094   0.648   9.920 -0.4459  0.8138 -1.5330
  106OSM    C4F10883   3.000   0.518   9.759 -0.7167  0.8799  0.5333
  106OSM    H4F10884   2.895   0.553   9.763 -1.4732 -0.9291 -2.5679
  106OSM    H4G10885   3.001   0.410   9.733  1.0005  1.2728 -1.1611
  106OSM    C5F10886   3.056   0.582   9.635 -0.2898 -0.4176 -0.7062
  106OSM    H5F10887   3.037   0.518   9.547 -0.4229 -0.7997 -0.4027
  106OSM    H5G10888   3.167   0.596   9.633 -0.6564  2.5638 -2.2796
  106OSM    C6F10889   2.994   0.722   9.604 -0.2262 -1.1510  0.3686
  106OSM    H6F10890   3.019   0.799   9.681 -0.3132 -1.9293  1.1876
  106OSM    H6G10891   2.885   0.722   9.623 -0.3199 -2.0824 -0.1390
  106OSM    C7F10892   3.017   0.768   9.459 -0.3301 -0.3617 -0.3206
  106OSM    H7F10893   3.126   0.753   9.441  0.4174  2.6495  1.2208
  106OSM    H7G10894   2.992   0.877   9.457 -1.8453 -0.6981 -0.1778
  106OSM    C8F10895   2.908   0.707   9.360 -0.6436 -0.2157  0.4802
  106OSM    H8F10896   2.812   0.752   9.392  0.6998  2.3300  1.0580
  106OSM    H8G10897   2.912   0.600   9.391  0.4027 -0.3553 -0.1216
  106OSM    C9F10898   2.927   0.735   9.211 -0.5278 -0.5182  0.6192
  106OSM    H9F10899   2.914   0.840   9.183  0.1505 -0.9120 -1.2460
  106OSM   C10F10900   2.978   0.645   9.125 -0.1689 -0.6802  0.3017
  106OSM   H10F10901   2.990   0.681   9.022 -0.8738 -4.3871 -1.1515
  106OSM   C11F10902   3.021   0.505   9.139 -0.1587  0.6922 -0.0946
  106OSM   H11F10903   2.937   0.435   9.117 -1.0621  1.2492  1.4836
  106OSM   H11G10904   3.045   0.484   9.246  2.1563 -0.7267 -0.8615
  106OSM   C12F10905   3.133   0.450   9.052  0.9570  0.6335  0.0075
  106OSM   H12F10906   3.226   0.490   9.098  0.2023  0.4594  1.7084
  106OSM   H12G10907   3.114   0.484   8.948 -0.9339  1.0372  0.4805
  106OSM   C13F10908   3.129   0.295   9.051  0.7646  0.0979 -0.1750
  106OSM   H13F10909   3.025   0.265   9.023  0.4182 -0.0445  1.2355
  106OSM   H13G10910   3.146   0.269   9.157  2.1085  1.1841 -0.1135
  106OSM   C14F10911   3.233   0.227   8.969 -0.1064  0.4174 -0.0300
  106OSM   H14F10912   3.339   0.241   8.999  0.3422 -1.8212 -0.4629
  106OSM   H14G10913   3.225   0.251   8.860 -1.8364  0.2385  0.0437
  106OSM   C15F10914   3.205   0.077   8.974 -0.6656 -0.0191  0.3827
  106OSM   H15F10915   3.098   0.049   8.970 -0.4387 -0.9627  0.8361
  106OSM   H15G10916   3.244   0.041   9.071  1.8289 -2.3524 -1.4250
  106OSM   C16F10917   3.281   0.002   8.861  0.2709  0.5609  0.1789
  106OSM   H16F10918   3.388  -0.006   8.889  0.5082 -1.0485 -1.1298
  106OSM   H16G10919   3.262   0.060   8.768  1.9688  0.7338 -0.0880
  106OSM   C17F10920   3.234  -0.143   8.839  0.1781  0.2855  0.1419
  106OSM   H17F10921   3.125  -0.142   8.856 -0.0685  2.2624 -1.3102
  106OSM   H17G10922   3.269  -0.215   8.916 -1.7343  0.7651  1.4927
  106OSM   C18F10923   3.257  -0.205   8.702 -0.6161  1.0661 -0.4419
  106OSM   H18F10924   3.236  -0.135   8.618 -2.7422 -0.0792 -0.8948
  106OSM   H18G10925   3.188  -0.290   8.683 -1.0175  0.8093  2.0192
  106OSM   H18H10926   3.359  -0.243   8.678 -0.7607  1.0314 -1.0207
  107OSM      N10927   3.410   4.593  10.993 -0.2808 -0.0667  0.3563
  107OSM    C1510928   3.393   4.514  10.871  0.3363  0.6243  0.9200
  107OSM   H15A10929   3.493   4.496  10.835  0.0922 -0.8986  0.9918
  107OSM   H15B10930   3.334   4.557  10.792  0.5413 -5.2150 -2.6597
  107OSM   H15C10931   3.348   4.418  10.888  0.6988 -0.3249 -3.0290
  107OSM    C1410932   3.285   4.605  11.074 -0.2559 -0.7408  0.0031
  107OSM   H14A10933   3.288   4.690  11.141 -0.0181  0.6231 -1.6998
  107OSM   H14B10934   3.270   4.510  11.123 -1.4788 -1.3844 -1.5901
  107OSM   H14C10935   3.199   4.614  11.010  0.2880  0.5990 -0.5640
  107OSM    C1310936   3.514   4.523  11.075 -0.1320  0.4679 -0.8348
  107OSM   H13A10937   3.564   4.586  11.148  0.1556  1.3319 -1.7652
  107OSM   H13B10938   3.594   4.471  11.025  0.4155  0.0008  0.4981
  107OSM   H13C10939   3.461   4.450  11.135  1.9728  2.4459  3.7120
  107OSM    C1210940   3.456   4.738  10.959 -0.1774  0.1768 -0.1673
  107OSM   H12A10941   3.483   4.787  11.051  2.3413 -2.0339  0.3364
  107OSM   H12B10942   3.373   4.794  10.917  0.1911  0.0170 -1.1295
  107OSM    C1110943   3.572   4.762  10.857  0.6793  0.2287  0.1244
  107OSM   H11A10944   3.579   4.871  10.840  2.6844 -0.3375 -3.1492
  107OSM   H11B10945   3.546   4.719  10.758  1.3647 -2.1706  0.9510
  107OSM      P10946   3.790   4.792  10.987 -0.0012  0.6837  0.2839
  107OSM    O1310947   3.710   4.869  11.082 -0.2714 -0.4023 -0.3701
  107OSM    O1410948   3.908   4.724  11.038  0.1440  1.0437 -0.1386
  107OSM    O1110949   3.839   4.892  10.876 -0.2692 -0.4464 -0.3612
  107OSM    O1210950   3.694   4.699  10.904 -0.2960 -0.9663  0.3179
  107OSM    C1S10951   3.926   4.838  10.771 -0.4372 -0.1771  1.0330
  107OSM    H1S10952   3.985   4.747  10.793  1.2354 -0.1186 -2.7030
  107OSM    H1T10953   4.011   4.908  10.754  0.3033 -1.0300  1.2073
  107OSM     NF10954   3.951   4.737  10.550  0.7035  0.7201 -0.2927
  107OSM    HNF10955   4.020   4.796  10.508 -0.4089  1.8863 -0.4916
  107OSM    C2S10956   3.854   4.802  10.636 -0.2162  0.6172 -0.3816
  107OSM    H2S10957   3.764   4.742  10.662 -0.9103  1.4052 -0.9614
  107OSM    C3S10958   3.802   4.934  10.571  0.2526  0.4996  0.1338
  107OSM    H3S10959   3.876   5.017  10.574 -0.6418  1.3748 -1.2065
  107OSM     O310960   3.686   4.998  10.632  0.5355  0.0014  0.5375
  107OSM    HO310961   3.675   4.963  10.720  2.0903 -1.3788  0.2037
  107OSM    C4S10962   3.764   4.919  10.418  0.5118 -0.0011  0.4982
  107OSM    H4S10963   3.674   4.858  10.404  2.4937 -2.7760 -0.6571
  107OSM    C5S10964   3.839   4.958  10.309  0.0859  0.5525 -0.6129
  107OSM    H5S10965   3.926   5.017  10.340  0.2216 -0.8007  1.7384
  107OSM    C6S10966   3.817   4.951  10.159 -0.0826 -0.0132  0.3012
  107OSM    H6S10967   3.804   5.058  10.131  1.6441  0.5467  1.5861
  107OSM    H6T10968   3.719   4.903  10.138  0.6164 -1.5885  0.5620
  107OSM    C7S10969   3.945   4.885  10.090 -0.0675  0.2424 -0.7397
  107OSM    H7S10970   3.961   4.784  10.133 -0.6196  1.3178  2.0958
  107OSM    H7T10971   4.036   4.945  10.112  0.6027 -0.6585 -0.9934
  107OSM    C8S10972   3.929   4.878   9.940 -0.0843  0.5385  0.0294
  107OSM    H8S10973   3.839   4.817   9.916  0.3678 -1.0328  2.1841
  107OSM    H8T10974   4.018   4.833   9.892  0.9841  3.0871 -0.4501
  107OSM    C9S10975   3.916   5.010   9.860  0.1211 -0.1254 -0.0078
  107OSM    H9S10976   4.019   5.050   9.868  0.2860 -0.7751  1.2213
  107OSM    H9T10977   3.848   5.086   9.904 -2.4327 -2.1252 -0.3800
  107OSM   C10S10978   3.864   4.985   9.719  0.1799 -0.1819  0.2931
  107OSM   H10S10979   3.797   5.070   9.696  0.1537 -0.3104 -0.1029
  107OSM   H10T10980   3.793   4.900   9.728 -0.2968  0.0762 -0.9648
  107OSM   C11S10981   3.972   4.955   9.611 -0.2420  0.2512  0.4043
  107OSM   H11S10982   4.037   4.880   9.661 -0.1315  0.9886  1.3843
  107OSM   H11T10983   4.033   5.043   9.580  1.2139 -0.7578  0.3704
  107OSM   C12S10984   3.926   4.885   9.489 -0.0917 -0.1761 -0.3995
  107OSM   H12S10985   3.855   4.946   9.430 -0.3956  0.2950  0.4386
  107OSM   H12T10986   3.875   4.791   9.519  1.3976 -0.2833  1.9072
  107OSM   C13S10987   4.041   4.828   9.399 -0.5643  0.4705  0.2340
  107OSM   H13S10988   3.990   4.751   9.336  1.9255 -0.8385 -0.2265
  107OSM   H13T10989   4.118   4.778   9.462  0.4477 -0.3115 -1.6044
  107OSM   C14S10990   4.105   4.940   9.308 -0.8462  0.5956 -0.1319
  107OSM   H14S10991   4.131   5.019   9.382 -1.8294  0.2006  0.6491
  107OSM   H14T10992   4.039   4.979   9.227 -1.3776 -1.2906 -0.6259
  107OSM   C15S10993   4.243   4.890   9.249  0.7447  0.3334 -0.1880
  107OSM   H15S10994   4.276   4.972   9.180  1.1228  0.7349  0.4626
  107OSM   H15T10995   4.228   4.798   9.188 -0.1781  0.4532 -0.1482
  107OSM   C16S10996   4.361   4.890   9.345 -0.4624 -0.0349  0.2186
  107OSM   H16S10997   4.345   4.827   9.436  0.2922 -1.3979 -0.5618
  107OSM   H16T10998   4.378   4.988   9.394 -0.1536 -0.4584  0.9679
  107OSM   C17S10999   4.491   4.833   9.291  0.0123 -0.6823 -0.0535
  107OSM   H17S11000   4.586   4.869   9.336 -1.2399  3.1511 -0.2742
  107OSM   H17T11001   4.477   4.879   9.190 -2.1732  3.1409  1.8825
  107OSM   C18S11002   4.495   4.677   9.299 -0.0517  0.1022 -0.0338
  107OSM   H18S11003   4.414   4.639   9.234 -0.0554 -0.2789  0.1948
  107OSM   H18T11004   4.476   4.631   9.399 -3.4619  1.2194 -0.1082
  107OSM   H18U11005   4.592   4.647   9.255 -0.0080  1.0507 -0.6069
  107OSM    C1F11006   3.984   4.604  10.567 -0.5005 -0.6342 -0.0541
  107OSM     OF11007   3.928   4.534  10.653 -0.2198  0.1095  0.0394
  107OSM    C2F11008   4.099   4.562  10.483 -0.3509 -0.6631  0.1858
  107OSM    H2F11009   4.192   4.556  10.543 -0.8959  0.2959  1.1516
  107OSM    H2G11010   4.105   4.636  10.401  1.4730 -0.1664  0.7495
  107OSM    C3F11011   4.064   4.415  10.434 -0.1021  0.3148 -0.8236
  107OSM    H3F11012   3.960   4.411  10.395 -0.7102  0.1056  0.7759
  107OSM    H3G11013   4.065   4.346  10.521 -0.9176  0.3494 -0.7875
  107OSM    C4F11014   4.161   4.354  10.331 -0.7158  0.6929  0.0899
  107OSM    H4F11015   4.165   4.244  10.315  0.7311  0.5144  1.5837
  107OSM    H4G11016   4.265   4.383  10.358 -0.9220  0.1372  1.4939
  107OSM    C5F11017   4.145   4.422  10.192  0.0861  0.1255  0.2628
  107OSM    H5F11018   4.130   4.532  10.187 -0.2223  0.0331 -1.0098
  107OSM    H5G11019   4.046   4.384  10.158  0.0296 -0.4205  1.0336
  107OSM    C6F11020   4.246   4.375  10.089  0.0408 -0.1052  0.4714
  107OSM    H6F11021   4.218   4.271  10.058 -0.9051 -0.1881  1.5555
  107OSM    H6G11022   4.349   4.373  10.129  0.1588  0.0870  0.1742
  107OSM    C7F11023   4.251   4.477   9.979 -0.5102 -0.8355  0.2069
  107OSM    H7F11024   4.340   4.458   9.916  0.4574  3.1920  0.2477
  107OSM    H7G11025   4.249   4.584  10.010  1.8642 -0.4353 -0.9562
  107OSM    C8F11026   4.134   4.452   9.877 -0.7878 -0.1851 -0.7391
  107OSM    H8F11027   4.042   4.477   9.934 -0.6387  1.6983 -1.2977
  107OSM    H8G11028   4.124   4.344   9.851 -1.2160  0.0670 -1.6521
  107OSM    C9F11029   4.139   4.539   9.753 -0.4972 -0.2438  0.8232
  107OSM    H9F11030   4.094   4.640   9.754 -1.9217 -0.7813 -2.9306
  107OSM   C10F11031   4.190   4.497   9.636 -0.5010  0.3063 -0.0955
  107OSM   H10F11032   4.201   4.565   9.551  1.3770  0.2675  0.1010
  107OSM   C11F11033   4.258   4.368   9.614  0.1630  0.3695  0.3725
  107OSM   H11F11034   4.223   4.277   9.667  1.2683 -0.7544 -0.7970
  107OSM   H11G11035   4.365   4.373   9.643  0.5372 -2.0636 -0.4552
  107OSM   C12F11036   4.244   4.324   9.466 -0.4531  0.2237  0.8749
  107OSM   H12F11037   4.277   4.412   9.407  0.1692 -0.4096  0.2629
  107OSM   H12G11038   4.139   4.306   9.437 -0.5937  0.3784  1.2949
  107OSM   C13F11039   4.333   4.202   9.426 -0.2672 -0.7999 -0.1131
  107OSM   H13F11040   4.293   4.111   9.476 -1.1585 -1.0440 -1.2444
  107OSM   H13G11041   4.440   4.212   9.452 -0.3115 -0.4927 -0.0454
  107OSM   C14F11042   4.344   4.178   9.272  0.4826 -0.1247 -0.1072
  107OSM   H14F11043   4.375   4.273   9.223  2.0278  1.1821  3.2223
  107OSM   H14G11044   4.243   4.151   9.234  0.2057 -3.1015  2.5120
  107OSM   C15F11045   4.441   4.059   9.242 -0.2512  0.1311  0.0773
  107OSM   H15F11046   4.384   3.973   9.284 -0.8028  0.0031 -0.9215
  107OSM   H15G11047   4.531   4.077   9.304 -1.0041  2.3645  0.5796
  107OSM   C16F11048   4.470   4.017   9.101  0.1988 -0.1867 -0.0444
  107OSM   H16F11049   4.565   4.068   9.074  0.2834 -0.5582 -0.4450
  107OSM   H16G11050   4.399   4.059   9.026  1.0805 -1.0810 -1.4026
  107OSM   C17F11051   4.490   3.862   9.073  0.2349  0.0176  0.5427
  107OSM   H17F11052   4.401   3.800   9.098  1.9233 -2.6830  0.0717
  107OSM   H17G11053   4.566   3.833   9.148  2.0784 -1.6791 -1.9155
  107OSM   C18F11054   4.525   3.837   8.926  0.1840  0.1910 -0.0302
  107OSM   H18F11055   4.439   3.812   8.860 -0.3521 -0.0837  0.7652
  107OSM   H18G11056   4.585   3.744   8.933  1.1149  0.8358  0.5959
  107OSM   H18H11057   4.597   3.909   8.882  0.8437 -0.5759 -0.2179
  108OSM      N11058   0.871   1.879  10.902 -0.1822  0.3388 -0.1202
  108OSM    C1511059   0.876   1.732  10.891 -0.3743 -0.2075 -0.6254
  108OSM   H15A11060   0.961   1.702  10.831  1.2894 -0.5858  1.8337
  108OSM   H15B11061   0.790   1.682  10.848  0.5601 -1.7980 -0.6833
  108OSM   H15C11062   0.902   1.685  10.985  2.2486  1.9902 -0.2024
  108OSM    C1411063   0.991   1.937  10.959 -0.6489  0.8811  0.0728
  108OSM   H14A11064   0.989   2.045  10.958 -0.7453  0.9012  1.2845
  108OSM   H14B11065   1.084   1.907  10.913 -0.1566  1.4695  0.6712
  108OSM   H14C11066   1.013   1.910  11.061 -0.7116 -1.7259 -0.5624
  108OSM    C1311067   0.854   1.945  10.771 -0.2351 -0.3009 -0.5979
  108OSM   H13A11068   0.853   2.053  10.782  2.0747 -0.3532  0.3667
  108OSM   H13B11069   0.763   1.916  10.722  0.9005 -1.2106 -2.2036
  108OSM   H13C11070   0.932   1.922  10.700  0.2696  0.0147 -0.1523
  108OSM    C1211071   0.758   1.922  10.992 -0.5177  0.0434 -0.0925
  108OSM   H12A11072   0.799   1.892  11.087 -0.3836 -2.7313 -0.9672
  108OSM   H12B11073   0.671   1.860  10.974 -0.6082 -0.0638  0.6974
  108OSM    C1111074   0.704   2.071  10.994 -0.1732 -0.0693  0.1301
  108OSM   H11A11075   0.789   2.142  11.007 -1.1095  1.3968 -1.4681
  108OSM   H11B11076   0.643   2.073  11.087 -2.4793  0.3823 -1.3651
  108OSM      P11077   0.504   2.042  10.836  0.2632  0.5701  0.0890
  108OSM    O1311078   0.515   1.985  10.702 -0.2336  0.1633 -0.2077
  108OSM    O1411079   0.460   1.953  10.951 -0.1126 -0.4387  0.5581
  108OSM    O1111080   0.404   2.158  10.842 -0.1658  0.0122 -0.6786
  108OSM    O1211081   0.636   2.113  10.880 -0.2812 -0.2786 -0.2121
  108OSM    C1S11082   0.424   2.289  10.783  0.0856 -0.8540  0.0506
  108OSM    H1S11083   0.522   2.337  10.805  0.1824 -0.9507 -0.1774
  108OSM    H1T11084   0.360   2.361  10.839 -0.3426 -0.5076 -0.8717
  108OSM     NF11085   0.422   2.419  10.573 -0.2254  0.6902 -0.0181
  108OSM    HNF11086   0.349   2.488  10.573 -0.7686  0.1210  0.4642
  108OSM    C2S11087   0.378   2.292  10.634  0.4500  0.0281 -1.1612
  108OSM    H2S11088   0.424   2.211  10.573  1.5177 -0.9401  0.8801
  108OSM    C3S11089   0.225   2.268  10.627 -0.3228  0.6501 -0.0829
  108OSM    H3S11090   0.176   2.360  10.667  0.1733  0.9994 -0.2817
  108OSM     O311091   0.181   2.156  10.700 -0.1347  0.3730  0.8249
  108OSM    HO311092   0.259   2.131  10.749 -1.4091 -0.4470  2.5164
  108OSM    C4S11093   0.174   2.270  10.480 -0.3195 -0.4968 -0.0366
  108OSM    H4S11094   0.224   2.186  10.430 -0.5057 -1.7371  1.8255
  108OSM    C5S11095   0.083   2.351  10.419  0.0112  0.2834  0.6477
  108OSM    H5S11096   0.036   2.430  10.480  1.4128  0.7818  1.1010
  108OSM    C6S11097   0.035   2.333  10.280  0.5073  0.2180  0.0981
  108OSM    H6S11098   0.033   2.430  10.225  0.7680  0.6227  0.7969
  108OSM    H6T11099  -0.068   2.291  10.277  0.7793 -0.3584 -1.8707
  108OSM    C7S11100   0.105   2.233  10.190  0.6433  0.1122  0.5489
  108OSM    H7S11101   0.118   2.134  10.238  1.4314  0.0225  0.1773
  108OSM    H7T11102   0.209   2.273  10.182  1.4051 -1.7050  1.0251
  108OSM    C8S11103   0.044   2.213  10.049  0.1997  0.7484  0.3683
  108OSM    H8S11104   0.019   2.312  10.004 -2.1733  0.6819  1.4275
  108OSM    H8T11105  -0.055   2.165  10.063  0.4454 -0.1274 -0.8966
  108OSM    C9S11106   0.118   2.133   9.940 -0.1791 -0.1811 -0.0708
  108OSM    H9S11107   0.141   2.032   9.980 -1.2087 -0.6337 -0.5876
  108OSM    H9T11108   0.221   2.166   9.914  0.4259 -1.9899  0.0095
  108OSM   C10S11109   0.034   2.123   9.813  0.7326 -0.2849  1.1386
  108OSM   H10S11110  -0.000   2.216   9.762 -0.4418 -1.4127 -0.1487
  108OSM   H10T11111  -0.056   2.063   9.835 -0.2022  0.1408 -1.3701
  108OSM   C11S11112   0.109   2.035   9.711 -0.0043  0.0463  0.4379
  108OSM   H11S11113   0.102   1.931   9.751  1.8856  0.6135  2.3869
  108OSM   H11T11114   0.218   2.057   9.710 -0.4097  2.1503  0.3997
  108OSM   C12S11115   0.058   2.042   9.567 -0.0866  0.0441  0.2512
  108OSM   H12S11116   0.106   1.954   9.520  0.0812 -0.2333  0.9271
  108OSM   H12T11117   0.090   2.133   9.512 -2.1258  0.7884  0.2561
  108OSM   C13S11118  -0.096   2.019   9.556  0.3013  0.2096 -0.0181
  108OSM   H13S11119  -0.151   2.093   9.618  0.7596  0.2083  0.3923
  108OSM   H13T11120  -0.112   1.924   9.611 -0.5060 -0.8462 -2.0303
  108OSM   C14S11121  -0.154   2.017   9.418  0.2342 -0.2771  0.4749
  108OSM   H14S11122  -0.067   2.000   9.351  0.9347  0.9307  1.0623
  108OSM   H14T11123  -0.193   2.115   9.384  0.4614 -0.8586 -1.5752
  108OSM   C15S11124  -0.269   1.908   9.401 -0.3303  0.2314 -0.1436
  108OSM   H15S11125  -0.359   1.949   9.451 -0.4391  2.0367 -1.7562
  108OSM   H15T11126  -0.227   1.819   9.451  2.4034  1.2591 -0.5575
  108OSM   C16S11127  -0.302   1.884   9.252 -0.7043 -1.1565 -0.5877
  108OSM   H16S11128  -0.207   1.841   9.213 -0.2716 -0.9848  0.2560
  108OSM   H16T11129  -0.300   1.979   9.194  3.4280 -0.2684  0.7998
  108OSM   C17S11130  -0.425   1.798   9.221 -0.6347  0.6844 -0.2492
  108OSM   H17S11131  -0.510   1.827   9.287  0.7777  1.6756  1.1859
  108OSM   H17T11132  -0.392   1.695   9.245 -1.2775  0.3901 -0.6222
  108OSM   C18S11133  -0.465   1.786   9.080  0.2028  0.1289  0.0047
  108OSM   H18S11134  -0.485   1.885   9.034  1.6101  0.5779  0.3281
  108OSM   H18T11135  -0.558   1.725   9.081 -0.2465  0.7443  4.1055
  108OSM   H18U11136  -0.382   1.739   9.023 -0.3139 -1.2213  0.3339
  108OSM    C1F11137   0.542   2.445  10.536  0.3512  0.1909  0.0184
  108OSM     OF11138   0.624   2.352  10.543 -0.0853  0.7255  0.0027
  108OSM    C2F11139   0.573   2.593  10.498  0.0656 -0.3270  0.3958
  108OSM    H2F11140   0.627   2.634  10.586 -2.8445  0.9161  1.6451
  108OSM    H2G11141   0.477   2.645  10.479  0.8246  0.9888  0.0997
  108OSM    C3F11142   0.657   2.625  10.375 -0.0698  0.5985 -0.0190
  108OSM    H3F11143   0.757   2.580  10.394  0.2963  1.2680 -0.3454
  108OSM    H3G11144   0.677   2.733  10.391 -1.2435  1.2985 -2.8246
  108OSM    C4F11145   0.607   2.579  10.238 -0.1708 -0.1113 -0.0659
  108OSM    H4F11146   0.515   2.631  10.202 -0.4898 -1.3139 -1.0013
  108OSM    H4G11147   0.596   2.469  10.249 -2.0100  0.2764  2.3645
  108OSM    C5F11148   0.708   2.602  10.123 -0.7376  0.2169 -0.2929
  108OSM    H5F11149   0.797   2.537  10.136 -0.7802 -0.0560 -1.2959
  108OSM    H5G11150   0.741   2.708  10.121 -1.8225  0.5543 -1.4737
  108OSM    C6F11151   0.650   2.573   9.980  0.0600 -0.3778 -0.6958
  108OSM    H6F11152   0.577   2.656   9.973  1.9727  1.2793 -1.4488
  108OSM    H6G11153   0.599   2.474   9.986 -0.1139 -0.1462  2.1677
  108OSM    C7F11154   0.761   2.599   9.869 -0.2976  0.5134  0.2092
  108OSM    H7F11155   0.833   2.518   9.893 -3.1445 -1.8914  0.9627
  108OSM    H7G11156   0.793   2.705   9.877  0.3083  0.2015  2.3785
  108OSM    C8F11157   0.693   2.575   9.738  0.6808  0.2387  0.3838
  108OSM    H8F11158   0.615   2.654   9.733 -1.4994 -1.8682  0.2423
  108OSM    H8G11159   0.644   2.476   9.725  1.3932  0.3014 -3.3592
  108OSM    C9F11160   0.809   2.595   9.642  0.2211 -0.0428 -0.7968
  108OSM    H9F11161   0.905   2.625   9.687 -0.7832  0.2895  1.1818
  108OSM   C10F11162   0.798   2.576   9.511 -0.1300  1.0729  0.6155
  108OSM   H10F11163   0.885   2.598   9.448 -0.9211  0.5693 -0.6688
  108OSM   C11F11164   0.667   2.537   9.440 -0.8177  0.1762 -0.5688
  108OSM   H11F11165   0.575   2.568   9.494 -1.0113 -1.3005 -0.0078
  108OSM   H11G11166   0.672   2.428   9.417  1.5979  0.4707 -1.5656
  108OSM   C12F11167   0.678   2.621   9.315  0.4895 -0.0038  1.0231
  108OSM   H12F11168   0.777   2.625   9.264 -0.1391  0.6933 -0.1679
  108OSM   H12G11169   0.661   2.728   9.337 -0.5732  0.1003 -0.1990
  108OSM   C13F11170   0.569   2.582   9.218 -0.0481  0.0341  0.1111
  108OSM   H13F11171   0.471   2.618   9.256 -0.5409  1.0002 -2.0341
  108OSM   H13G11172   0.578   2.471   9.222 -2.5127 -0.3507 -2.9033
  108OSM   C14F11173   0.588   2.636   9.079 -0.2352  0.4114  1.0599
  108OSM   H14F11174   0.692   2.615   9.048 -0.1834  0.4418  1.2130
  108OSM   H14G11175   0.584   2.746   9.066 -0.8930  0.5639  2.4197
  108OSM   C15F11176   0.508   2.557   8.970  0.1568  1.0258 -0.3919
  108OSM   H15F11177   0.402   2.553   9.004  0.8608  0.5840  1.8154
  108OSM   H15G11178   0.546   2.452   8.968  2.1047  1.6602  1.3877
  108OSM   C16F11179   0.516   2.606   8.822 -0.4254 -0.2192  0.9172
  108OSM   H16F11180   0.546   2.712   8.822  1.1899 -0.6179 -1.5118
  108OSM   H16G11181   0.418   2.590   8.771  1.0485 -1.7736 -1.5844
  108OSM   C17F11182   0.619   2.515   8.748  1.0541 -0.6581  0.0742
  108OSM   H17F11183   0.696   2.486   8.822 -1.0845 -0.2736  2.4998
  108OSM   H17G11184   0.673   2.569   8.667  3.3953 -2.2563  0.4997
  108OSM   C18F11185   0.563   2.378   8.697 -0.0672 -0.0810 -0.1563
  108OSM   H18F11186   0.639   2.298   8.681 -0.2516 -0.8495  2.5611
  108OSM   H18G11187   0.511   2.400   8.601  1.1950  0.7808 -0.6551
  108OSM   H18H11188   0.489   2.347   8.773 -1.2444  1.5318 -0.6248
  109OSM      N11189   0.387   3.161  11.187 -0.5545  0.3798 -0.2064
  109OSM    C1511190   0.442   3.264  11.271 -0.6030 -0.2959  0.4561
  109OSM   H15A11191   0.517   3.221  11.335 -0.5235 -1.2677 -0.2808
  109OSM   H15B11192   0.378   3.313  11.342  0.3065 -0.9841  1.7652
  109OSM   H15C11193   0.485   3.335  11.201 -1.7090 -0.0154  0.0492
  109OSM    C1411194   0.487   3.077  11.110  1.2461 -0.4128  0.0161
  109OSM   H14A11195   0.440   3.022  11.031  1.5721 -0.4158 -0.1769
  109OSM   H14B11196   0.527   3.008  11.182 -1.2140 -1.8960  0.0013
  109OSM   H14C11197   0.569   3.129  11.062  1.3006  3.4130  3.9166
  109OSM    C1311198   0.310   3.059  11.272  0.8711 -0.1805 -0.1588
  109OSM   H13A11199   0.383   3.020  11.341  1.0690 -0.0774 -0.3066
  109OSM   H13B11200   0.276   2.985  11.201 -0.9901  0.8814 -0.4187
  109OSM   H13C11201   0.228   3.111  11.321  0.4970 -2.6709  1.9269
  109OSM    C1211202   0.283   3.223  11.103 -0.6901 -0.3704 -0.7406
  109OSM   H12A11203   0.208   3.278  11.157  0.8786  0.1546  0.9347
  109OSM   H12B11204   0.227   3.140  11.062 -1.2738 -0.3580  0.0228
  109OSM    C1111205   0.330   3.305  10.990 -0.3603 -0.3800  0.0832
  109OSM   H11A11206   0.384   3.236  10.921  0.9176 -0.4428  1.1098
  109OSM   H11B11207   0.403   3.379  11.031 -2.4489  1.0483  1.2917
  109OSM      P11208   0.121   3.307  10.816 -0.4253 -0.0274 -0.2051
  109OSM    O1311209   0.179   3.170  10.784 -0.4984 -0.3346  0.3579
  109OSM    O1411210  -0.019   3.326  10.868  0.5502  0.2947  0.2140
  109OSM    O1111211   0.141   3.400  10.693  0.5513  0.1777 -0.6104
  109OSM    O1211212   0.223   3.369  10.921 -0.1083  0.1285 -0.1414
  109OSM    C1S11213   0.275   3.449  10.669  0.5411  0.0068  0.3027
  109OSM    H1S11214   0.355   3.382  10.706 -0.5888 -1.4429  0.1726
  109OSM    H1T11215   0.294   3.541  10.729 -3.4457  0.3108  1.2626
  109OSM     NF11216   0.441   3.509  10.489 -0.2772 -0.1347  0.3413
  109OSM    HNF11217   0.468   3.604  10.476 -0.7378 -0.3888 -3.1591
  109OSM    C2S11218   0.300   3.478  10.519  0.2555 -0.6601  0.1847
  109OSM    H2S11219   0.277   3.388  10.459 -0.2261 -0.4683  0.0853
  109OSM    C3S11220   0.203   3.591  10.481  0.1267  0.5663  0.2774
  109OSM    H3S11221   0.238   3.679  10.539 -0.6867  0.9180  0.2410
  109OSM     O311222   0.060   3.569  10.502  0.5501  0.1403 -0.5792
  109OSM    HO311223   0.067   3.498  10.566 -0.1251  0.4913 -0.1118
  109OSM    C4S11224   0.219   3.644  10.339 -0.9855 -0.2152  0.8504
  109OSM    H4S11225   0.297   3.722  10.338  0.3363 -1.5041 -1.3926
  109OSM    C5S11226   0.165   3.599  10.227 -0.0074  0.4548  0.2208
  109OSM    H5S11227   0.098   3.513  10.227  0.1599  0.2374  3.7655
  109OSM    C6S11228   0.196   3.667  10.094 -0.4837  0.1040 -0.0698
  109OSM    H6S11229   0.160   3.772  10.091 -0.8531 -0.0150  0.1642
  109OSM    H6T11230   0.137   3.606  10.023  1.2378 -0.3760 -1.1187
  109OSM    C7S11231   0.344   3.651  10.053  0.5505  0.2702  0.3257
  109OSM    H7S11232   0.367   3.543  10.060  1.1564  0.2303 -1.9118
  109OSM    H7T11233   0.408   3.709  10.124  2.9195 -0.6908 -0.9592
  109OSM    C8S11234   0.377   3.692   9.906 -0.1173  0.0472 -0.2350
  109OSM    H8S11235   0.476   3.662   9.865  0.6815  2.4569 -0.1652
  109OSM    H8T11236   0.394   3.802   9.913  1.5784 -0.1864 -0.4184
  109OSM    C9S11237   0.265   3.655   9.813 -0.3987 -0.1031 -0.3367
  109OSM    H9S11238   0.172   3.711   9.835  0.1179  0.0038  1.7316
  109OSM    H9T11239   0.245   3.546   9.821  1.7280 -0.3995  1.5474
  109OSM   C10S11240   0.307   3.686   9.667 -0.0294  0.2838 -0.8185
  109OSM   H10S11241   0.403   3.633   9.649  1.1176  1.5223  1.4223
  109OSM   H10T11242   0.314   3.794   9.645 -1.4509 -0.0642 -3.1372
  109OSM   C11S11243   0.203   3.623   9.567  0.4387  0.4952 -0.6966
  109OSM   H11S11244   0.119   3.689   9.596  1.4001  0.3829  2.5432
  109OSM   H11T11245   0.174   3.518   9.589  1.2246  0.2650 -0.7313
  109OSM   C12S11246   0.240   3.644   9.420 -0.6602 -0.0811 -0.5697
  109OSM   H12S11247   0.337   3.594   9.398 -0.8227  0.7531 -3.3863
  109OSM   H12T11248   0.259   3.751   9.393 -1.3572 -0.1766 -1.4386
  109OSM   C13S11249   0.131   3.595   9.327  0.1203 -0.6093 -0.1891
  109OSM   H13S11250   0.035   3.646   9.349  0.7509 -0.0196  1.2472
  109OSM   H13T11251   0.133   3.485   9.341  1.5509 -0.6059 -0.2974
  109OSM   C14S11252   0.163   3.614   9.176  0.4157 -0.1356  0.2365
  109OSM   H14S11253   0.179   3.724   9.162  2.9201 -0.9169 -3.8910
  109OSM   H14T11254   0.086   3.582   9.103 -0.4016 -0.0042  1.0294
  109OSM   C15S11255   0.294   3.560   9.130 -0.5021  0.2257 -0.2733
  109OSM   H15S11256   0.284   3.452   9.153 -1.1379  0.3855  0.2084
  109OSM   H15T11257   0.373   3.601   9.196 -0.8203 -0.3996  0.5074
  109OSM   C16S11258   0.329   3.573   8.984  0.1063  0.3450  0.2405
  109OSM   H16S11259   0.437   3.552   8.975  0.3264  1.9517 -1.3086
  109OSM   H16T11260   0.322   3.678   8.947  1.2960  0.8335  1.4036
  109OSM   C17S11261   0.258   3.467   8.897 -0.1668 -0.4375 -0.7553
  109OSM   H17S11262   0.274   3.483   8.789 -0.9639 -0.1891 -0.8414
  109OSM   H17T11263   0.148   3.460   8.899 -0.4872  3.6380  0.6007
  109OSM   C18S11264   0.319   3.331   8.924 -0.0290  0.5438  0.7403
  109OSM   H18S11265   0.321   3.286   9.026  1.4524 -0.6020  0.2248
  109OSM   H18T11266   0.419   3.326   8.877 -1.8647 -1.5398 -3.1852
  109OSM   H18U11267   0.260   3.268   8.854  0.1783  0.9806  0.1649
  109OSM    C1F11268   0.537   3.414  10.485  0.5397  0.5238 -0.2980
  109OSM     OF11269   0.505   3.297  10.507  0.0300  0.1127  0.2021
  109OSM    C2F11270   0.676   3.455  10.434 -0.3274  0.0329  0.1095
  109OSM    H2F11271   0.680   3.565  10.441  0.2748  0.0524 -0.4639
  109OSM    H2G11272   0.682   3.425  10.327  1.5342  0.8619 -0.0484
  109OSM    C3F11273   0.794   3.396  10.516 -0.1216 -0.2132  0.1996
  109OSM    H3F11274   0.811   3.288  10.501  1.0079 -0.3818  2.4904
  109OSM    H3G11275   0.779   3.402  10.626  0.0668 -0.4412  0.2342
  109OSM    C4F11276   0.923   3.469  10.479 -0.0194 -0.6599  0.2316
  109OSM    H4F11277   0.997   3.407  10.534 -1.6673 -2.4671  0.4522
  109OSM    H4G11278   0.913   3.565  10.534 -0.6509 -0.0265 -0.9621
  109OSM    C5F11279   0.958   3.472  10.331  0.5456 -0.3828  0.2434
  109OSM    H5F11280   0.869   3.507  10.273  1.8179 -0.7139 -1.9593
  109OSM    H5G11281   0.967   3.365  10.304 -1.8820 -0.6014  0.1564
  109OSM    C6F11282   1.076   3.562  10.298  0.2062  0.0076 -0.7454
  109OSM    H6F11283   1.052   3.667  10.324 -1.8376 -0.2506 -1.4768
  109OSM    H6G11284   1.095   3.554  10.189  0.5094 -0.1884 -0.6779
  109OSM    C7F11285   1.203   3.522  10.381  0.0054  0.1125 -0.1852
  109OSM    H7F11286   1.235   3.416  10.366 -1.0312 -0.2638  0.2974
  109OSM    H7G11287   1.187   3.527  10.490 -0.9899  0.4596 -0.3461
  109OSM    C8F11288   1.324   3.613  10.345 -0.3157 -0.6311  0.2188
  109OSM    H8F11289   1.403   3.587  10.419 -2.4101  0.1679  2.8184
  109OSM    H8G11290   1.308   3.720  10.369 -0.4043 -0.1660 -1.8600
  109OSM    C9F11291   1.374   3.610  10.200  0.2678  0.1694 -0.4909
  109OSM    H9F11292   1.442   3.527  10.175  0.2426  0.3835 -1.2911
  109OSM   C10F11293   1.345   3.702  10.101 -0.4118  0.1412 -0.1126
  109OSM   H10F11294   1.394   3.684  10.004  0.4924  1.3391  0.1040
  109OSM   C11F11295   1.255   3.819  10.120 -0.1644  0.2953  0.0461
  109OSM   H11F11296   1.243   3.859  10.223 -1.5683  2.0303 -0.7642
  109OSM   H11G11297   1.151   3.802  10.084  0.2319 -0.1379 -0.9129
  109OSM   C12F11298   1.320   3.925  10.023 -0.8162  0.5156  0.3194
  109OSM   H12F11299   1.429   3.933  10.042 -0.6701 -0.6290  0.0148
  109OSM   H12G11300   1.295   4.029  10.053  2.2513  1.5732 -0.5968
  109OSM   C13F11301   1.302   3.907   9.873  0.0923  0.2683 -0.0403
  109OSM   H13F11302   1.320   3.803   9.840  1.0288  0.8596 -1.4059
  109OSM   H13G11303   1.364   3.979   9.816 -0.4743  3.0076  2.6245
  109OSM   C14F11304   1.156   3.942   9.829 -0.5387 -0.3863  0.1611
  109OSM   H14F11305   1.139   4.051   9.824 -0.1320 -0.1749  2.7073
  109OSM   H14G11306   1.077   3.898   9.893  0.2545  0.9883  2.1136
  109OSM   C15F11307   1.121   3.879   9.688 -0.0988 -0.0666 -0.4160
  109OSM   H15F11308   1.017   3.901   9.655  0.0467 -0.4010 -1.1041
  109OSM   H15G11309   1.141   3.770   9.691  1.8270  0.2685 -0.7694
  109OSM   C16F11310   1.212   3.928   9.575 -0.7357 -0.0865 -0.0091
  109OSM   H16F11311   1.315   3.890   9.587 -1.2319 -1.7189 -0.8813
  109OSM   H16G11312   1.226   4.038   9.584 -1.4445 -0.1784  2.6629
  109OSM   C17F11313   1.160   3.893   9.438 -0.2298 -0.3082  0.0540
  109OSM   H17F11314   1.060   3.942   9.434 -0.1821 -0.2856 -1.2441
  109OSM   H17G11315   1.154   3.782   9.428  1.2078 -0.4156  0.2926
  109OSM   C18F11316   1.240   3.939   9.314  0.1952 -0.1059 -0.5478
  109OSM   H18F11317   1.260   4.048   9.305  0.9908 -0.1656  0.4892
  109OSM   H18G11318   1.183   3.924   9.220  2.4892  1.8948 -2.3117
  109OSM   H18H11319   1.336   3.883   9.307 -0.3402 -1.5139  2.3783
  110OSM      N11320   2.438   3.317  11.066  0.3221 -0.0323  0.4753
  110OSM    C1511321   2.365   3.200  11.120  0.7617 -0.8453 -0.2879
  110OSM   H15A11322   2.313   3.232  11.209  1.6648  0.5472 -0.2470
  110OSM   H15B11323   2.434   3.119  11.140  2.5429  0.5699 -0.6395
  110OSM   H15C11324   2.287   3.161  11.056 -1.3399 -0.2876  1.8547
  110OSM    C1411325   2.341   3.430  11.015 -0.1997  0.2605  0.1555
  110OSM   H14A11326   2.292   3.477  11.099 -0.8170 -0.5957  0.2788
  110OSM   H14B11327   2.267   3.379  10.955  0.5948 -2.1197  1.1350
  110OSM   H14C11328   2.392   3.513  10.968  0.3782 -0.0322  0.2666
  110OSM    C1311329   2.517   3.375  11.175  0.7364  0.1233  0.5069
  110OSM   H13A11330   2.464   3.372  11.269 -0.4928 -0.2002 -0.1948
  110OSM   H13B11331   2.556   3.473  11.150  1.7263 -0.1427  0.9661
  110OSM   H13C11332   2.596   3.304  11.195  0.0313 -0.8813 -0.2434
  110OSM    C1211333   2.534   3.286  10.953  0.3806 -0.0285 -0.1072
  110OSM   H12A11334   2.621   3.233  10.989 -0.1666 -1.2178 -0.5127
  110OSM   H12B11335   2.578   3.376  10.914 -1.5390  0.3269 -1.5371
  110OSM    C1111336   2.489   3.202  10.831 -0.1370  0.6101 -0.6534
  110OSM   H11A11337   2.564   3.217  10.751  0.1777 -1.0152 -0.6871
  110OSM   H11B11338   2.395   3.231  10.781 -1.5803 -4.7317 -1.3994
  110OSM      P11339   2.593   2.966  10.873 -0.4732  0.1052  0.0265
  110OSM    O1311340   2.714   3.043  10.895 -0.0763  0.6815 -0.0410
  110OSM    O1411341   2.570   2.865  10.976 -0.0262 -0.6572 -0.5824
  110OSM    O1111342   2.586   2.886  10.737 -0.1075 -0.2908  0.3995
  110OSM    O1211343   2.472   3.061  10.863 -0.0935  0.1607 -0.0534
  110OSM    C1S11344   2.459   2.849  10.679 -0.2199  0.3608  0.0233
  110OSM    H1S11345   2.395   2.938  10.663 -0.1207  0.1079 -1.9045
  110OSM    H1T11346   2.414   2.774  10.747 -2.9831  0.3567 -1.7201
  110OSM     NF11347   2.333   2.744  10.487 -0.6245  0.4888  0.3117
  110OSM    HNF11348   2.281   2.660  10.499  0.5379 -0.3028 -0.1361
  110OSM    C2S11349   2.471   2.763  10.544 -0.1193  0.2838  0.1365
  110OSM    H2S11350   2.539   2.808  10.468  1.4679 -1.4822  0.4817
  110OSM    C3S11351   2.538   2.624  10.577  0.8076 -0.6341  0.2963
  110OSM    H3S11352   2.471   2.569  10.647 -0.5609  0.8261  0.1598
  110OSM     O311353   2.664   2.635  10.644  0.2723 -0.0592  0.0788
  110OSM    HO311354   2.667   2.727  10.674 -2.5720 -0.0912  0.5274
  110OSM    C4S11355   2.540   2.542  10.450 -0.2097 -0.3796  0.2888
  110OSM    H4S11356   2.444   2.496  10.425 -1.5715  1.9997  0.9447
  110OSM    C5S11357   2.641   2.520  10.365 -0.2591 -0.3135  0.2762
  110OSM    H5S11358   2.743   2.559  10.381  0.0364 -1.0261  0.1693
  110OSM    C6S11359   2.637   2.445  10.233  0.6383 -0.2669  0.0821
  110OSM    H6S11360   2.544   2.390  10.210  1.4012 -1.2646 -0.6743
  110OSM    H6T11361   2.713   2.364  10.235  2.4115  1.3528  0.0943
  110OSM    C7S11362   2.646   2.537  10.114 -0.8454 -0.0819 -0.1389
  110OSM    H7S11363   2.726   2.611  10.133 -1.6644  0.0823  2.9751
  110OSM    H7T11364   2.548   2.589  10.107 -0.3334  0.7904 -1.0323
  110OSM    C8S11365   2.671   2.459   9.980 -0.7366 -0.4591 -0.3763
  110OSM    H8S11366   2.592   2.383   9.960 -0.6404 -0.6194 -0.1608
  110OSM    H8T11367   2.769   2.408   9.994  0.4441  1.9469  0.3697
  110OSM    C9S11368   2.689   2.558   9.863  0.5533 -0.2942  0.2211
  110OSM    H9S11369   2.759   2.637   9.897  0.9036 -0.8806  0.8746
  110OSM    H9T11370   2.589   2.598   9.840 -0.7732 -2.4347  2.0168
  110OSM   C10S11371   2.745   2.491   9.739  0.6759 -0.1460 -0.6031
  110OSM   H10S11372   2.673   2.413   9.704 -0.8876  1.0144  0.0129
  110OSM   H10T11373   2.840   2.436   9.757  0.9793  0.9316  1.2212
  110OSM   C11S11374   2.758   2.600   9.626  0.4190  0.5118  0.2799
  110OSM   H11S11375   2.827   2.683   9.653 -1.0793  1.8916 -0.0607
  110OSM   H11T11376   2.659   2.649   9.630 -0.8385 -1.9922  0.8404
  110OSM   C12S11377   2.795   2.538   9.490  0.2589 -0.0854 -0.3893
  110OSM   H12S11378   2.728   2.454   9.464 -1.1076  0.4009  1.4913
  110OSM   H12T11379   2.905   2.518   9.486  0.2208 -0.7355  1.2571
  110OSM   C13S11380   2.764   2.638   9.382  0.3519 -0.5825  0.0869
  110OSM   H13S11381   2.806   2.738   9.405 -0.4332 -0.5353  1.3475
  110OSM   H13T11382   2.655   2.659   9.385  0.9554  2.6595  1.2398
  110OSM   C14S11383   2.798   2.586   9.244  0.0391 -0.3634  0.6690
  110OSM   H14S11384   2.742   2.490   9.230 -0.4355 -0.3394  2.2368
  110OSM   H14T11385   2.905   2.557   9.250 -0.0578 -0.9513 -0.3256
  110OSM   C15S11386   2.756   2.673   9.130 -0.1503 -0.3958  0.5499
  110OSM   H15S11387   2.827   2.759   9.124  0.8877 -1.1447  1.7956
  110OSM   H15T11388   2.655   2.719   9.137  0.4794  1.4293 -1.8841
  110OSM   C16S11389   2.751   2.595   8.993  0.6169 -0.0970 -0.2729
  110OSM   H16S11390   2.720   2.675   8.923 -1.0777 -2.1081 -1.8756
  110OSM   H16T11391   2.676   2.513   8.999 -1.4027  1.7496  0.2160
  110OSM   C17S11392   2.884   2.531   8.947  0.2724  0.2385  0.2484
  110OSM   H17S11393   2.855   2.478   8.854  1.0518 -1.4071  0.9239
  110OSM   H17T11394   2.899   2.460   9.031 -2.0207 -0.2854  0.2424
  110OSM   C18S11395   2.992   2.634   8.916 -0.5087  0.1784 -0.5160
  110OSM   H18S11396   2.962   2.691   8.825 -1.8670 -1.0455 -0.8580
  110OSM   H18T11397   3.083   2.582   8.879 -1.0883 -0.9786 -0.3627
  110OSM   H18U11398   3.007   2.699   9.004 -0.8422 -3.9441  2.7150
  110OSM    C1F11399   2.281   2.840  10.414 -0.2291 -0.2233 -0.6285
  110OSM     OF11400   2.344   2.945  10.383 -0.8657 -0.4949 -0.1071
  110OSM    C2F11401   2.143   2.790  10.361  0.3214  0.2012 -0.3079
  110OSM    H2F11402   2.065   2.819  10.435 -0.4658 -2.3623 -0.0994
  110OSM    H2G11403   2.141   2.680  10.349 -3.2895 -0.1446  2.4098
  110OSM    C3F11404   2.099   2.848  10.224  0.0986  0.4847 -0.1869
  110OSM    H3F11405   2.006   2.791  10.202 -0.8839  1.8081  0.4641
  110OSM    H3G11406   2.170   2.822  10.143  1.4747  1.3542  0.7171
  110OSM    C4F11407   2.044   2.987  10.220 -0.3293 -0.4330 -0.4392
  110OSM    H4F11408   2.115   3.068  10.248 -3.5621  2.5010 -0.4227
  110OSM    H4G11409   1.971   2.992  10.303  1.0374  1.6939  0.6782
  110OSM    C5F11410   1.968   3.027  10.096 -0.2931 -0.5616 -0.0067
  110OSM    H5F11411   1.919   3.126  10.104 -0.4092 -0.5818 -0.4973
  110OSM    H5G11412   1.875   2.966  10.087  1.0582 -3.0179  1.9835
  110OSM    C6F11413   2.053   3.031   9.968 -0.7974 -0.6446 -0.4141
  110OSM    H6F11414   2.089   2.927   9.957 -1.1225 -0.6420 -1.5494
  110OSM    H6G11415   2.145   3.090   9.989 -0.3033 -0.9648 -1.6435
  110OSM    C7F11416   1.978   3.091   9.853 -0.0422 -0.3342  0.2311
  110OSM    H7F11417   1.979   3.200   9.871 -2.3874 -0.5937  2.2303
  110OSM    H7G11418   1.868   3.071   9.851 -0.2599  0.5888  2.0637
  110OSM    C8F11419   2.044   3.065   9.724  0.0320 -0.5320  0.3610
  110OSM    H8F11420   2.012   2.969   9.678 -0.1746  1.1190 -3.0939
  110OSM    H8G11421   2.154   3.057   9.734  0.5779  3.7459 -0.9601
  110OSM    C9F11422   2.026   3.172   9.622 -0.3400  0.7222 -0.1675
  110OSM    H9F11423   2.124   3.221   9.609  0.3439 -0.4102  0.6391
  110OSM   C10F11424   1.915   3.206   9.556 -0.5594 -0.1941  0.2286
  110OSM   H10F11425   1.911   3.298   9.497  0.9805  0.3705  0.9580
  110OSM   C11F11426   1.777   3.154   9.581 -0.1771 -0.0408 -0.3903
  110OSM   H11F11427   1.712   3.243   9.595 -0.1352 -0.1095  0.2424
  110OSM   H11G11428   1.756   3.095   9.672  0.2638  0.6634  0.1657
  110OSM   C12F11429   1.721   3.075   9.464  0.0979  0.0997  0.1494
  110OSM   H12F11430   1.638   3.019   9.512 -0.8453  0.0816 -1.4762
  110OSM   H12G11431   1.792   3.003   9.416 -0.3070  0.6439 -1.2746
  110OSM   C13F11432   1.662   3.156   9.349  0.7196 -0.3549  0.0425
  110OSM   H13F11433   1.747   3.214   9.305 -0.6369  1.5563 -0.1077
  110OSM   H13G11434   1.586   3.229   9.384 -0.8584 -1.2757 -1.4411
  110OSM   C14F11435   1.605   3.061   9.244  0.2095  0.0762  0.9804
  110OSM   H14F11436   1.535   2.983   9.282 -2.4212  1.8463 -0.1263
  110OSM   H14G11437   1.696   3.012   9.205 -1.7689 -1.5262 -1.8529
  110OSM   C15F11438   1.524   3.128   9.129  0.6117 -0.2880  0.8574
  110OSM   H15F11439   1.580   3.222   9.109 -1.0599  0.7722  1.0586
  110OSM   H15G11440   1.423   3.163   9.160 -0.5092 -0.8651 -1.9260
  110OSM   C16F11441   1.527   3.054   8.998 -0.3654 -0.5100 -0.1825
  110OSM   H16F11442   1.460   2.965   9.001 -0.6428 -0.4008 -2.1806
  110OSM   H16G11443   1.629   3.014   8.979 -0.2649  0.1419 -1.0588
  110OSM   C17F11444   1.485   3.135   8.875  0.8601  0.2766 -0.0822
  110OSM   H17F11445   1.513   3.092   8.776  0.8537 -1.7557  0.7953
  110OSM   H17G11446   1.537   3.233   8.881  0.0808  0.6092  1.2397
  110OSM   C18F11447   1.331   3.151   8.855  0.4270  0.2140 -0.0884
  110OSM   H18F11448   1.283   3.051   8.864 -0.3155  0.6345  0.7545
  110OSM   H18G11449   1.303   3.203   8.761 -1.7023  0.5948  0.7217
  110OSM   H18H11450   1.303   3.209   8.946 -0.0474 -0.5388  0.2459
  111OSM      N11451   3.035   5.846  11.173 -0.1916 -0.6483 -0.5528
  111OSM    C1511452   3.017   5.707  11.218 -0.3900 -0.1072  0.4026
  111OSM   H15A11453   3.088   5.644  11.167  0.8026  1.6730 -0.1983
  111OSM   H15B11454   2.922   5.677  11.177 -0.6115  0.6223  0.3774
  111OSM   H15C11455   3.024   5.697  11.325  2.9754 -1.6683  0.1048
  111OSM    C1411456   2.908   5.920  11.211  0.5542 -0.3432 -0.4715
  111OSM   H14A11457   2.916   6.025  11.185 -1.9749  0.5836  2.1955
  111OSM   H14B11458   2.887   5.909  11.316 -0.2095  0.0785 -0.5706
  111OSM   H14C11459   2.821   5.885  11.157  0.5472  0.5710 -1.0607
  111OSM    C1311460   3.164   5.902  11.229 -0.1924 -0.1068 -0.6116
  111OSM   H13A11461   3.175   5.894  11.336  1.6187 -0.0943 -0.7800
  111OSM   H13B11462   3.174   6.002  11.189 -1.5275  1.7677  3.5464
  111OSM   H13C11463   3.250   5.844  11.198 -1.7954 -2.7564 -0.3209
  111OSM    C1211464   3.039   5.855  11.025 -0.6279  0.3598  0.1424
  111OSM   H12A11465   3.046   5.958  10.992  2.5162  0.4009  0.7856
  111OSM   H12B11466   2.944   5.824  10.984 -1.4057  3.0854 -0.1937
  111OSM    C1111467   3.144   5.770  10.945  0.4053  1.1472  0.2531
  111OSM   H11A11468   3.105   5.769  10.842  1.0299 -0.4208  0.0277
  111OSM   H11B11469   3.150   5.667  10.987  0.3272  0.5224 -1.2390
  111OSM      P11470   3.322   5.950  10.880 -0.5215  0.2032 -0.0825
  111OSM    O1311471   3.272   6.069  10.954  0.4618  0.4091 -0.3804
  111OSM    O1411472   3.471   5.939  10.853  0.4626 -0.0821 -0.8222
  111OSM    O1111473   3.247   5.955  10.746 -1.1276  0.4085  0.0080
  111OSM    O1211474   3.275   5.815  10.947 -0.0949 -0.1906 -0.0957
  111OSM    C1S11475   3.278   5.879  10.626 -0.1281 -0.8231 -0.2705
  111OSM    H1S11476   3.225   5.781  10.632  0.0098 -0.8912 -0.1534
  111OSM    H1T11477   3.385   5.855  10.614  0.4028  0.1481  2.2235
  111OSM     NF11478   3.269   5.856  10.382 -0.5069  0.6779 -0.7366
  111OSM    HNF11479   3.348   5.876  10.326  1.5705  0.0339  1.8722
  111OSM    C2S11480   3.242   5.952  10.492  0.3192 -0.1306  0.4265
  111OSM    H2S11481   3.133   5.973  10.491  0.0059 -1.6540  1.6523
  111OSM    C3S11482   3.317   6.088  10.476 -0.5806 -0.3030  0.0739
  111OSM    H3S11483   3.427   6.076  10.469 -0.3234  1.3336  1.1618
  111OSM     O311484   3.298   6.179  10.584  0.1063 -1.1527 -0.4473
  111OSM    HO311485   3.238   6.131  10.642  1.3653 -0.1360  1.7544
  111OSM    C4S11486   3.264   6.150  10.351  0.7272 -0.6906 -0.4085
  111OSM    H4S11487   3.294   6.098  10.259  2.5999 -0.4115  0.0338
  111OSM    C5S11488   3.181   6.253  10.331  0.2823 -0.4947 -0.3943
  111OSM    H5S11489   3.140   6.308  10.418  0.2439  0.9235 -1.3020
  111OSM    C6S11490   3.134   6.304  10.198 -0.1334  0.6857  0.4954
  111OSM    H6S11491   3.138   6.415  10.201 -1.4961  0.7944 -0.9963
  111OSM    H6T11492   3.035   6.260  10.175 -0.0705  1.4653 -1.3357
  111OSM    C7S11493   3.213   6.250  10.075 -0.1679  0.2033  0.2366
  111OSM    H7S11494   3.182   6.147  10.046  2.5012 -1.8484  4.1875
  111OSM    H7T11495   3.323   6.258  10.090 -0.0692  2.7475 -1.7077
  111OSM    C8S11496   3.174   6.319   9.945  0.2771  0.0587  0.0455
  111OSM    H8S11497   3.205   6.425   9.953  0.8485 -0.1795  1.0493
  111OSM    H8T11498   3.064   6.322   9.926  0.4485 -0.6223 -1.0818
  111OSM    C9S11499   3.227   6.237   9.826  0.3322 -0.2670  0.1621
  111OSM    H9S11500   3.180   6.137   9.815 -0.7159  0.1609  0.6727
  111OSM    H9T11501   3.337   6.226   9.836  0.2823 -2.6318 -1.6160
  111OSM   C10S11502   3.200   6.312   9.699  0.2518  0.5403  0.0998
  111OSM   H10S11503   3.251   6.410   9.688 -0.6818  0.8340 -1.7165
  111OSM   H10T11504   3.092   6.338   9.695 -0.1188 -1.0757 -0.7751
  111OSM   C11S11505   3.246   6.244   9.565  0.3563  0.0382 -0.0626
  111OSM   H11S11506   3.186   6.151   9.550  1.6498 -0.7070 -0.8036
  111OSM   H11T11507   3.354   6.214   9.566  0.5637  0.8230  1.2545
  111OSM   C12S11508   3.210   6.332   9.445  0.3888 -0.0202 -0.7779
  111OSM   H12S11509   3.261   6.429   9.464  1.2832 -1.1406  2.9636
  111OSM   H12T11510   3.101   6.352   9.451  0.2908 -0.8593  0.3493
  111OSM   C13S11511   3.229   6.263   9.309  0.2746 -0.2239 -0.4382
  111OSM   H13S11512   3.199   6.156   9.308 -0.3160 -0.0622 -1.3280
  111OSM   H13T11513   3.331   6.260   9.266 -0.1314  0.3003 -1.4500
  111OSM   C14S11514   3.148   6.330   9.194 -0.0259  0.0698 -0.5016
  111OSM   H14S11515   3.206   6.413   9.149 -0.4009  0.9011  0.5253
  111OSM   H14T11516   3.058   6.376   9.240  1.1482 -0.2919  2.2289
  111OSM   C15S11517   3.093   6.245   9.082  0.0422 -0.5143 -0.1413
  111OSM   H15S11518   3.026   6.168   9.126 -0.7965 -0.1699 -0.7736
  111OSM   H15T11519   3.177   6.188   9.038  0.3927 -0.6765  0.7407
  111OSM   C16S11520   3.022   6.324   8.963  0.6471  0.6952  0.1856
  111OSM   H16S11521   3.106   6.391   8.934  2.7211 -0.3206  3.5652
  111OSM   H16T11522   2.942   6.387   9.009 -1.0715 -0.8435 -0.6113
  111OSM   C17S11523   2.981   6.234   8.847 -0.0143 -0.5900  0.9559
  111OSM   H17S11524   2.920   6.148   8.883 -1.0437 -1.1642 -1.9424
  111OSM   H17T11525   3.065   6.191   8.789 -0.1277  1.1850 -0.5735
  111OSM   C18S11526   2.892   6.301   8.740 -0.4674  0.0747 -0.0276
  111OSM   H18S11527   2.923   6.402   8.708 -2.8719  1.2337  1.1695
  111OSM   H18T11528   2.786   6.297   8.776  0.3394 -0.8396  2.3401
  111OSM   H18U11529   2.888   6.234   8.652 -1.2735 -0.6650  0.5530
  111OSM    C1F11530   3.191   5.756  10.363 -0.0697 -0.0527  0.2993
  111OSM     OF11531   3.074   5.761  10.405  0.1127 -0.0727 -0.2252
  111OSM    C2F11532   3.238   5.638  10.287 -0.3970  0.0085 -0.1251
  111OSM    H2F11533   3.241   5.550  10.354 -1.0305  0.0667 -0.0187
  111OSM    H2G11534   3.341   5.661  10.252 -0.9947  2.7960 -0.2347
  111OSM    C3F11535   3.161   5.614  10.156 -0.6503 -0.2558 -0.4365
  111OSM    H3F11536   3.153   5.710  10.099 -2.8073  1.4556  2.5831
  111OSM    H3G11537   3.056   5.598  10.189 -0.7111  3.5738  1.5186
  111OSM    C4F11538   3.219   5.502  10.072  0.3326 -0.6376  0.1590
  111OSM    H4F11539   3.228   5.407  10.129  0.5443  0.1521  1.4561
  111OSM    H4G11540   3.324   5.516  10.039 -0.5956  0.6960 -2.3481
  111OSM    C5F11541   3.127   5.452   9.959 -0.4936 -0.1385 -0.5166
  111OSM    H5F11542   3.098   5.543   9.903  0.6524  0.4319 -0.1972
  111OSM    H5G11543   3.039   5.403  10.006 -0.0180  0.8516  1.4400
  111OSM    C6F11544   3.192   5.333   9.883 -0.8319  0.4889 -0.1267
  111OSM    H6F11545   3.179   5.248   9.954  0.1273  0.9043  0.5660
  111OSM    H6G11546   3.301   5.346   9.863 -0.8884  1.8886  0.4077
  111OSM    C7F11547   3.118   5.299   9.752  0.0081 -0.3469 -0.3448
  111OSM    H7F11548   3.011   5.272   9.764 -0.2985  0.5116 -1.1255
  111OSM    H7G11549   3.156   5.210   9.696  1.1928  0.9460 -1.6300
  111OSM    C8F11550   3.136   5.413   9.653  0.0120 -0.5115 -0.3001
  111OSM    H8F11551   3.096   5.503   9.703 -1.4037 -1.7092  0.7816
  111OSM    H8G11552   3.060   5.408   9.572 -1.2793 -0.0238  0.8779
  111OSM    C9F11553   3.272   5.430   9.596 -0.9395  0.0236 -0.0190
  111OSM    H9F11554   3.355   5.407   9.665 -0.2456  1.6684 -0.2772
  111OSM   C10F11555   3.311   5.462   9.468  0.4030 -0.0210 -0.1158
  111OSM   H10F11556   3.415   5.489   9.445  0.5155  0.0342  0.4425
  111OSM   C11F11557   3.217   5.476   9.352 -0.1094 -0.4026  0.0452
  111OSM   H11F11558   3.236   5.558   9.281  0.8710  0.9381  1.8229
  111OSM   H11G11559   3.112   5.496   9.383 -0.7119 -2.1193 -0.7949
  111OSM   C12F11560   3.235   5.351   9.268  0.0179  0.6820  0.3128
  111OSM   H12F11561   3.167   5.356   9.181 -0.4023  0.4363  0.6244
  111OSM   H12G11562   3.198   5.267   9.331  0.5203  0.8248  0.8038
  111OSM   C13F11563   3.376   5.326   9.203  0.0825 -0.2650 -0.1608
  111OSM   H13F11564   3.457   5.351   9.275 -0.1013 -0.6434  0.1791
  111OSM   H13G11565   3.393   5.398   9.120 -1.4443 -0.4173 -0.6166
  111OSM   C14F11566   3.402   5.189   9.146  0.9355  0.7066 -0.2547
  111OSM   H14F11567   3.372   5.111   9.219 -0.5198  0.1177 -1.4825
  111OSM   H14G11568   3.511   5.173   9.127  0.8207 -0.4474  0.0258
  111OSM   C15F11569   3.328   5.165   9.015  0.0053  0.3658  0.9984
  111OSM   H15F11570   3.218   5.182   9.018 -0.4335 -2.3437  1.3736
  111OSM   H15G11571   3.332   5.058   8.986 -2.7545  0.2073  1.0912
  111OSM   C16F11572   3.381   5.238   8.894 -0.4429  0.8016  0.3008
  111OSM   H16F11573   3.371   5.347   8.910 -0.5454  1.2262 -2.5239
  111OSM   H16G11574   3.321   5.210   8.805 -2.3859  1.9030  1.2373
  111OSM   C17F11575   3.528   5.193   8.868 -0.0603 -0.5335  0.0897
  111OSM   H17F11576   3.552   5.118   8.946 -1.1393  1.7387  2.7011
  111OSM   H17G11577   3.580   5.289   8.890 -0.5495 -0.6613  1.9193
  111OSM   C18F11578   3.550   5.129   8.733 -0.2392  0.2768 -0.5916
  111OSM   H18F11579   3.477   5.045   8.729  1.6634 -1.3548 -1.5118
  111OSM   H18G11580   3.650   5.083   8.720 -0.3553  0.2549 -1.4571
  111OSM   H18H11581   3.522   5.202   8.654  1.9470  2.1129  0.2763
  112OSM      N11582   3.741   3.093  11.078  0.1976 -0.0162 -0.2430
  112OSM    C1511583   3.773   3.067  10.934 -0.0758 -0.2371 -0.5082
  112OSM   H15A11584   3.866   3.014  10.936 -0.7725 -1.4441  0.8244
  112OSM   H15B11585   3.797   3.158  10.880 -0.0662  0.0604 -0.0060
  112OSM   H15C11586   3.698   3.011  10.880  0.1625 -0.5774 -0.4830
  112OSM    C1411587   3.712   2.976  11.154  0.7903  0.8634  0.8091
  112OSM   H14A11588   3.724   2.984  11.261  0.3568  0.9963  0.8489
  112OSM   H14B11589   3.772   2.890  11.127  0.7713  1.1257 -0.1027
  112OSM   H14C11590   3.609   2.946  11.140  1.8196 -1.3931 -2.5518
  112OSM    C1311591   3.862   3.163  11.135  1.4323 -0.0460 -0.4005
  112OSM   H13A11592   3.938   3.087  11.126  0.2998 -1.4498  1.2892
  112OSM   H13B11593   3.840   3.177  11.240 -2.7194 -0.6355 -1.0677
  112OSM   H13C11594   3.883   3.257  11.087 -2.1808 -0.1519 -2.4406
  112OSM    C1211595   3.629   3.206  11.088  0.1360  0.1273 -0.6799
  112OSM   H12A11596   3.618   3.236  11.192 -0.5187 -1.5836 -0.2385
  112OSM   H12B11597   3.536   3.154  11.073  1.1571 -2.0889  0.3781
  112OSM    C1111598   3.643   3.331  11.001 -0.4828 -0.0111 -0.3764
  112OSM   H11A11599   3.545   3.362  10.959 -0.7782 -1.3885 -0.7580
  112OSM   H11B11600   3.701   3.307  10.909  1.6778  1.0032  0.7003
  112OSM      P11601   3.824   3.516  11.027 -0.3455 -0.1544 -0.4073
  112OSM    O1311602   3.819   3.655  11.091 -0.2852  0.4024  0.1765
  112OSM    O1411603   3.938   3.428  11.058  0.1167  0.1648  0.6425
  112OSM    O1111604   3.802   3.535  10.868  0.2851 -0.4286 -0.3283
  112OSM    O1211605   3.699   3.441  11.079 -0.4195  0.1390 -0.4942
  112OSM    C1S11606   3.690   3.605  10.807  0.2692  0.2561  0.3086
  112OSM    H1S11607   3.677   3.701  10.861  1.2903  0.8418 -0.4723
  112OSM    H1T11608   3.593   3.555  10.828 -0.7540  2.1307  0.1642
  112OSM     NF11609   3.652   3.744  10.605  0.1305 -0.0330  0.2926
  112OSM    HNF11610   3.562   3.735  10.564  0.4111  0.8803 -0.5440
  112OSM    C2S11611   3.713   3.619  10.653 -0.2230  0.5554  0.4924
  112OSM    H2S11612   3.823   3.627  10.641 -0.3898  2.3239 -0.0032
  112OSM    C3S11613   3.676   3.484  10.583 -0.4157  0.3208  0.4270
  112OSM    H3S11614   3.580   3.443  10.621  0.7286 -3.7598 -0.8448
  112OSM     O311615   3.766   3.384  10.621 -0.5102  0.0575 -0.2581
  112OSM    HO311616   3.825   3.424  10.685 -0.6025 -2.1057  1.2527
  112OSM    C4S11617   3.680   3.493  10.431  0.4484 -0.2385  0.0440
  112OSM    H4S11618   3.773   3.526  10.382  2.0737 -2.8850  1.1628
  112OSM    C5S11619   3.581   3.456  10.351 -0.6392 -0.6020  0.1441
  112OSM    H5S11620   3.488   3.415  10.393 -0.9166 -0.1178 -0.0037
  112OSM    C6S11621   3.579   3.458  10.200 -0.1094  0.3833  0.2209
  112OSM    H6S11622   3.470   3.475  10.182  0.0518  2.4726  0.9903
  112OSM    H6T11623   3.609   3.360  10.158 -0.3693  0.8493 -1.0942
  112OSM    C7S11624   3.663   3.573  10.125  0.1943  0.2832 -0.1096
  112OSM    H7S11625   3.739   3.621  10.191 -0.2599  0.6114  0.1828
  112OSM    H7T11626   3.589   3.649  10.090 -1.0148 -1.3280 -1.1169
  112OSM    C8S11627   3.710   3.528   9.994 -0.1096 -0.6408  0.0068
  112OSM    H8S11628   3.635   3.459   9.950 -0.9354 -0.7569  1.5661
  112OSM    H8T11629   3.803   3.468  10.007  0.9444  1.1468  0.9499
  112OSM    C9S11630   3.773   3.645   9.911  0.7042  0.2444 -0.3037
  112OSM    H9S11631   3.834   3.708   9.980  2.6414 -2.9813  1.0197
  112OSM    H9T11632   3.688   3.705   9.872 -0.3640 -0.1637  1.3317
  112OSM   C10S11633   3.873   3.597   9.810 -0.0331  0.6306  0.1588
  112OSM   H10S11634   3.939   3.524   9.862 -1.6087  1.4721  3.4092
  112OSM   H10T11635   3.932   3.689   9.792 -2.0059  1.8609 -0.1736
  112OSM   C11S11636   3.816   3.519   9.687  0.7963  0.4247 -0.6187
  112OSM   H11S11637   3.751   3.435   9.721 -0.2553  0.8161 -1.6076
  112OSM   H11T11638   3.893   3.470   9.623 -0.7577 -1.8702 -0.8336
  112OSM   C12S11639   3.734   3.610   9.590  0.1167  0.4902 -0.5953
  112OSM   H12S11640   3.811   3.676   9.546 -0.3702  2.6663  1.6768
  112OSM   H12T11641   3.673   3.679   9.653  1.1763  1.5451 -0.7212
  112OSM   C13S11642   3.655   3.537   9.479  0.9958  0.2499 -0.2071
  112OSM   H13S11643   3.565   3.502   9.533 -0.6173  1.3513 -2.1479
  112OSM   H13T11644   3.709   3.444   9.450  1.0638 -0.3386  1.7436
  112OSM   C14S11645   3.636   3.627   9.355 -0.2821 -0.1540 -0.1629
  112OSM   H14S11646   3.724   3.693   9.342  1.2471 -2.1578 -0.2664
  112OSM   H14T11647   3.548   3.691   9.378 -0.4544 -1.0704  1.8269
  112OSM   C15S11648   3.617   3.543   9.237 -0.3045 -0.7908 -0.2655
  112OSM   H15S11649   3.531   3.474   9.255  0.8247 -1.6707  1.9626
  112OSM   H15T11650   3.709   3.482   9.227  0.5652  0.1925  1.5098
  112OSM   C16S11651   3.574   3.631   9.121  0.1553 -0.3059  0.7541
  112OSM   H16S11652   3.666   3.690   9.102 -0.7783  1.2913  1.1068
  112OSM   H16T11653   3.496   3.708   9.140 -1.9525 -2.2119  0.1224
  112OSM   C17S11654   3.519   3.553   9.000 -0.4235  0.1633  0.5577
  112OSM   H17S11655   3.421   3.510   9.031  0.6876 -1.3861  1.9973
  112OSM   H17T11656   3.572   3.456   8.993 -0.4426  0.0828  1.5306
  112OSM   C18S11657   3.534   3.617   8.863  0.2638  0.4473 -0.4929
  112OSM   H18S11658   3.640   3.641   8.841  1.9348 -3.7954  2.1918
  112OSM   H18T11659   3.480   3.713   8.848 -0.0458  0.4631  0.6913
  112OSM   H18U11660   3.489   3.556   8.782 -2.1011  2.4626 -0.7636
  112OSM    C1F11661   3.710   3.862  10.628 -0.5906 -0.5050 -0.5433
  112OSM     OF11662   3.824   3.871  10.663 -0.4304  0.2870  0.1458
  112OSM    C2F11663   3.620   3.984  10.609  0.1178 -0.3373 -0.6355
  112OSM    H2F11664   3.584   4.027  10.705 -0.4699  1.3397 -1.5937
  112OSM    H2G11665   3.528   3.952  10.556 -0.8880  0.6068  0.5002
  112OSM    C3F11666   3.689   4.095  10.523  0.2656  0.0640  0.3306
  112OSM    H3F11667   3.713   4.055  10.422 -1.2916  0.3374 -0.1680
  112OSM    H3G11668   3.784   4.125  10.571 -0.3230  0.9746  0.9617
  112OSM    C4F11669   3.591   4.206  10.504 -0.5783  0.0934  0.0026
  112OSM    H4F11670   3.580   4.251  10.606 -0.0417  0.4254 -0.0872
  112OSM    H4G11671   3.489   4.180  10.466  0.1211 -3.1947  0.2156
  112OSM    C5F11672   3.646   4.319  10.413 -0.2795  0.3741 -0.6296
  112OSM    H5F11673   3.743   4.347  10.460 -1.3040  2.0665  0.5812
  112OSM    H5G11674   3.580   4.409  10.407 -0.4359  0.1766 -2.0046
  112OSM    C6F11675   3.670   4.281  10.266 -0.8101 -0.1038  0.7356
  112OSM    H6F11676   3.581   4.250  10.207 -0.7478  2.6954 -0.9117
  112OSM    H6G11677   3.743   4.198  10.256 -0.3050  0.4939 -0.7943
  112OSM    C7F11678   3.720   4.405  10.192  0.2797 -0.2481 -0.2221
  112OSM    H7F11679   3.810   4.457  10.232  0.9863 -0.9012 -0.9317
  112OSM    H7G11680   3.630   4.469  10.205  1.2685  0.8625  1.3320
  112OSM    C8F11681   3.734   4.386  10.042 -0.2941 -0.5546  0.2392
  112OSM    H8F11682   3.640   4.346   9.997 -0.4609  2.4716 -2.2671
  112OSM    H8G11683   3.816   4.312  10.046  0.1648  0.0478  2.1690
  112OSM    C9F11684   3.775   4.518   9.975 -0.3622  0.3926 -0.0438
  112OSM    H9F11685   3.847   4.575  10.036  1.3237 -1.2203 -0.4638
  112OSM   C10F11686   3.735   4.566   9.855  0.1202 -0.7562 -0.5285
  112OSM   H10F11687   3.771   4.666   9.824  0.8638 -0.6791  0.5461
  112OSM   C11F11688   3.652   4.490   9.762  0.3274  1.1272  0.0301
  112OSM   H11F11689   3.545   4.493   9.794 -0.3975  3.1414 -2.3139
  112OSM   H11G11690   3.678   4.382   9.758 -0.7598  0.8938 -1.1130
  112OSM   C12F11691   3.655   4.537   9.614  0.2693  0.1114  0.5902
  112OSM   H12F11692   3.623   4.643   9.602 -1.9805 -0.4186  1.6087
  112OSM   H12G11693   3.568   4.484   9.571 -1.7751  4.4177 -0.8949
  112OSM   C13F11694   3.784   4.514   9.532  0.9416 -0.0401  0.6202
  112OSM   H13F11695   3.817   4.408   9.545  0.7468 -0.4608 -1.9844
  112OSM   H13G11696   3.869   4.572   9.573  0.9565 -0.9635  1.9481
  112OSM   C14F11697   3.750   4.520   9.384  0.7833 -0.4542  0.8290
  112OSM   H14F11698   3.737   4.627   9.357 -0.0548 -0.9985 -1.0003
  112OSM   H14G11699   3.659   4.457   9.370  0.7572 -0.3753  0.6364
  112OSM   C15F11700   3.869   4.475   9.298 -1.0431 -0.2396  0.0375
  112OSM   H15F11701   3.893   4.370   9.325 -1.3819 -0.2373  0.3442
  112OSM   H15G11702   3.940   4.554   9.331 -2.8058  1.3487  0.1462
  112OSM   C16F11703   3.835   4.465   9.149 -0.0545 -0.2444 -0.0727
  112OSM   H16F11704   3.789   4.560   9.115  2.5179  1.5514  1.3319
  112OSM   H16G11705   3.762   4.382   9.135  1.2750 -1.9178  2.4383
  112OSM   C17F11706   3.962   4.442   9.064 -0.1846  0.6100  1.0243
  112OSM   H17F11707   4.028   4.531   9.075 -1.8881  2.2223 -1.3110
  112OSM   H17G11708   3.933   4.444   8.957  1.6002 -1.3537  0.4931
  112OSM   C18F11709   4.046   4.319   9.087  0.0552 -0.1355  0.1040
  112OSM   H18F11710   4.089   4.325   9.189  2.8998  0.7739 -1.0997
  112OSM   H18G11711   4.118   4.299   9.005 -1.1509  0.5811 -1.1629
  112OSM   H18H11712   3.980   4.230   9.079  1.1317 -0.8756 -0.7267
  113OSM      N11713   0.668   0.234  11.117  0.0624 -0.2704  0.5327
  113OSM    C1511714   0.633   0.187  11.256  0.2669  0.0437 -0.2519
  113OSM   H15A11715   0.618   0.275  11.316  3.1060  1.4651 -1.5129
  113OSM   H15B11716   0.706   0.124  11.305 -0.1655 -0.5920 -0.4210
  113OSM   H15C11717   0.537   0.138  11.252 -0.4703  1.5925 -1.8562
  113OSM    C1411718   0.807   0.295  11.125 -0.4370 -0.5042  0.0927
  113OSM   H14A11719   0.846   0.333  11.031  0.7786 -0.2506  0.6793
  113OSM   H14B11720   0.889   0.228  11.147  0.5210  0.3908 -0.6637
  113OSM   H14C11721   0.802   0.384  11.187  2.9941  0.4481 -0.8541
  113OSM    C1311722   0.666   0.120  11.017 -0.7328  0.3153  0.0160
  113OSM   H13A11723   0.726   0.044  11.064 -0.2610  0.0152 -1.0650
  113OSM   H13B11724   0.727   0.144  10.931  1.0525  1.5287  1.5735
  113OSM   H13C11725   0.570   0.080  10.989  0.1721 -1.5620 -0.4809
  113OSM    C1211726   0.565   0.338  11.077 -0.0724 -0.7769  0.4228
  113OSM   H12A11727   0.539   0.395  11.165  1.1160  0.8637 -0.2623
  113OSM   H12B11728   0.480   0.283  11.041 -0.2466 -1.8801  2.4716
  113OSM    C1111729   0.620   0.430  10.967  0.2137 -0.8143  0.0427
  113OSM   H11A11730   0.538   0.457  10.897  0.5537  1.0252  0.3129
  113OSM   H11B11731   0.689   0.368  10.906  0.7671 -1.4649  1.2968
  113OSM      P11732   0.614   0.685  11.022  0.0509 -0.2977  0.0238
  113OSM    O1311733   0.505   0.678  11.121  0.0218 -0.7985 -0.7556
  113OSM    O1411734   0.712   0.797  11.039  0.1146 -0.0986 -0.1374
  113OSM    O1111735   0.544   0.687  10.881 -0.8610 -0.0349  0.3953
  113OSM    O1211736   0.697   0.553  11.010 -0.3619 -0.0119 -0.1952
  113OSM    C1S11737   0.621   0.717  10.766 -0.2901 -0.1607  0.2726
  113OSM    H1S11738   0.631   0.617  10.718  0.9216  0.3509 -0.5562
  113OSM    H1T11739   0.724   0.754  10.786 -0.2525 -0.1595  0.0843
  113OSM     NF11740   0.615   0.810  10.534  0.2743  0.0920  0.4095
  113OSM    HNF11741   0.655   0.897  10.507 -1.5171  0.5922 -0.7188
  113OSM    C2S11742   0.541   0.801  10.660  0.5093  0.7226  0.8715
  113OSM    H2S11743   0.445   0.749  10.640  0.2243  1.7940 -0.6025
  113OSM    C3S11744   0.503   0.937  10.719  0.2644  0.0111 -0.2950
  113OSM    H3S11745   0.595   0.998  10.730  2.4856 -2.5505 -3.6831
  113OSM     O311746   0.440   0.935  10.849 -0.7147 -0.3723  0.0093
  113OSM    HO311747   0.429   0.843  10.875  0.1686  0.3701  3.2157
  113OSM    C4S11748   0.405   1.013  10.624 -0.3674  0.5694 -0.0672
  113OSM    H4S11749   0.301   0.978  10.618  1.2016 -3.9094 -2.6233
  113OSM    C5S11750   0.439   1.130  10.555 -0.6420 -0.4877  0.7164
  113OSM    H5S11751   0.541   1.172  10.562 -0.4448  0.0763 -4.0061
  113OSM    C6S11752   0.336   1.202  10.475  0.2177 -0.4480 -0.0617
  113OSM    H6S11753   0.296   1.289  10.531  0.3671  0.9575 -2.0791
  113OSM    H6T11754   0.259   1.130  10.443 -1.3711  0.4208  1.7309
  113OSM    C7S11755   0.397   1.260  10.350  0.7441 -0.5500 -0.4722
  113OSM    H7S11756   0.477   1.332  10.378 -0.1003 -0.8872  2.9238
  113OSM    H7T11757   0.314   1.326  10.317 -1.2703 -2.2281  1.1551
  113OSM    C8S11758   0.407   1.163  10.240  0.3656  0.1690  0.6205
  113OSM    H8S11759   0.316   1.100  10.249 -1.1787  2.2866  0.3581
  113OSM    H8T11760   0.491   1.091  10.247 -1.5114 -2.2481 -0.8574
  113OSM    C9S11761   0.395   1.221  10.099  0.6266  1.6911  0.2154
  113OSM    H9S11762   0.301   1.278  10.087 -0.2961 -0.0193 -0.9493
  113OSM    H9T11763   0.393   1.137  10.027 -0.1166  0.4841  1.6233
  113OSM   C10S11764   0.516   1.303  10.050  0.4555  0.5135  0.4545
  113OSM   H10S11765   0.604   1.238  10.067 -0.2357 -0.1201  1.6183
  113OSM   H10T11766   0.536   1.394  10.111  2.9202  0.5399 -0.3401
  113OSM   C11S11767   0.508   1.329   9.895  0.4628  0.1124 -0.3773
  113OSM   H11S11768   0.477   1.434   9.877 -2.6695 -0.2716  2.2481
  113OSM   H11T11769   0.430   1.266   9.846 -0.4682 -0.0670  1.3178
  113OSM   C12S11770   0.643   1.318   9.827 -0.5553  0.5363 -0.1720
  113OSM   H12S11771   0.681   1.214   9.828 -3.3386 -0.5408  0.3004
  113OSM   H12T11772   0.711   1.388   9.880 -1.1703  1.8594 -1.0906
  113OSM   C13S11773   0.629   1.354   9.678  0.8066  0.7644 -0.6236
  113OSM   H13S11774   0.587   1.456   9.664  1.4447  1.2884  1.1013
  113OSM   H13T11775   0.563   1.284   9.622  1.2496  0.5559 -0.8810
  113OSM   C14S11776   0.766   1.369   9.604  0.4545 -0.7057  0.8271
  113OSM   H14S11777   0.812   1.268   9.604  2.1709  0.0647  1.2005
  113OSM   H14T11778   0.835   1.443   9.648 -0.9717  0.0141  1.8906
  113OSM   C15S11779   0.732   1.410   9.455 -0.3396 -0.2089  0.3809
  113OSM   H15S11780   0.682   1.509   9.457 -2.5449 -1.2321 -1.5607
  113OSM   H15T11781   0.656   1.342   9.410 -0.4600 -2.0084  3.1901
  113OSM   C16S11782   0.855   1.427   9.371 -0.0044 -0.6213  0.0234
  113OSM   H16S11783   0.918   1.336   9.360 -0.1599 -0.7758  0.4114
  113OSM   H16T11784   0.917   1.504   9.422 -0.7274 -0.1039  0.1288
  113OSM   C17S11785   0.837   1.480   9.231  0.2349 -0.1021 -0.5072
  113OSM   H17S11786   0.935   1.477   9.179  0.9215 -2.6247  0.8864
  113OSM   H17T11787   0.805   1.586   9.225 -1.0741 -0.5503 -2.0311
  113OSM   C18S11788   0.743   1.400   9.142 -0.3851 -0.2486  0.6775
  113OSM   H18S11789   0.783   1.301   9.112 -1.1784 -0.9036  1.7264
  113OSM   H18T11790   0.709   1.456   9.052  0.1874  1.1310  1.2993
  113OSM   H18U11791   0.646   1.386   9.194 -2.2359  2.5503 -1.8361
  113OSM    C1F11792   0.630   0.707  10.439  0.1702 -0.4864  0.2479
  113OSM     OF11793   0.603   0.587  10.458  0.2759 -0.1240  0.6852
  113OSM    C2F11794   0.686   0.751  10.314  0.3933  0.6253  0.0341
  113OSM    H2F11795   0.738   0.662  10.273 -3.1102 -0.6616 -1.8255
  113OSM    H2G11796   0.753   0.835  10.339 -0.1582  1.6040 -1.6618
  113OSM    C3F11797   0.582   0.784  10.208 -0.4664  0.0645 -0.2766
  113OSM    H3F11798   0.491   0.824  10.257 -0.3418 -0.7165  0.5872
  113OSM    H3G11799   0.548   0.688  10.164 -0.6586 -0.1452  0.3316
  113OSM    C4F11800   0.628   0.862  10.090 -0.1967 -0.1739 -0.1950
  113OSM    H4F11801   0.735   0.840  10.066 -0.3607 -1.3074  0.0959
  113OSM    H4G11802   0.615   0.966  10.127 -1.3240 -0.8420  1.3587
  113OSM    C5F11803   0.544   0.839   9.963 -0.2963 -0.3757  0.3137
  113OSM    H5F11804   0.452   0.895   9.991 -1.0683 -0.7631 -1.3685
  113OSM    H5G11805   0.537   0.729   9.948 -1.7259 -0.1092 -1.1143
  113OSM    C6F11806   0.621   0.894   9.839  0.1489 -0.8035 -0.1603
  113OSM    H6F11807   0.691   0.813   9.811  0.6108 -0.8974  1.2138
  113OSM    H6G11808   0.680   0.979   9.880 -2.1005 -0.2175  1.9825
  113OSM    C7F11809   0.537   0.942   9.728  0.1406  0.0462 -0.1486
  113OSM    H7F11810   0.473   1.024   9.766  0.5606 -0.7349  2.3614
  113OSM    H7G11811   0.463   0.863   9.699 -0.5176  0.5599  0.1216
  113OSM    C8F11812   0.623   0.985   9.606  0.2026  0.4441  0.3786
  113OSM    H8F11813   0.695   1.064   9.636  0.5673  0.2825 -0.0641
  113OSM    H8G11814   0.563   1.038   9.529 -0.4579 -0.6492  0.1202
  113OSM    C9F11815   0.682   0.866   9.538 -0.9296  0.4612 -0.2987
  113OSM    H9F11816   0.637   0.769   9.562 -1.0057  0.7490  0.7304
  113OSM   C10F11817   0.795   0.871   9.464  0.0297 -0.0249  0.0076
  113OSM   H10F11818   0.819   0.781   9.406 -1.4852  0.1192 -0.8794
  113OSM   C11F11819   0.869   0.994   9.426  0.2533  0.4357 -0.8502
  113OSM   H11F11820   0.975   0.984   9.457  0.1332  1.1996 -0.1833
  113OSM   H11G11821   0.834   1.084   9.482  0.7964 -0.8832  1.6549
  113OSM   C12F11822   0.830   1.029   9.274  0.5756  1.2196  0.4554
  113OSM   H12F11823   0.874   1.127   9.242 -1.2340  2.4130  1.5246
  113OSM   H12G11824   0.722   1.052   9.270  0.9143  2.5444 -2.3202
  113OSM   C13F11825   0.869   0.926   9.162  0.2697  0.0117 -0.5130
  113OSM   H13F11826   0.842   0.823   9.192  2.2065  0.0738  1.6059
  113OSM   H13G11827   0.979   0.930   9.149  0.7045  1.4453  2.8351
  113OSM   C14F11828   0.788   0.936   9.029 -0.0045 -0.3439  0.3697
  113OSM   H14F11829   0.837   1.024   8.982  0.7348 -0.3156  1.1789
  113OSM   H14G11830   0.680   0.956   9.046 -0.2419 -1.2593 -0.0668
  113OSM   C15F11831   0.805   0.810   8.941  0.1678  0.0810  0.0152
  113OSM   H15F11832   0.778   0.720   9.000 -0.2037 -1.2834 -2.1866
  113OSM   H15G11833   0.912   0.794   8.915 -0.0781 -1.1047 -0.2859
  113OSM   C16F11834   0.725   0.814   8.811 -0.0192 -0.0953  0.4788
  113OSM   H16F11835   0.627   0.856   8.843 -0.9210 -2.0741  0.3937
  113OSM   H16G11836   0.696   0.712   8.777  1.7330 -0.4842  0.1220
  113OSM   C17F11837   0.793   0.886   8.698  0.3923  0.2821  0.1882
  113OSM   H17F11838   0.884   0.830   8.666 -1.5865 -1.3861 -2.8070
  113OSM   H17G11839   0.843   0.981   8.728 -0.5855  0.7711  0.2746
  113OSM   C18F11840   0.691   0.907   8.583  0.1233  0.1566 -1.0755
  113OSM   H18F11841   0.744   0.951   8.496  1.8221 -1.6069 -0.9567
  113OSM   H18G11842   0.613   0.978   8.620 -0.2128 -0.7607  0.0147
  113OSM   H18H11843   0.651   0.807   8.556  1.7257 -0.8293  0.1196
  114OSM      N11844   1.993   4.259  11.193  0.1304  0.8008 -0.4135
  114OSM    C1511845   2.124   4.298  11.263 -0.2178 -0.7542 -0.3120
  114OSM   H15A11846   2.106   4.298  11.369  0.0082 -0.5165 -0.2724
  114OSM   H15B11847   2.166   4.396  11.245  1.4067 -1.7038 -1.8198
  114OSM   H15C11848   2.206   4.230  11.245 -0.8282 -0.9591 -2.5069
  114OSM    C1411849   1.935   4.145  11.271  0.2840  0.8254 -0.3854
  114OSM   H14A11850   2.001   4.061  11.287 -0.7875  0.1801  0.7348
  114OSM   H14B11851   1.854   4.107  11.210  0.5600  1.2490 -1.0164
  114OSM   H14C11852   1.893   4.170  11.367 -0.8260  0.9822 -0.9037
  114OSM    C1311853   1.901   4.377  11.191  0.9546 -0.1299 -0.3366
  114OSM   H13A11854   1.954   4.458  11.142  1.4948 -0.8070 -0.8881
  114OSM   H13B11855   1.870   4.415  11.287  1.3917 -0.0122 -0.2388
  114OSM   H13C11856   1.810   4.361  11.136  0.7234  0.5323 -0.1581
  114OSM    C1211857   2.026   4.214  11.050  0.6184 -0.0587 -0.1776
  114OSM   H12A11858   2.075   4.287  10.987  1.5567 -0.5716 -0.0536
  114OSM   H12B11859   1.934   4.195  10.998  0.6674  0.7558 -0.5716
  114OSM    C1111860   2.113   4.088  11.034  0.2095  0.8613 -0.0221
  114OSM   H11A11861   2.101   4.065  10.926  1.4941  0.9902 -0.1966
  114OSM   H11B11862   2.070   3.998  11.083  0.9739  0.7812  0.5085
  114OSM      P11863   2.366   4.004  11.054 -0.2484 -0.1781 -0.3422
  114OSM    O1311864   2.496   4.073  11.050  0.1866 -0.0622 -0.0840
  114OSM    O1411865   2.354   3.899  11.159  0.1516 -0.2503  0.0830
  114OSM    O1111866   2.338   3.942  10.908 -0.8080  0.1418  0.3667
  114OSM    O1211867   2.246   4.105  11.070  0.0531  0.8173 -0.3680
  114OSM    C1S11868   2.265   3.824  10.883  0.4172  0.0749  0.1522
  114OSM    H1S11869   2.165   3.836  10.930 -0.7513  1.4609 -2.5944
  114OSM    H1T11870   2.322   3.737  10.924 -0.0177 -1.5082 -2.5052
  114OSM     NF11871   2.147   3.685  10.720 -0.3071  0.7493 -0.1592
  114OSM    HNF11872   2.171   3.590  10.705 -0.3881  0.7083 -0.0221
  114OSM    C2S11873   2.251   3.785  10.735  0.7557  0.3424 -0.5464
  114OSM    H2S11874   2.215   3.880  10.691  1.1568  1.3967  1.3741
  114OSM    C3S11875   2.393   3.744  10.683 -0.7343 -0.0701 -0.1720
  114OSM    H3S11876   2.425   3.646  10.725  1.8926  1.9517  2.8588
  114OSM     O311877   2.498   3.843  10.709  0.9255 -0.1286  0.2474
  114OSM    HO311878   2.442   3.908  10.754 -0.0357  0.3776 -1.6476
  114OSM    C4S11879   2.386   3.739  10.539  0.2775  0.5779  0.7259
  114OSM    H4S11880   2.331   3.818  10.487  1.3166  0.6493 -0.2770
  114OSM    C5S11881   2.437   3.641  10.462  0.1918  0.0560 -0.4091
  114OSM    H5S11882   2.479   3.555  10.518  0.3643  1.1008  1.1041
  114OSM    C6S11883   2.424   3.630  10.314  0.3463 -0.0330  0.2487
  114OSM    H6S11884   2.361   3.708  10.265  1.4827  1.4748  1.1160
  114OSM    H6T11885   2.380   3.530  10.296 -2.6442  1.3618 -0.4503
  114OSM    C7S11886   2.564   3.632  10.249  0.5593 -0.4634 -0.4272
  114OSM    H7S11887   2.621   3.544  10.287  1.0438  0.3945  0.8978
  114OSM    H7T11888   2.612   3.726  10.285 -1.4468  0.8789 -1.1979
  114OSM    C8S11889   2.534   3.625  10.101  0.1359 -0.1266 -0.6217
  114OSM    H8S11890   2.491   3.726  10.083 -2.7482 -0.6600  2.6885
  114OSM    H8T11891   2.451   3.555  10.078 -2.7582  2.4387  1.4218
  114OSM    C9S11892   2.660   3.597  10.023  0.5708  0.1009 -0.5717
  114OSM    H9S11893   2.702   3.500  10.059 -0.6917 -0.4633 -0.6096
  114OSM    H9T11894   2.735   3.673  10.053 -1.3364  1.4945  0.7577
  114OSM   C10S11895   2.664   3.593   9.867  0.2823  0.5078  0.0498
  114OSM   H10S11896   2.656   3.698   9.831  0.2952  0.4106 -0.2395
  114OSM   H10T11897   2.586   3.529   9.821  0.5410  0.1159  0.1475
  114OSM   C11S11898   2.802   3.541   9.818  0.2688 -0.1237  0.1756
  114OSM   H11S11899   2.824   3.434   9.840  3.7473  0.6524  0.7711
  114OSM   H11T11900   2.884   3.594   9.870  0.5076 -0.9020  0.6007
  114OSM   C12S11901   2.835   3.561   9.671  0.2649  0.0473  0.1416
  114OSM   H12S11902   2.778   3.487   9.611 -3.1088  1.7182  1.1545
  114OSM   H12T11903   2.941   3.532   9.655  0.2492 -1.1497  2.1221
  114OSM   C13S11904   2.817   3.700   9.604  1.2154 -0.4976 -0.4416
  114OSM   H13S11905   2.872   3.770   9.670  1.4291  1.8513 -3.0208
  114OSM   H13T11906   2.706   3.709   9.601  1.2349 -0.7859 -2.1866
  114OSM   C14S11907   2.862   3.726   9.464  0.4181 -0.5330  0.7045
  114OSM   H14S11908   2.971   3.708   9.449  0.3812 -2.7806  2.7622
  114OSM   H14T11909   2.839   3.833   9.451 -0.3411 -0.7204  0.4610
  114OSM   C15S11910   2.790   3.650   9.344 -0.2466  0.0962 -0.5148
  114OSM   H15S11911   2.682   3.659   9.367  0.0461 -0.1858  1.0983
  114OSM   H15T11912   2.808   3.540   9.353 -1.8484 -0.3337 -2.2131
  114OSM   C16S11913   2.825   3.697   9.199 -0.4369 -0.2389  0.4708
  114OSM   H16S11914   2.917   3.640   9.172 -0.5158 -1.2627  2.2997
  114OSM   H16T11915   2.842   3.807   9.194 -1.4740 -0.0740  0.4363
  114OSM   C17S11916   2.718   3.674   9.089 -0.2045  1.1245 -0.2260
  114OSM   H17S11917   2.766   3.716   8.998 -2.1802  0.5906 -1.5348
  114OSM   H17T11918   2.622   3.724   9.116 -0.3301  0.4266  0.6364
  114OSM   C18S11919   2.683   3.527   9.066 -0.2204 -0.0251 -0.1091
  114OSM   H18S11920   2.765   3.454   9.045 -1.6823 -1.4935 -0.8594
  114OSM   H18T11921   2.614   3.519   8.979 -0.4294 -4.0005  0.3559
  114OSM   H18U11922   2.646   3.482   9.160  0.9326 -2.7120 -0.8719
  114OSM    C1F11923   2.018   3.717  10.739 -0.1486  0.7098 -0.3466
  114OSM     OF11924   1.985   3.829  10.763  0.3165 -0.0490  0.0002
  114OSM    C2F11925   1.914   3.607  10.739  0.6732  0.2184  0.0314
  114OSM    H2F11926   1.842   3.633  10.819  2.6462 -0.1970  1.9821
  114OSM    H2G11927   1.957   3.508  10.767  2.6088  0.4528 -1.9097
  114OSM    C3F11928   1.842   3.597  10.603  0.1887  0.4981  0.5803
  114OSM    H3F11929   1.787   3.692  10.583 -2.6536 -0.9060  1.5457
  114OSM    H3G11930   1.769   3.513  10.610  0.5866  0.0375 -0.6833
  114OSM    C4F11931   1.935   3.559  10.483 -0.0211  0.0595 -0.2117
  114OSM    H4F11932   2.025   3.503  10.516 -1.3377 -2.6112 -1.0545
  114OSM    H4G11933   1.987   3.653  10.456  1.7929 -1.3846 -1.8878
  114OSM    C5F11934   1.850   3.506  10.373  0.2599 -0.5910  0.5770
  114OSM    H5F11935   1.759   3.568  10.359  0.9337  0.0263 -1.2401
  114OSM    H5G11936   1.825   3.398  10.380 -0.1827 -0.6748 -1.8058
  114OSM    C6F11937   1.935   3.518  10.243 -0.7039 -0.7495 -0.1787
  114OSM    H6F11938   1.942   3.628  10.231 -1.5183 -0.7285 -0.5288
  114OSM    H6G11939   1.878   3.481  10.155  0.9986 -0.9777 -1.1925
  114OSM    C7F11940   2.073   3.454  10.253 -0.1042  0.4155  0.2587
  114OSM    H7F11941   2.065   3.352  10.296  2.8613 -0.7270 -1.8089
  114OSM    H7G11942   2.134   3.516  10.322  2.8152 -1.2830 -0.6918
  114OSM    C8F11943   2.146   3.440  10.116  0.1997  0.2056 -0.6544
  114OSM    H8F11944   2.091   3.363  10.058  0.9365  0.2619 -1.4446
  114OSM    H8G11945   2.246   3.398  10.141  0.0808 -0.2798 -0.9759
  114OSM    C9F11946   2.157   3.565  10.034 -0.0711  0.5570 -0.2723
  114OSM    H9F11947   2.176   3.662  10.082  0.3551 -0.0754  0.8528
  114OSM   C10F11948   2.170   3.576   9.896  0.7451 -0.0436 -0.1324
  114OSM   H10F11949   2.180   3.676   9.852 -1.1395 -0.7371 -2.2279
  114OSM   C11F11950   2.163   3.456   9.797 -0.0708  0.3546  0.4534
  114OSM   H11F11951   2.059   3.437   9.763 -0.1520  2.3210 -0.4656
  114OSM   H11G11952   2.191   3.370   9.861  3.8760  1.7180  0.6736
  114OSM   C12F11953   2.248   3.462   9.676  0.3990  0.2598  1.0251
  114OSM   H12F11954   2.271   3.357   9.649 -0.5962  0.8977 -2.5792
  114OSM   H12G11955   2.344   3.514   9.696  0.5039  0.2783  0.4881
  114OSM   C13F11956   2.172   3.523   9.554 -0.4715  0.9144  1.1303
  114OSM   H13F11957   2.133   3.627   9.560 -0.4077  1.1062 -1.2993
  114OSM   H13G11958   2.072   3.475   9.548  0.8715 -1.9927  1.4850
  114OSM   C14F11959   2.258   3.519   9.420  0.8553 -0.0280  0.1688
  114OSM   H14F11960   2.293   3.416   9.398 -0.7773 -0.6942  0.6186
  114OSM   H14G11961   2.345   3.588   9.427  2.4988 -2.2874  2.8998
  114OSM   C15F11962   2.177   3.574   9.300  0.2719 -0.3264  0.0748
  114OSM   H15F11963   2.152   3.680   9.320 -0.6024 -1.3552  5.0230
  114OSM   H15G11964   2.078   3.528   9.279 -0.2972  1.4442 -1.2068
  114OSM   C16F11965   2.262   3.585   9.175  1.0474 -0.1317  0.8992
  114OSM   H16F11966   2.371   3.599   9.191  1.1081 -0.4895  0.7844
  114OSM   H16G11967   2.248   3.677   9.114  0.3974 -0.4972  0.4960
  114OSM   C17F11968   2.245   3.463   9.081 -0.2611  0.2498  0.3995
  114OSM   H17F11969   2.136   3.441   9.068  0.3077 -2.5297  0.1046
  114OSM   H17G11970   2.292   3.373   9.127 -1.0555 -2.1683 -3.2612
  114OSM   C18F11971   2.305   3.475   8.942 -0.2045  0.0625  0.3345
  114OSM   H18F11972   2.407   3.432   8.934 -1.3446 -2.5568 -0.7181
  114OSM   H18G11973   2.303   3.579   8.903 -0.1103  0.3445  1.0922
  114OSM   H18H11974   2.246   3.412   8.872  0.3839 -1.3688  1.1058
  115OSM      N11975   6.637   2.337  10.946  0.3289 -0.2937  0.4325
  115OSM    C1511976   6.662   2.369  10.805  0.9565 -0.3686 -0.8852
  115OSM   H15A11977   6.573   2.399  10.751  2.3824 -0.2688 -3.2385
  115OSM   H15B11978   6.692   2.282  10.748  0.2256 -0.8204 -0.6011
  115OSM   H15C11979   6.736   2.444  10.784  2.1764 -1.7617 -1.6793
  115OSM    C1411980   6.758   2.294  11.018  0.2687  0.1565 -0.0758
  115OSM   H14A11981   6.809   2.221  10.957  1.9638 -2.4948  4.3031
  115OSM   H14B11982   6.747   2.261  11.120 -0.4963  0.2170 -0.1334
  115OSM   H14C11983   6.830   2.374  11.028  0.5039 -0.1065  0.3184
  115OSM    C1311984   6.581   2.454  11.026 -0.8088  0.5373 -0.3310
  115OSM   H13A11985   6.489   2.483  10.978 -1.1951  0.1633  0.1854
  115OSM   H13B11986   6.658   2.530  11.022 -1.5711  1.3769  0.9851
  115OSM   H13C11987   6.573   2.425  11.129 -1.4738 -0.8945 -0.7781
  115OSM    C1211988   6.532   2.229  10.958 -0.3002  0.2504 -0.0339
  115OSM   H12A11989   6.531   2.201  11.062 -1.7149  0.8766  0.1364
  115OSM   H12B11990   6.558   2.135  10.913  1.0396  1.9606 -2.9817
  115OSM    C1111991   6.387   2.257  10.898 -0.1958 -0.1393 -0.3368
  115OSM   H11A11992   6.340   2.156  10.903  1.0674 -0.7331 -0.1290
  115OSM   H11B11993   6.402   2.265  10.788 -0.7359 -0.5307 -0.4369
  115OSM      P11994   6.231   2.342  11.081  0.0238 -0.3165  0.1554
  115OSM    O1311995   6.291   2.242  11.172  0.4520  0.3080 -0.5384
  115OSM    O1411996   6.203   2.477  11.139  0.6160  0.3282  0.1404
  115OSM    O1111997   6.103   2.286  11.012  0.3232 -0.0726 -0.3048
  115OSM    O1211998   6.313   2.367  10.957 -0.5277  0.2884 -0.3110
  115OSM    C1S11999   6.024   2.350  10.908 -0.1701 -0.5320  0.3171
  115OSM    H1S12000   6.039   2.460  10.902  0.6265 -0.7064 -1.3259
  115OSM    H1T12001   5.916   2.332  10.928 -0.6411  1.7049 -0.0438
  115OSM     NF12002   5.980   2.359  10.661  0.0574 -0.1426 -0.1357
  115OSM    HNF12003   5.899   2.315  10.623  0.5920  0.1357 -1.6480
  115OSM    C2S12004   6.045   2.286  10.769 -0.2642  0.3026  0.8305
  115OSM    H2S12005   6.155   2.290  10.752 -0.3619 -0.6476 -0.0994
  115OSM    C3S12006   5.997   2.137  10.767 -0.3703  0.5796  0.5191
  115OSM    H3S12007   5.886   2.150  10.772 -0.7366 -0.2319 -3.4058
  115OSM     O312008   6.035   2.055  10.880 -0.0132  0.1190 -0.3027
  115OSM    HO312009   6.059   2.118  10.948  0.5907 -0.4650  0.0339
  115OSM    C4S12010   6.032   2.059  10.638 -0.5578 -0.3985  0.2316
  115OSM    H4S12011   6.139   2.075  10.619 -0.2421 -0.1045  2.1640
  115OSM    C5S12012   5.952   1.993  10.551 -0.1463  0.0574  0.2413
  115OSM    H5S12013   5.842   1.988  10.549 -0.0986 -0.8424 -1.8265
  115OSM    C6S12014   6.014   1.929  10.434  0.0665  0.2138 -0.3121
  115OSM    H6S12015   6.123   1.927  10.451 -0.1326  2.7406  1.4825
  115OSM    H6T12016   6.005   1.990  10.342  1.0890  0.6224 -0.1372
  115OSM    C7S12017   5.950   1.788  10.404  0.0237  0.3882 -0.1794
  115OSM    H7S12018   5.840   1.793  10.388 -0.0030 -0.8498 -0.4305
  115OSM    H7T12019   5.970   1.729  10.495  0.7608  1.8394  0.6047
  115OSM    C8S12020   6.026   1.725  10.292 -0.0573  0.9234 -0.4363
  115OSM    H8S12021   5.984   1.624  10.277 -1.0494  0.9089  2.2771
  115OSM    H8T12022   6.133   1.713  10.318  0.2007 -0.4211 -2.0288
  115OSM    C9S12023   6.014   1.801  10.156 -0.2974 -0.2400 -0.3246
  115OSM    H9S12024   6.076   1.737  10.090 -2.7772 -1.5360 -1.4844
  115OSM    H9T12025   6.073   1.894  10.169  0.8605 -0.9711 -0.3310
  115OSM   C10S12026   5.874   1.816  10.091 -0.2337  0.1690 -0.2981
  115OSM   H10S12027   5.806   1.849  10.173  1.9258 -0.7106  1.9393
  115OSM   H10T12028   5.848   1.712  10.065  1.4637 -0.0987 -0.9926
  115OSM   C11S12029   5.873   1.930   9.991  0.0002 -0.1476 -0.0546
  115OSM   H11S12030   5.937   2.017  10.014 -0.2383 -0.1935  0.7814
  115OSM   H11T12031   5.774   1.980   9.995 -0.1292 -0.4714  0.9496
  115OSM   C12S12032   5.908   1.887   9.847  0.5310  0.1178 -0.2227
  115OSM   H12S12033   5.879   1.781   9.828 -0.1444  0.6133 -2.0276
  115OSM   H12T12034   6.019   1.888   9.835  0.7190 -2.2319  0.8837
  115OSM   C13S12035   5.846   1.979   9.741  0.4622 -0.0184 -0.4212
  115OSM   H13S12036   5.889   2.080   9.761 -1.0803  0.3492  1.1684
  115OSM   H13T12037   5.736   1.974   9.750  0.2609  0.8609 -2.1831
  115OSM   C14S12038   5.872   1.932   9.596  0.7624 -0.4467 -0.2995
  115OSM   H14S12039   5.846   1.825   9.586 -1.0670  0.2119 -2.9998
  115OSM   H14T12040   5.982   1.941   9.585  0.8400 -0.0396  0.7326
  115OSM   C15S12041   5.814   2.019   9.483 -0.3518 -0.2785 -0.1433
  115OSM   H15S12042   5.840   2.126   9.494  0.6779 -0.4168 -1.0978
  115OSM   H15T12043   5.704   2.022   9.501 -0.1220  0.9245  1.0313
  115OSM   C16S12044   5.829   1.966   9.344  0.8974  0.1635 -1.0053
  115OSM   H16S12045   5.794   1.861   9.350 -0.1146  0.5692  0.8796
  115OSM   H16T12046   5.937   1.964   9.320  0.5771 -1.4053 -2.4014
  115OSM   C17S12047   5.742   2.048   9.249 -0.3096 -0.2000 -0.2122
  115OSM   H17S12048   5.759   2.157   9.256  1.7196 -0.4625 -0.7289
  115OSM   H17T12049   5.633   2.040   9.269 -0.0640  0.0713  1.2667
  115OSM   C18S12050   5.781   2.011   9.100  0.5495  0.6586 -0.2073
  115OSM   H18S12051   5.795   1.901   9.097 -1.6060  0.3168  0.7790
  115OSM   H18T12052   5.874   2.057   9.062  0.3521 -1.0496 -2.9305
  115OSM   H18U12053   5.689   2.031   9.040  0.1859  1.1884  0.5202
  115OSM    C1F12054   6.024   2.482  10.637 -0.5458  0.3187  0.0394
  115OSM     OF12055   6.129   2.518  10.688 -0.2392 -0.2572  0.4056
  115OSM    C2F12056   5.936   2.574  10.564  0.3573  0.3059  0.0923
  115OSM    H2F12057   5.854   2.612  10.629  0.7477  1.0133  0.1747
  115OSM    H2G12058   5.891   2.523  10.476 -0.9650  0.9640  0.3654
  115OSM    C3F12059   6.014   2.695  10.516  0.1528 -1.0175  0.3878
  115OSM    H3F12060   6.064   2.751  10.598  2.0407  0.8988 -1.9858
  115OSM    H3G12061   5.940   2.772  10.484  1.1267 -0.6846 -1.1555
  115OSM    C4F12062   6.113   2.666  10.402 -0.2346 -0.1921  0.6595
  115OSM    H4F12063   6.051   2.614  10.326 -1.3135  2.0608 -0.0337
  115OSM    H4G12064   6.192   2.595  10.434  0.5665 -0.3263 -1.5020
  115OSM    C5F12065   6.169   2.799  10.336  1.2537  0.3211  0.6611
  115OSM    H5F12066   6.251   2.820  10.408  0.4626  2.2750  1.0307
  115OSM    H5G12067   6.088   2.873  10.320 -0.2942 -1.8740 -2.0863
  115OSM    C6F12068   6.239   2.769  10.202 -0.0621 -0.0603 -0.0701
  115OSM    H6F12069   6.161   2.716  10.143  0.9673 -0.4156 -1.1423
  115OSM    H6G12070   6.318   2.693  10.223  1.3954  0.9250 -1.8439
  115OSM    C7F12071   6.284   2.897  10.126 -0.0663 -0.1682  0.3212
  115OSM    H7F12072   6.365   2.950  10.181 -1.7289  2.4562  0.3022
  115OSM    H7G12073   6.203   2.970  10.105  1.6003  2.3453  2.3307
  115OSM    C8F12074   6.363   2.870   9.995 -0.1887 -0.1518  0.4028
  115OSM    H8F12075   6.441   2.791   9.996 -1.8020 -1.9283 -3.3950
  115OSM    H8G12076   6.422   2.955   9.955 -2.0615  1.5531  1.1526
  115OSM    C9F12077   6.276   2.817   9.887 -0.4225 -0.0050 -0.7079
  115OSM    H9F12078   6.202   2.740   9.913  0.8431 -0.5621  1.2950
  115OSM   C10F12079   6.286   2.852   9.754 -0.0877  0.5804  0.2264
  115OSM   H10F12080   6.217   2.798   9.687  1.2337  0.8439 -1.3910
  115OSM   C11F12081   6.381   2.949   9.687 -0.0598 -0.1362 -0.3243
  115OSM   H11F12082   6.460   2.992   9.751  0.8923 -0.1259 -1.4911
  115OSM   H11G12083   6.325   3.037   9.650 -0.0393  0.2323  0.5127
  115OSM   C12F12084   6.450   2.861   9.575  0.8083  0.0257  0.1335
  115OSM   H12F12085   6.494   2.771   9.622 -1.4722 -0.1182  2.1418
  115OSM   H12G12086   6.529   2.928   9.536 -0.1192  0.3532 -1.2424
  115OSM   C13F12087   6.355   2.832   9.456 -0.3858  0.5136 -0.2508
  115OSM   H13F12088   6.284   2.914   9.430 -0.9288  0.3725  0.7543
  115OSM   H13G12089   6.290   2.746   9.483  1.0143 -1.0956 -1.8929
  115OSM   C14F12090   6.443   2.799   9.337 -0.6437 -0.5164 -0.0874
  115OSM   H14F12091   6.518   2.718   9.353  1.9490  1.6369 -0.9099
  115OSM   H14G12092   6.505   2.887   9.312  1.2564 -1.7741  0.0540
  115OSM   C15F12093   6.358   2.757   9.217 -0.2986  0.1598 -0.1801
  115OSM   H15F12094   6.305   2.846   9.178 -1.1072 -0.0509  0.4334
  115OSM   H15G12095   6.291   2.675   9.250 -0.5190  0.7420  0.8464
  115OSM   C16F12096   6.441   2.704   9.105 -0.2255 -0.2688 -0.5669
  115OSM   H16F12097   6.483   2.603   9.128  1.1211  0.3078 -0.4528
  115OSM   H16G12098   6.524   2.773   9.078 -1.5259  0.8185 -1.8354
  115OSM   C17F12099   6.364   2.676   8.976 -0.6041  1.0397  1.2736
  115OSM   H17F12100   6.319   2.774   8.948 -1.5433  0.0136 -0.8707
  115OSM   H17G12101   6.280   2.608   8.997  1.2704 -2.1593 -1.2239
  115OSM   C18F12102   6.458   2.622   8.868 -0.5697  0.5756  0.6535
  115OSM   H18F12103   6.394   2.606   8.779  0.1079 -3.2101  0.7635
  115OSM   H18G12104   6.515   2.533   8.904 -0.9007  0.8896  1.9990
  115OSM   H18H12105   6.543   2.688   8.842  0.2399  0.6914  3.3884
  116OSM      N12106   2.220   5.733  10.957  0.4550  0.2213  0.9037
  116OSM    C1512107   2.077   5.775  10.955  0.8813  0.3453  0.6687
  116OSM   H15A12108   2.014   5.720  10.886  2.3489  1.6323 -1.7801
  116OSM   H15B12109   2.073   5.874  10.911  3.0543  0.5758  0.9492
  116OSM   H15C12110   2.043   5.785  11.057  0.2483  1.5038  0.3582
  116OSM    C1412111   2.289   5.820  11.049 -0.2665 -0.1196 -0.0260
  116OSM   H14A12112   2.237   5.811  11.144 -0.2633 -0.9592 -0.0998
  116OSM   H14B12113   2.300   5.927  11.041  2.3839 -0.4596 -1.2260
  116OSM   H14C12114   2.394   5.796  11.054 -0.1849 -0.4793 -2.8544
  116OSM    C1312115   2.238   5.598  11.013  0.4261  0.2284 -0.0302
  116OSM   H13A12116   2.200   5.581  11.113 -1.2696  0.7619 -0.5561
  116OSM   H13B12117   2.341   5.565  11.013  0.7364  1.1310  1.4933
  116OSM   H13C12118   2.194   5.530  10.943 -0.6282 -0.4766  1.2971
  116OSM    C1212119   2.286   5.741  10.818  0.4623  0.2095 -0.6815
  116OSM   H12A12120   2.265   5.839  10.776 -0.5811  0.4015  0.2547
  116OSM   H12B12121   2.249   5.659  10.759 -1.1480 -0.4518  1.2168
  116OSM    C1112122   2.437   5.753  10.805  0.4503  0.5542 -0.4472
  116OSM   H11A12123   2.475   5.844  10.855 -1.2111  1.1235 -0.1638
  116OSM   H11B12124   2.461   5.767  10.697  0.5061 -1.4757 -0.7157
  116OSM      P12125   2.618   5.650  10.957 -0.2432 -0.0379 -0.2628
  116OSM    O1312126   2.579   5.723  11.082  0.5106  0.0914  0.3482
  116OSM    O1412127   2.690   5.524  10.981 -1.1309  0.2331  0.5713
  116OSM    O1112128   2.703   5.750  10.874 -0.3657 -0.1403 -0.6773
  116OSM    O1212129   2.500   5.630  10.854  0.5715  0.0231 -0.0855
  116OSM    C1S12130   2.746   5.724  10.744 -0.5967 -0.0889 -1.0645
  116OSM    H1S12131   2.676   5.651  10.699 -1.3772  0.1489 -0.2495
  116OSM    H1T12132   2.842   5.669  10.756 -0.7990 -0.3710 -0.7669
  116OSM     NF12133   2.796   5.802  10.520 -0.2266  0.4105 -0.5790
  116OSM    HNF12134   2.887   5.807  10.478 -0.3311 -0.9213 -0.9641
  116OSM    C2S12135   2.765   5.847  10.650 -0.5022  0.3723  0.2426
  116OSM    H2S12136   2.667   5.899  10.638 -0.6731 -0.3875 -1.6610
  116OSM    C3S12137   2.862   5.948  10.716  0.0211 -0.2559 -0.0856
  116OSM    H3S12138   2.960   5.901  10.736  1.1781  1.4369 -1.5011
  116OSM     O312139   2.824   5.991  10.846 -0.4309  0.1291 -0.5849
  116OSM    HO312140   2.735   5.961  10.864 -0.3084 -0.9217 -1.6570
  116OSM    C4S12141   2.887   6.067  10.622  0.7831 -0.3167  0.2474
  116OSM    H4S12142   2.966   6.046  10.549  0.8354  0.3780  0.0999
  116OSM    C5S12143   2.826   6.186  10.628 -0.3880  0.1718  0.6954
  116OSM    H5S12144   2.752   6.208  10.705 -1.9694 -1.9346 -0.1688
  116OSM    C6S12145   2.861   6.293  10.525 -0.2310  0.2467  0.0985
  116OSM    H6S12146   2.922   6.247  10.444  0.1373 -2.1124  1.6576
  116OSM    H6T12147   2.932   6.355  10.584 -1.6205  1.5720  0.3879
  116OSM    C7S12148   2.751   6.376  10.458  0.3184  0.3194  1.1816
  116OSM    H7S12149   2.686   6.415  10.539 -0.3906 -0.2017  0.8662
  116OSM    H7T12150   2.696   6.308  10.390 -1.5223  2.0888  0.8537
  116OSM    C8S12151   2.801   6.502  10.384  0.1024  0.7967  0.4025
  116OSM    H8S12152   2.877   6.479  10.307 -1.7009  2.7010 -2.0384
  116OSM    H8T12153   2.854   6.573  10.451 -1.0709  1.2582  0.8672
  116OSM    C9S12154   2.694   6.594  10.314 -0.0772  0.0119  0.1409
  116OSM    H9S12155   2.750   6.688  10.293  0.0471 -0.1263 -0.1536
  116OSM    H9T12156   2.608   6.608  10.383 -0.5434  1.5511 -0.7160
  116OSM   C10S12157   2.630   6.533  10.191 -0.2555 -0.9239 -1.1287
  116OSM   H10S12158   2.560   6.610  10.154  1.2909  0.5657 -1.0099
  116OSM   H10T12159   2.578   6.436  10.211 -2.1872  0.0332 -1.4605
  116OSM   C11S12160   2.731   6.496  10.076 -0.9289 -0.7234 -0.1636
  116OSM   H11S12161   2.772   6.394  10.093  1.6349  0.3422  0.2710
  116OSM   H11T12162   2.811   6.573  10.079  0.5833 -2.2961  0.3262
  116OSM   C12S12163   2.671   6.492   9.939 -0.3676  0.4186 -0.6733
  116OSM   H12S12164   2.620   6.588   9.916  2.8331  1.8061 -2.2719
  116OSM   H12T12165   2.599   6.407   9.941 -2.0941  1.8168 -1.8305
  116OSM   C13S12166   2.782   6.484   9.827 -0.2775  0.1055  0.0518
  116OSM   H13S12167   2.853   6.401   9.849 -0.8288 -0.4567 -0.2848
  116OSM   H13T12168   2.845   6.573   9.849 -1.3294  0.4651  1.7073
  116OSM   C14S12169   2.719   6.483   9.683  0.5565  0.1224  0.0466
  116OSM   H14S12170   2.794   6.516   9.609  1.4461  1.2796  1.4223
  116OSM   H14T12171   2.649   6.568   9.665  1.3294  0.3447 -1.9739
  116OSM   C15S12172   2.649   6.352   9.633  0.8614  0.6243 -0.0676
  116OSM   H15S12173   2.574   6.312   9.704  2.0361  2.3766  2.2030
  116OSM   H15T12174   2.728   6.274   9.628  2.1906  2.0934 -4.1500
  116OSM   C16S12175   2.590   6.373   9.487 -0.5004 -0.1187  0.5477
  116OSM   H16S12176   2.512   6.452   9.491  0.6497  1.2085 -2.4008
  116OSM   H16T12177   2.526   6.283   9.475  0.7916 -1.3320  2.3108
  116OSM   C17S12178   2.689   6.373   9.370 -0.2165 -0.1106 -0.3510
  116OSM   H17S12179   2.745   6.279   9.388 -0.9365 -0.2193  1.4536
  116OSM   H17T12180   2.757   6.460   9.377  1.5058 -1.1784 -2.9902
  116OSM   C18S12181   2.625   6.370   9.231  0.5068 -0.4001  1.1262
  116OSM   H18S12182   2.551   6.290   9.213 -1.4240  1.3314  1.1334
  116OSM   H18T12183   2.699   6.366   9.148  1.4004  0.6364  1.8460
  116OSM   H18U12184   2.570   6.464   9.210  0.1637 -0.7016  0.6842
  116OSM    C1F12185   2.717   5.736  10.444  0.6665  1.5055 -0.0527
  116OSM     OF12186   2.599   5.708  10.470  0.0283  0.1887 -0.3907
  116OSM    C2F12187   2.775   5.690  10.316 -0.3863  0.1024 -0.0421
  116OSM    H2F12188   2.846   5.604  10.320 -0.2234  0.2279 -0.2115
  116OSM    H2G12189   2.837   5.774  10.278 -0.1438  0.1921  0.5583
  116OSM    C3F12190   2.666   5.653  10.210  0.0772 -0.4429  0.7089
  116OSM    H3F12191   2.606   5.743  10.182  1.5155  1.0417  2.2215
  116OSM    H3G12192   2.593   5.582  10.253  1.2931 -2.9322 -1.2359
  116OSM    C4F12193   2.733   5.590  10.081 -1.0429 -0.8563  0.8134
  116OSM    H4F12194   2.821   5.528  10.107  0.3452  1.5922  2.1323
  116OSM    H4G12195   2.767   5.676  10.020 -1.5959 -0.4561  1.0566
  116OSM    C5F12196   2.642   5.485  10.015  0.2407 -0.7279  0.1152
  116OSM    H5F12197   2.563   5.538   9.958  1.5004  0.5211 -0.5070
  116OSM    H5G12198   2.588   5.418  10.085 -0.8080 -0.0511 -0.0387
  116OSM    C6F12199   2.723   5.407   9.911  0.5865  0.5868 -0.4504
  116OSM    H6F12200   2.794   5.335   9.956 -0.3093 -1.2388 -1.9212
  116OSM    H6G12201   2.791   5.480   9.863 -1.5419  2.3902 -0.8087
  116OSM    C7F12202   2.641   5.330   9.809  0.0340 -0.5077  0.1094
  116OSM    H7F12203   2.562   5.404   9.783  2.1877  1.1457 -2.0699
  116OSM    H7G12204   2.589   5.250   9.866  0.9063 -0.6676  0.6872
  116OSM    C8F12205   2.735   5.281   9.697 -0.3106 -0.1025  0.1682
  116OSM    H8F12206   2.802   5.205   9.742 -0.8144 -0.4189  0.3918
  116OSM    H8G12207   2.794   5.372   9.672 -0.8027  0.2951  0.4488
  116OSM    C9F12208   2.648   5.229   9.580  0.0833  0.5516 -0.4676
  116OSM    H9F12209   2.581   5.146   9.607  0.0670  0.5817 -0.4161
  116OSM   C10F12210   2.649   5.266   9.449  1.3462 -0.7433 -0.0746
  116OSM   H10F12211   2.581   5.219   9.376  3.6330  0.0880 -2.8413
  116OSM   C11F12212   2.738   5.375   9.404 -0.4699  0.1793 -0.2059
  116OSM   H11F12213   2.747   5.450   9.485  0.1714  1.3087 -1.3097
  116OSM   H11G12214   2.681   5.439   9.333  0.3377  1.6550  0.4448
  116OSM   C12F12215   2.875   5.335   9.344 -0.0214  0.0089  0.3778
  116OSM   H12F12216   2.931   5.310   9.436  0.1716 -1.4258 -0.1096
  116OSM   H12G12217   2.932   5.422   9.307  3.2420 -1.7021  1.1618
  116OSM   C13F12218   2.880   5.217   9.242 -0.6762 -0.4836 -0.2846
  116OSM   H13F12219   2.838   5.122   9.280  1.5375 -0.8459  1.2722
  116OSM   H13G12220   2.981   5.186   9.208 -1.2519  0.3326 -2.9096
  116OSM   C14F12221   2.801   5.267   9.117 -0.3709  0.5029 -0.1037
  116OSM   H14F12222   2.715   5.331   9.146 -0.1045 -0.3430  2.6492
  116OSM   H14G12223   2.764   5.174   9.069  0.7241 -0.2326  0.4688
  116OSM   C15F12224   2.907   5.326   9.023  0.3612 -0.0211 -0.4400
  116OSM   H15F12225   2.993   5.257   9.020  1.2735  1.0312  0.8871
  116OSM   H15G12226   2.933   5.430   9.051 -1.8967  0.6745 -0.7534
  116OSM   C16F12227   2.849   5.346   8.880  0.2032 -0.5353  0.2347
  116OSM   H16F12228   2.764   5.418   8.879  0.8288  0.2204  0.7464
  116OSM   H16G12229   2.803   5.249   8.850 -0.7139 -0.3230  0.9599
  116OSM   C17F12230   2.949   5.411   8.779 -0.2214  0.9603 -0.3761
  116OSM   H17F12231   3.029   5.334   8.774 -3.4806 -2.6204  0.3517
  116OSM   H17G12232   3.004   5.500   8.817  0.4414  0.0064  0.9541
  116OSM   C18F12233   2.892   5.432   8.638  0.0159  0.2537  0.0261
  116OSM   H18F12234   2.977   5.480   8.585  1.1733 -0.3880  1.2685
  116OSM   H18G12235   2.811   5.509   8.637  1.8697  2.2628  0.1447
  116OSM   H18H12236   2.873   5.334   8.590  1.9606  0.3828 -1.0256
  117OSM      N12237   6.755   6.774  11.105 -0.0361  0.6496  0.0076
  117OSM    C1512238   6.601   6.795  11.118 -0.0227  0.1302  0.1067
  117OSM   H15A12239   6.579   6.893  11.080  1.2419  0.1494 -0.6159
  117OSM   H15B12240   6.562   6.777  11.217  0.2211 -2.6298 -0.2559
  117OSM   H15C12241   6.563   6.734  11.037  1.8622  0.4632 -1.0592
  117OSM    C1412242   6.820   6.862  11.203  0.1761  0.6548  0.0913
  117OSM   H14A12243   6.768   6.861  11.297 -0.1203  1.3010 -0.0595
  117OSM   H14B12244   6.814   6.965  11.171 -0.2537  0.0795 -1.7682
  117OSM   H14C12245   6.925   6.840  11.211 -0.3182 -1.6832  0.5617
  117OSM    C1312246   6.784   6.630  11.145  0.5478  0.1397  0.2574
  117OSM   H13A12247   6.887   6.599  11.132 -0.1195 -2.2509  0.4209
  117OSM   H13B12248   6.716   6.575  11.081 -0.1574  2.8344 -1.3861
  117OSM   H13C12249   6.762   6.610  11.248 -1.2977 -0.0613 -0.1637
  117OSM    C1212250   6.799   6.799  10.959  1.0381 -0.2742  0.9318
  117OSM   H12A12251   6.746   6.726  10.899 -0.7816  1.0992  0.8330
  117OSM   H12B12252   6.904   6.775  10.945  0.8374 -0.1861 -0.8403
  117OSM    C1112253   6.773   6.936  10.885 -0.0115 -0.0699  0.8311
  117OSM   H11A12254   6.663   6.948  10.874 -0.2893 -0.8310  2.5893
  117OSM   H11B12255   6.803   6.932  10.778 -2.8808 -0.2300 -0.0232
  117OSM      P12256   6.989   7.074  10.932  0.3291 -0.0891  0.0957
  117OSM    O1312257   7.002   7.212  10.988 -0.6261  0.1715  0.2581
  117OSM    O1412258   7.054   6.965  11.003 -0.1675  0.5788  0.4348
  117OSM    O1112259   7.024   7.075  10.778  0.5657  0.8152 -0.1112
  117OSM    O1212260   6.832   7.046  10.943 -0.0669 -0.5891 -0.2259
  117OSM    C1S12261   7.157   7.112  10.733  0.1547  0.4690 -0.6897
  117OSM    H1S12262   7.242   7.059  10.780  0.6953 -0.2999 -2.4587
  117OSM    H1T12263   7.176   7.220  10.751 -0.9220  0.7630 -1.2698
  117OSM     NF12264   7.317   7.125  10.544  0.2717 -0.1905  0.4829
  117OSM    HNF12265   7.342   7.216  10.513  0.5773  0.1629  1.7401
  117OSM    C2S12266   7.174   7.097  10.577 -0.2195  0.4722  0.0092
  117OSM    H2S12267   7.154   6.991  10.548  1.9163 -0.2631  1.1162
  117OSM    C3S12268   7.075   7.191  10.502 -0.1179 -0.3110  0.0073
  117OSM    H3S12269   7.106   7.297  10.515  0.6973  0.1866 -4.7967
  117OSM     O312270   6.940   7.179  10.539 -0.1856  0.7360 -1.1604
  117OSM    HO312271   6.947   7.139  10.626  1.1178 -0.4756 -1.8068
  117OSM    C4S12272   7.078   7.166  10.351 -0.1317  1.0239 -0.0161
  117OSM    H4S12273   7.030   7.072  10.319 -2.6196  1.1949  2.9863
  117OSM    C5S12274   7.133   7.251  10.253  0.3482 -0.0104 -0.7060
  117OSM    H5S12275   7.177   7.349  10.278 -0.3047 -0.1080  0.8493
  117OSM    C6S12276   7.128   7.215  10.107  0.0592  0.3793 -0.5716
  117OSM    H6S12277   7.081   7.294  10.044 -0.3787  0.3433 -0.2898
  117OSM    H6T12278   7.078   7.116  10.098  0.8513 -0.1179  0.3729
  117OSM    C7S12279   7.266   7.193  10.043 -0.1090 -0.5071  0.8935
  117OSM    H7S12280   7.313   7.104  10.090  0.4863 -0.9416 -0.4924
  117OSM    H7T12281   7.330   7.282  10.058 -3.6320  2.1749  0.7341
  117OSM    C8S12282   7.256   7.162   9.892  0.1766 -0.6115 -0.5085
  117OSM    H8S12283   7.205   7.245   9.839  0.3666  0.7680  1.4362
  117OSM    H8T12284   7.198   7.068   9.880  0.3480 -0.8443  0.4967
  117OSM    C9S12285   7.398   7.141   9.830 -0.5703  0.0643  0.8963
  117OSM    H9S12286   7.369   7.103   9.729 -1.2445  2.2850  0.2200
  117OSM    H9T12287   7.452   7.060   9.883 -1.7324 -0.9784  0.4928
  117OSM   C10S12288   7.481   7.269   9.824  0.1424 -0.6249 -0.3854
  117OSM   H10S12289   7.520   7.297   9.924 -2.6748  1.0931  0.2961
  117OSM   H10T12290   7.415   7.356   9.802  1.1088  0.2128 -0.0008
  117OSM   C11S12291   7.596   7.271   9.718  0.0040 -0.2984  0.6088
  117OSM   H11S12292   7.548   7.259   9.619  0.5246 -0.4691  0.3733
  117OSM   H11T12293   7.644   7.171   9.712  0.6554  0.2191 -3.9708
  117OSM   C12S12294   7.697   7.383   9.743 -0.0112  0.8967  0.0378
  117OSM   H12S12295   7.732   7.384   9.848  0.7325  0.4405 -0.2041
  117OSM   H12T12296   7.654   7.483   9.720 -1.0958  0.0428 -1.7122
  117OSM   C13S12297   7.825   7.366   9.657 -0.2014 -0.4924  0.5425
  117OSM   H13S12298   7.817   7.416   9.558 -0.2790  0.9220  1.2404
  117OSM   H13T12299   7.847   7.259   9.638  2.9135  0.0683  0.6798
  117OSM   C14S12300   7.950   7.432   9.732  0.0233  0.2766  0.6114
  117OSM   H14S12301   8.041   7.382   9.692  0.2986  0.6801  0.7325
  117OSM   H14T12302   7.962   7.398   9.837  2.0407  0.3130  0.4169
  117OSM   C15S12303   7.964   7.586   9.713 -0.2845  0.7317 -0.3861
  117OSM   H15S12304   7.872   7.629   9.758 -1.3489 -1.2923 -0.5614
  117OSM   H15T12305   7.957   7.604   9.603  1.4761  1.3362 -0.4115
  117OSM   C16S12306   8.093   7.648   9.770 -0.1984  0.0586 -0.7044
  117OSM   H16S12307   8.096   7.759   9.777 -1.4511  0.2723 -2.9539
  117OSM   H16T12308   8.177   7.618   9.703  0.9724  0.2016  0.6780
  117OSM   C17S12309   8.138   7.590   9.910 -0.1842  0.5889  0.2490
  117OSM   H17S12310   8.178   7.487   9.894  2.2380  1.5490 -0.0823
  117OSM   H17T12311   8.065   7.580   9.993 -0.6428 -0.1879 -0.2312
  117OSM   C18S12312   8.262   7.663   9.962 -0.0139 -0.9066  0.6145
  117OSM   H18S12313   8.319   7.602  10.035  0.6221  0.3985  1.2289
  117OSM   H18T12314   8.215   7.743  10.023 -0.5130  2.0977 -3.4488
  117OSM   H18U12315   8.332   7.707   9.887  0.4994 -2.4616  0.1669
  117OSM    C1F12316   7.409   7.031  10.573 -0.3929  0.3791  1.0096
  117OSM     OF12317   7.380   6.928  10.630  0.7533  0.2028  0.0787
  117OSM    C2F12318   7.555   7.062  10.536  0.5213  0.7161 -0.4895
  117OSM    H2F12319   7.603   7.076  10.635  0.1879 -0.6026 -0.1310
  117OSM    H2G12320   7.554   7.156  10.477  1.7706 -0.4205 -2.3665
  117OSM    C3F12321   7.618   6.942  10.454 -0.5903  0.5157  1.0254
  117OSM    H3F12322   7.612   6.845  10.508  1.8421 -0.4342 -0.3387
  117OSM    H3G12323   7.722   6.969  10.425 -0.5571 -0.4119  0.2392
  117OSM    C4F12324   7.554   6.936  10.315 -0.4413  0.7090  0.1879
  117OSM    H4F12325   7.568   7.040  10.281 -0.8979  0.7710  0.1908
  117OSM    H4G12326   7.450   6.899  10.326 -0.7953  1.1109 -1.6570
  117OSM    C5F12327   7.635   6.838  10.231  0.5812  0.0555 -0.3250
  117OSM    H5F12328   7.640   6.734  10.271  0.3323  0.1163 -0.1403
  117OSM    H5G12329   7.737   6.881  10.229  0.9883 -0.6058  2.8379
  117OSM    C6F12330   7.574   6.824  10.093 -0.3413 -0.5954 -0.4857
  117OSM    H6F12331   7.576   6.922  10.041 -1.3376  0.6390  1.7361
  117OSM    H6G12332   7.469   6.795  10.110 -0.7925  2.7905  3.2610
  117OSM    C7F12333   7.646   6.721  10.008 -0.7295  0.4960 -0.3178
  117OSM    H7F12334   7.649   6.633  10.076  0.7808  1.6647  1.1749
  117OSM    H7G12335   7.754   6.739   9.988 -0.7994 -1.8686 -3.1297
  117OSM    C8F12336   7.573   6.683   9.875 -0.3462  0.5768  0.2981
  117OSM    H8F12337   7.567   6.778   9.817 -1.0516  1.0565  1.1440
  117OSM    H8G12338   7.470   6.648   9.892  0.0473 -0.1934  1.1232
  117OSM    C9F12339   7.659   6.581   9.800 -0.2647 -1.0308  0.0154
  117OSM    H9F12340   7.701   6.509   9.871 -1.4951 -0.4252  1.3875
  117OSM   C10F12341   7.705   6.579   9.674 -0.5143  0.0250  0.4503
  117OSM   H10F12342   7.770   6.498   9.638  0.9820  1.2066  0.4401
  117OSM   C11F12343   7.662   6.685   9.572  0.6199  0.3433  0.0541
  117OSM   H11F12344   7.560   6.725   9.592  0.2907  0.3323 -1.5055
  117OSM   H11G12345   7.642   6.641   9.472 -0.6486  2.2299 -0.5448
  117OSM   C12F12346   7.755   6.808   9.547  0.1765 -1.0277 -0.0550
  117OSM   H12F12347   7.844   6.784   9.484 -0.6787 -1.1643 -1.2297
  117OSM   H12G12348   7.787   6.855   9.642  0.8920 -0.0717 -0.7640
  117OSM   C13F12349   7.672   6.917   9.466  0.1771  0.1607  1.1922
  117OSM   H13F12350   7.611   6.969   9.543  2.2369 -0.0484  3.0266
  117OSM   H13G12351   7.606   6.869   9.390 -0.1541 -0.9426  2.1650
  117OSM   C14F12352   7.770   7.017   9.397  0.1386 -0.5431 -0.8949
  117OSM   H14F12353   7.824   6.968   9.313 -0.5472  1.6383 -2.6771
  117OSM   H14G12354   7.846   7.038   9.475  0.4570 -1.3064 -1.0004
  117OSM   C15F12355   7.707   7.147   9.334 -0.3278  0.3133  0.1870
  117OSM   H15F12356   7.693   7.219   9.418 -0.7513 -1.6150  1.8361
  117OSM   H15G12357   7.608   7.110   9.299  0.3596 -2.3416  0.9144
  117OSM   C16F12358   7.789   7.215   9.220  0.1041  0.4311  0.2474
  117OSM   H16F12359   7.777   7.157   9.126  0.4267 -0.1660  0.5685
  117OSM   H16G12360   7.897   7.202   9.245  0.1991  1.6069  0.4622
  117OSM   C17F12361   7.774   7.367   9.201 -0.2348 -0.0112  0.4597
  117OSM   H17F12362   7.776   7.417   9.300 -0.6739 -2.3671  1.6741
  117OSM   H17G12363   7.678   7.401   9.158  0.1015  3.6334  2.4105
  117OSM   C18F12364   7.878   7.425   9.100 -0.1269  0.5521 -0.0612
  117OSM   H18F12365   7.981   7.416   9.138 -0.3949  0.4410  0.6464
  117OSM   H18G12366   7.851   7.530   9.075  1.7885  0.6699 -1.7862
  117OSM   H18H12367   7.868   7.370   9.004  0.9414 -0.3225  0.3259
  118OSM      N12368   0.651   1.155  11.127 -0.7105  0.1671 -0.3411
  118OSM    C1512369   0.593   1.036  11.203 -0.6002 -0.0204 -0.3042
  118OSM   H15A12370   0.593   0.951  11.136 -0.1852  0.7438 -1.2924
  118OSM   H15B12371   0.493   1.061  11.236 -0.2597  0.9612 -0.0214
  118OSM   H15C12372   0.661   1.012  11.283 -0.1282  3.5313  0.4265
  118OSM    C1412373   0.661   1.271  11.229  0.3503 -0.4145 -0.0548
  118OSM   H14A12374   0.693   1.361  11.180 -0.9813 -0.2077 -0.5753
  118OSM   H14B12375   0.732   1.252  11.308  0.5606 -0.7982 -0.3279
  118OSM   H14C12376   0.561   1.281  11.269  0.0640 -0.6161 -0.7131
  118OSM    C1312377   0.788   1.118  11.075 -0.2109 -0.8512 -0.2777
  118OSM   H13A12378   0.823   1.195  11.007  0.0560  0.9372  1.8535
  118OSM   H13B12379   0.779   1.029  11.014  2.9210 -1.3851 -0.0156
  118OSM   H13C12380   0.865   1.100  11.148  0.4898  0.4642 -0.6734
  118OSM    C1212381   0.558   1.187  11.013 -0.3137  0.2491 -0.1052
  118OSM   H12A12382   0.463   1.211  11.057 -0.0285 -2.1496  1.9132
  118OSM   H12B12383   0.534   1.097  10.957 -0.5584  0.6727 -0.6837
  118OSM    C1112384   0.582   1.310  10.919 -0.0105 -0.1317  0.1936
  118OSM   H11A12385   0.497   1.309  10.848 -0.7562 -0.4348  1.0954
  118OSM   H11B12386   0.668   1.280  10.854  0.1656 -0.4607  0.5803
  118OSM      P12387   0.484   1.523  11.028 -0.1831  0.1049  0.0187
  118OSM    O1312388   0.378   1.438  11.086  0.1404  0.1333  0.2909
  118OSM    O1412389   0.534   1.641  11.104 -0.1607 -0.7554  0.4617
  118OSM    O1112390   0.440   1.566  10.886 -0.1180  0.0168  0.4112
  118OSM    O1212391   0.610   1.433  10.989  0.5324  0.4092  0.0475
  118OSM    C1S12392   0.535   1.639  10.802 -0.0663  0.5985 -0.1038
  118OSM    H1S12393   0.636   1.593  10.805  0.5264  1.8200 -0.9831
  118OSM    H1T12394   0.546   1.745  10.834 -3.3559  1.2711 -1.0663
  118OSM     NF12395   0.595   1.700  10.567 -0.1865 -0.0372 -0.0665
  118OSM    HNF12396   0.584   1.792  10.531 -0.6170  0.0483  0.2747
  118OSM    C2S12397   0.491   1.640  10.648  0.3399  0.4970  0.3383
  118OSM    H2S12398   0.488   1.534  10.614  0.5636  0.2026  1.2029
  118OSM    C3S12399   0.343   1.694  10.628 -0.2059  0.6960 -0.9916
  118OSM    H3S12400   0.344   1.793  10.680  0.2225  0.4943 -0.6181
  118OSM     O312401   0.246   1.603  10.686  0.3731 -0.3809  1.2707
  118OSM    HO312402   0.297   1.550  10.748  0.4541 -1.2042  0.5010
  118OSM    C4S12403   0.301   1.709  10.485  0.0871  0.5283  0.4266
  118OSM    H4S12404   0.288   1.613  10.433  3.5507  0.7508 -1.0021
  118OSM    C5S12405   0.302   1.833  10.423  0.7917 -0.0620  0.3650
  118OSM    H5S12406   0.338   1.918  10.482 -1.0383  0.7476  0.3362
  118OSM    C6S12407   0.275   1.864  10.279  0.5095 -0.5081  0.1654
  118OSM    H6S12408   0.344   1.945  10.246  0.4194 -1.4894 -2.5955
  118OSM    H6T12409   0.172   1.903  10.264  1.5577  1.1568 -3.1234
  118OSM    C7S12410   0.298   1.740  10.183  0.0790 -0.5044 -0.1548
  118OSM    H7S12411   0.229   1.660  10.218  1.1534 -1.1032  0.6022
  118OSM    H7T12412   0.403   1.707  10.198  0.6734  2.6016  3.1633
  118OSM    C8S12413   0.272   1.781  10.037  0.3369  0.0969 -0.0298
  118OSM    H8S12414   0.320   1.878  10.015 -0.6710  1.0160  1.6691
  118OSM    H8T12415   0.162   1.792  10.025  0.1295  0.7447  2.2034
  118OSM    C9S12416   0.319   1.670   9.944  0.3168  0.3906  0.1142
  118OSM    H9S12417   0.285   1.573   9.985 -3.0442  0.8399 -1.4331
  118OSM    H9T12418   0.428   1.677   9.927  0.3493 -0.1305  0.0927
  118OSM   C10S12419   0.261   1.658   9.805 -0.4057  0.2086 -0.4992
  118OSM   H10S12420   0.155   1.692   9.808 -0.1108  1.1389 -0.3685
  118OSM   H10T12421   0.264   1.551   9.776  0.1183  0.6428 -2.1146
  118OSM   C11S12422   0.335   1.728   9.697 -0.5410 -0.0209  0.7105
  118OSM   H11S12423   0.439   1.689   9.694 -0.2575  0.8134 -1.5061
  118OSM   H11T12424   0.332   1.839   9.708  0.6025  0.2786 -1.6684
  118OSM   C12S12425   0.264   1.692   9.564 -0.9849 -0.3925 -0.3446
  118OSM   H12S12426   0.156   1.714   9.573 -0.5738  2.1127 -1.0698
  118OSM   H12T12427   0.290   1.585   9.552  0.9776  0.0222 -0.0704
  118OSM   C13S12428   0.331   1.771   9.440  0.2100 -0.3107 -0.0275
  118OSM   H13S12429   0.438   1.740   9.441 -0.2286 -1.8529  1.2955
  118OSM   H13T12430   0.327   1.880   9.460  0.9618 -0.8759  3.4838
  118OSM   C14S12431   0.272   1.744   9.304  0.9183  0.6043  0.0926
  118OSM   H14S12432   0.242   1.639   9.288  0.1346  1.5118 -5.4491
  118OSM   H14T12433   0.348   1.768   9.227 -0.2135  0.4399 -1.0907
  118OSM   C15S12434   0.154   1.828   9.257 -0.0940  0.6192 -0.0706
  118OSM   H15S12435   0.194   1.930   9.239  1.2834 -0.0747 -1.1045
  118OSM   H15T12436   0.065   1.825   9.324  0.2365  2.1131  0.4577
  118OSM   C16S12437   0.101   1.761   9.132 -0.4708 -0.7009 -0.5934
  118OSM   H16S12438   0.030   1.679   9.156 -0.2349 -0.6442  0.3229
  118OSM   H16T12439   0.177   1.701   9.077  1.4150  0.2078  0.9226
  118OSM   C17S12440   0.034   1.871   9.050  0.0033 -0.1258  0.3599
  118OSM   H17S12441   0.110   1.939   9.008  0.6338 -1.8451 -1.3993
  118OSM   H17T12442  -0.034   1.917   9.124  0.2461  0.3594  0.2814
  118OSM   C18S12443  -0.044   1.833   8.921  0.2471 -0.2032 -0.1336
  118OSM   H18S12444  -0.126   1.904   8.896 -0.1554  0.5747  3.0458
  118OSM   H18T12445  -0.104   1.741   8.942 -1.3120  0.5670 -1.1263
  118OSM   H18U12446   0.031   1.816   8.841 -0.6338  1.6198 -1.3884
  118OSM    C1F12447   0.716   1.645  10.550  0.3186  0.5004 -0.0366
  118OSM     OF12448   0.745   1.538  10.599 -0.0347 -0.7874 -0.3990
  118OSM    C2F12449   0.817   1.710  10.465  0.3603  0.3542 -0.4115
  118OSM    H2F12450   0.917   1.707  10.513  0.1012  3.1248  0.3892
  118OSM    H2G12451   0.797   1.818  10.452 -0.2611  0.5729  2.1021
  118OSM    C3F12452   0.837   1.645  10.320 -0.7262  0.4474 -0.1530
  118OSM    H3F12453   0.877   1.542  10.335 -0.3738  0.5170 -0.6175
  118OSM    H3G12454   0.912   1.710  10.271 -0.4182 -1.0131 -1.6400
  118OSM    C4F12455   0.710   1.645  10.234  0.0484  0.7938 -0.4196
  118OSM    H4F12456   0.671   1.747  10.253  0.4119  0.4568  2.3680
  118OSM    H4G12457   0.633   1.576  10.276  3.4636 -2.6567  0.4102
  118OSM    C5F12458   0.747   1.587  10.095  0.0536  0.8031 -0.5931
  118OSM    H5F12459   0.650   1.570  10.045  1.4409 -0.6649 -2.8760
  118OSM    H5G12460   0.781   1.483  10.109 -0.3859  0.6391 -0.7441
  118OSM    C6F12461   0.860   1.656  10.026 -0.8213 -1.2473  0.3104
  118OSM    H6F12462   0.954   1.648  10.085  0.4217  2.9643 -0.8754
  118OSM    H6G12463   0.846   1.766  10.024  1.0890 -0.9505  1.5858
  118OSM    C7F12464   0.906   1.610   9.884  0.6352 -0.3432 -0.2821
  118OSM    H7F12465   0.827   1.643   9.813  1.4557  2.0828 -0.1150
  118OSM    H7G12466   0.902   1.499   9.891 -1.1242 -0.3352 -0.9508
  118OSM    C8F12467   1.043   1.656   9.835  0.2553  0.3090 -0.5296
  118OSM    H8F12468   1.083   1.601   9.747  0.1375  2.5361 -2.0082
  118OSM    H8G12469   1.110   1.639   9.923 -2.3525  0.3660  1.5198
  118OSM    C9F12470   1.041   1.800   9.793 -0.0192 -1.3700 -0.2666
  118OSM    H9F12471   1.079   1.873   9.866  2.2378 -1.0699 -1.6837
  118OSM   C10F12472   1.008   1.850   9.677 -0.0510  0.0393  0.2428
  118OSM   H10F12473   1.024   1.958   9.661  1.7269 -0.0891  0.9436
  118OSM   C11F12474   0.965   1.769   9.556 -0.4321  0.2614 -0.2763
  118OSM   H11F12475   0.858   1.782   9.532 -0.5658  1.0436  0.7149
  118OSM   H11G12476   0.967   1.659   9.574 -3.0074  0.3036  0.4456
  118OSM   C12F12477   1.022   1.799   9.424 -0.2072  1.0911  1.0658
  118OSM   H12F12478   1.005   1.907   9.403  4.3363  1.9399  1.1774
  118OSM   H12G12479   0.974   1.742   9.343  0.5575 -0.0935  1.4332
  118OSM   C13F12480   1.174   1.765   9.414 -0.6371 -0.1271  0.0601
  118OSM   H13F12481   1.187   1.656   9.395  0.5820 -0.0078  0.2076
  118OSM   H13G12482   1.228   1.791   9.507  2.4818  0.9887 -1.9908
  118OSM   C14F12483   1.240   1.830   9.284  0.3370  0.4515  0.3646
  118OSM   H14F12484   1.350   1.819   9.295  0.7275  0.1897 -3.1556
  118OSM   H14G12485   1.201   1.934   9.289 -3.6419 -0.8988 -0.6361
  118OSM   C15F12486   1.202   1.763   9.157 -0.5344  0.3062  0.2041
  118OSM   H15F12487   1.093   1.766   9.137 -0.8646 -0.9837  1.7104
  118OSM   H15G12488   1.225   1.654   9.154  1.8620  0.7397  1.4049
  118OSM   C16F12489   1.262   1.816   9.028  0.2946 -0.2793  0.9583
  118OSM   H16F12490   1.372   1.812   9.037  0.2676 -1.4060  0.8588
  118OSM   H16G12491   1.223   1.919   9.011  0.6874 -0.1571  0.8090
  118OSM   C17F12492   1.220   1.731   8.904 -0.1066  0.1983  1.3411
  118OSM   H17F12493   1.109   1.726   8.911 -0.4031  2.7223 -0.8473
  118OSM   H17G12494   1.280   1.637   8.907  1.3198  1.0916  1.3317
  118OSM   C18F12495   1.259   1.809   8.777  0.2366  0.0523 -0.5520
  118OSM   H18F12496   1.249   1.737   8.693  0.3436  1.3372 -1.6762
  118OSM   H18G12497   1.355   1.863   8.791  0.4849 -0.9949  2.0658
  118OSM   H18H12498   1.185   1.890   8.759 -0.5055 -0.4426  0.1897
  119OSM      N12499   1.270   0.563  11.186  0.0081 -0.2356  0.7821
  119OSM    C1512500   1.162   0.468  11.226  0.1315 -1.0304 -0.0148
  119OSM   H15A12501   1.069   0.511  11.191  1.0486  0.6027 -0.4783
  119OSM   H15B12502   1.149   0.468  11.334 -1.5729 -2.1644 -0.1953
  119OSM   H15C12503   1.177   0.368  11.189 -1.3336 -1.6393  0.9859
  119OSM    C1412504   1.252   0.582  11.034  0.7286  0.3049 -0.4876
  119OSM   H14A12505   1.293   0.497  10.982  2.7990  0.8435  0.2231
  119OSM   H14B12506   1.307   0.668  10.999 -0.2159  0.0524 -2.6579
  119OSM   H14C12507   1.146   0.594  11.017  0.4856 -1.4980 -0.3234
  119OSM    C1312508   1.239   0.696  11.248 -0.1175  0.3481 -0.0875
  119OSM   H13A12509   1.294   0.768  11.190  1.5341 -1.4067 -0.7632
  119OSM   H13B12510   1.255   0.689  11.354  2.2772  1.4843 -0.3518
  119OSM   H13C12511   1.137   0.723  11.225 -0.5450 -1.3434 -0.2795
  119OSM    C1212512   1.411   0.521  11.212 -0.3683  0.0033 -0.5611
  119OSM   H12A12513   1.438   0.430  11.159 -2.0648 -1.4672  1.0174
  119OSM   H12B12514   1.418   0.487  11.314  0.8806 -1.9618 -1.2584
  119OSM    C1112515   1.515   0.637  11.192 -0.4756  0.7774 -0.0851
  119OSM   H11A12516   1.602   0.614  11.257 -1.5675  0.0141  1.1416
  119OSM   H11B12517   1.480   0.735  11.231  1.4506  1.1931  0.6637
  119OSM      P12518   1.678   0.580  10.994  0.0051 -0.5436  0.2435
  119OSM    O1312519   1.799   0.663  11.015  0.0894 -0.7999  0.1598
  119OSM    O1412520   1.684   0.436  11.039 -0.2863  0.5294  0.1029
  119OSM    O1112521   1.640   0.580  10.842 -0.1149 -0.1855  0.1844
  119OSM    O1212522   1.539   0.647  11.051 -0.4690  0.0355 -0.0567
  119OSM    C1S12523   1.510   0.521  10.813 -0.2268  0.1023 -0.4533
  119OSM    H1S12524   1.429   0.589  10.849 -0.4932 -1.6807  2.3839
  119OSM    H1T12525   1.495   0.416  10.843  0.6300  0.6474  1.9582
  119OSM     NF12526   1.337   0.483  10.636  0.0173 -0.2362  0.3558
  119OSM    HNF12527   1.321   0.395  10.591 -1.0508 -1.2621  2.6361
  119OSM    C2S12528   1.483   0.517  10.658  1.2071  0.5927  0.8985
  119OSM    H2S12529   1.503   0.621  10.625  0.9825  0.5527  0.6341
  119OSM    C3S12530   1.576   0.417  10.593  0.3757 -0.4226 -0.0932
  119OSM    H3S12531   1.549   0.319  10.638 -2.3123  0.6112  0.5984
  119OSM     O312532   1.718   0.445  10.606 -0.0149  0.5048  0.0943
  119OSM    HO312533   1.711   0.515  10.672 -0.8305  0.5108  0.0143
  119OSM    C4S12534   1.554   0.407  10.444  0.4232 -0.6587  0.3658
  119OSM    H4S12535   1.519   0.306  10.416  1.0279 -0.7174 -0.1989
  119OSM    C5S12536   1.578   0.491  10.341 -0.3917  0.1917  0.4074
  119OSM    H5S12537   1.609   0.596  10.357 -2.0906  0.5577  1.3248
  119OSM    C6S12538   1.540   0.457  10.204 -0.1812  0.2704 -0.5483
  119OSM    H6S12539   1.431   0.474  10.192 -0.0902  1.5059  0.2843
  119OSM    H6T12540   1.550   0.349  10.178 -0.0289  0.5600 -1.7392
  119OSM    C7S12541   1.617   0.524  10.091 -0.0790  0.2193 -0.0753
  119OSM    H7S12542   1.645   0.631  10.102  0.8788 -0.1367  1.0045
  119OSM    H7T12543   1.552   0.515  10.001 -1.1084 -1.0828  0.7878
  119OSM    C8S12544   1.753   0.467  10.072  0.6658  0.6575  0.7112
  119OSM    H8S12545   1.754   0.357  10.060 -1.4718  0.8076 -1.4474
  119OSM    H8T12546   1.812   0.496  10.161  1.8943 -0.8636  0.4103
  119OSM    C9S12547   1.823   0.537   9.951  0.2361 -0.1767  0.8279
  119OSM    H9S12548   1.929   0.504   9.963 -0.4614 -2.8145  0.0716
  119OSM    H9T12549   1.832   0.647   9.962  2.7200 -0.2038 -0.5832
  119OSM   C10S12550   1.770   0.503   9.810  0.1755  0.7050  0.1656
  119OSM   H10S12551   1.667   0.541   9.796  0.4592  1.2100 -0.5660
  119OSM   H10T12552   1.763   0.392   9.820 -2.0889  0.6185 -1.9693
  119OSM   C11S12553   1.861   0.550   9.692  0.0901  0.1114  0.1564
  119OSM   H11S12554   1.953   0.488   9.698  0.7480  1.2975  3.3237
  119OSM   H11T12555   1.890   0.656   9.708  1.7788 -0.2606 -0.3580
  119OSM   C12S12556   1.782   0.535   9.568 -0.0931 -0.4483 -0.1630
  119OSM   H12S12557   1.716   0.623   9.551  1.0155  0.1893 -1.2477
  119OSM   H12T12558   1.712   0.448   9.566 -1.4296  0.5407  2.1523
  119OSM   C13S12559   1.879   0.522   9.454  0.0637 -0.0627  0.1701
  119OSM   H13S12560   1.931   0.428   9.483 -0.3417  0.2414  1.9663
  119OSM   H13T12561   1.946   0.611   9.448 -2.9659  2.3159  0.0609
  119OSM   C14S12562   1.818   0.507   9.317  0.1004 -0.2131 -0.0550
  119OSM   H14S12563   1.767   0.601   9.288  0.6179 -0.4142 -1.6773
  119OSM   H14T12564   1.748   0.421   9.313  2.1775 -2.0441  1.2643
  119OSM   C15S12565   1.932   0.487   9.220 -0.1478 -0.0000 -0.5757
  119OSM   H15S12566   1.998   0.410   9.264  0.0549  0.0459 -0.8045
  119OSM   H15T12567   1.981   0.587   9.222 -0.1543 -0.0051  0.1627
  119OSM   C16S12568   1.876   0.447   9.085 -0.0246  0.3167  0.4113
  119OSM   H16S12569   1.779   0.499   9.070 -0.3398 -0.3851  0.0097
  119OSM   H16T12570   1.848   0.340   9.078  0.6763  0.2042 -0.7849
  119OSM   C17S12571   1.975   0.484   8.975 -0.3853  0.1444  0.5817
  119OSM   H17S12572   2.062   0.424   9.009  0.2577  1.8028  2.0177
  119OSM   H17T12573   2.008   0.590   8.981  1.4532 -0.4055  0.6005
  119OSM   C18S12574   1.941   0.450   8.835 -0.4241 -0.3683  0.5900
  119OSM   H18S12575   1.910   0.344   8.822  0.8206 -0.7841  0.9175
  119OSM   H18T12576   2.029   0.466   8.769  0.4992 -0.5419  1.7650
  119OSM   H18U12577   1.861   0.516   8.795  1.6884 -0.2699 -3.8312
  119OSM    C1F12578   1.229   0.554  10.663 -0.4664  0.2307  0.0792
  119OSM     OF12579   1.240   0.664  10.707 -0.1525  0.4310 -0.4219
  119OSM    C2F12580   1.091   0.492  10.643  0.6279 -0.2983  0.3399
  119OSM    H2F12581   1.022   0.569  10.684  1.6954  1.7156 -1.5429
  119OSM    H2G12582   1.093   0.400  10.705 -2.0782  1.1510  2.7264
  119OSM    C3F12583   1.068   0.455  10.495  0.4178 -0.7674  0.0677
  119OSM    H3F12584   0.963   0.424  10.480  0.1208  0.4312 -0.4449
  119OSM    H3G12585   1.136   0.373  10.466  0.5586 -0.8772  0.6984
  119OSM    C4F12586   1.095   0.576  10.401 -0.0692 -0.0652  0.4659
  119OSM    H4F12587   1.205   0.592  10.403  0.5162 -3.4501 -0.6269
  119OSM    H4G12588   1.056   0.667  10.451 -1.2120  0.2681 -1.0031
  119OSM    C5F12589   1.050   0.562  10.259 -0.1466  0.1349  0.7976
  119OSM    H5F12590   1.107   0.638  10.202  0.0234 -0.1236  0.6273
  119OSM    H5G12591   0.941   0.582  10.248  0.1997  0.2550 -2.6553
  119OSM    C6F12592   1.092   0.427  10.210  0.6551 -0.0335 -0.5960
  119OSM    H6F12593   1.019   0.350  10.241  0.1039  0.3571 -0.9165
  119OSM    H6G12594   1.199   0.402  10.230  0.4478 -0.8894 -0.5325
  119OSM    C7F12595   1.086   0.418  10.055 -0.1421 -0.0687 -0.5681
  119OSM    H7F12596   1.155   0.492  10.009 -1.2365  1.3035 -0.0407
  119OSM    H7G12597   0.979   0.439  10.032 -0.2062  1.5276  1.0473
  119OSM    C8F12598   1.110   0.274   9.995 -0.4564 -0.1625 -0.8016
  119OSM    H8F12599   1.073   0.281   9.890 -0.8327  0.0021 -0.6595
  119OSM    H8G12600   1.055   0.201  10.059  0.4260  0.5515  0.7985
  119OSM    C9F12601   1.252   0.227   9.998 -0.3427  0.7784 -0.0498
  119OSM    H9F12602   1.300   0.210  10.096  0.9046 -2.5412 -1.1748
  119OSM   C10F12603   1.333   0.213   9.896 -0.6171 -0.1766  0.7039
  119OSM   H10F12604   1.439   0.184   9.907 -0.9693 -1.2948  1.1759
  119OSM   C11F12605   1.305   0.242   9.747 -0.5088  0.5403 -0.7332
  119OSM   H11F12606   1.203   0.286   9.739 -1.7031 -2.2307 -1.3698
  119OSM   H11G12607   1.312   0.151   9.684  0.0254  1.0042 -1.3440
  119OSM   C12F12608   1.398   0.349   9.695 -0.4512 -0.2902  0.2095
  119OSM   H12F12609   1.503   0.315   9.711 -0.1361  0.5428 -0.0556
  119OSM   H12G12610   1.389   0.438   9.760  2.7584  2.2611 -2.6451
  119OSM   C13F12611   1.371   0.387   9.549 -0.1141  0.3858  0.0390
  119OSM   H13F12612   1.431   0.472   9.511 -1.4390  1.3543  0.0529
  119OSM   H13G12613   1.261   0.403   9.543  0.0467  1.5442  0.1589
  119OSM   C14F12614   1.407   0.269   9.454 -0.6340 -0.4018  0.0578
  119OSM   H14F12615   1.338   0.182   9.449 -0.8213 -0.2475 -0.0343
  119OSM   H14G12616   1.502   0.228   9.495 -0.1805  1.7406  1.2171
  119OSM   C15F12617   1.419   0.322   9.311  0.0747 -0.4495  0.2754
  119OSM   H15F12618   1.493   0.405   9.303  2.5241 -2.4787  1.2211
  119OSM   H15G12619   1.318   0.359   9.282 -0.3778 -1.8278  0.0882
  119OSM   C16F12620   1.473   0.223   9.213  0.6268  0.4082 -0.2454
  119OSM   H16F12621   1.404   0.136   9.201 -0.9703  1.6201  0.0633
  119OSM   H16G12622   1.566   0.170   9.245  1.2524  0.9115 -1.2213
  119OSM   C17F12623   1.493   0.274   9.069 -0.1679  0.6240 -0.3125
  119OSM   H17F12624   1.589   0.329   9.064 -0.4743  1.0624 -1.5015
  119OSM   H17G12625   1.410   0.342   9.040 -0.7948 -0.3243 -0.7668
  119OSM   C18F12626   1.503   0.174   8.958  0.4470 -0.0496 -0.5970
  119OSM   H18F12627   1.535   0.228   8.867  3.0053  2.1844  1.5639
  119OSM   H18G12628   1.408   0.118   8.945 -0.3117  1.0234  0.1861
  119OSM   H18H12629   1.565   0.088   8.992  0.0575 -0.2144 -0.2983
  120OSM      N12630   0.432   4.083  11.080 -0.1213  0.3592 -0.2129
  120OSM    C1512631   0.475   4.226  11.115  0.6278 -0.7683  0.5174
  120OSM   H15A12632   0.475   4.287  11.026  0.3061  0.4468  1.3360
  120OSM   H15B12633   0.575   4.238  11.153  0.7712 -1.9606  0.5179
  120OSM   H15C12634   0.413   4.272  11.191  0.1105  1.7946 -1.3835
  120OSM    C1412635   0.465   3.994  11.204  0.2411 -0.0107 -1.0363
  120OSM   H14A12636   0.423   4.038  11.293  0.4731 -0.2897 -0.7879
  120OSM   H14B12637   0.572   4.007  11.211  0.2920 -0.9391  0.0879
  120OSM   H14C12638   0.433   3.891  11.200 -0.9153  0.3167 -0.2549
  120OSM    C1312639   0.296   4.067  11.050  0.0920 -0.0438 -0.3109
  120OSM   H13A12640   0.257   3.968  11.066 -1.1345  0.7245  1.5400
  120OSM   H13B12641   0.284   4.085  10.944  0.4222  1.5245 -0.0864
  120OSM   H13C12642   0.240   4.124  11.122  1.3525  0.0590  0.5890
  120OSM    C1212643   0.514   4.025  10.966 -0.0556 -0.6635  0.4014
  120OSM   H12A12644   0.485   3.921  10.959 -1.9913 -0.2078  1.1031
  120OSM   H12B12645   0.618   4.024  10.995 -0.1998  1.3633  1.0298
  120OSM    C1112646   0.519   4.101  10.837  0.2061  0.5023  0.3741
  120OSM   H11A12647   0.599   4.071  10.766  0.3170  0.9563  0.3108
  120OSM   H11B12648   0.541   4.205  10.869  3.3004  0.1208 -0.3115
  120OSM      P12649   0.341   3.980  10.687  0.1219 -0.1629  0.1707
  120OSM    O1312650   0.382   3.853  10.746  0.5666  0.2948 -0.2195
  120OSM    O1412651   0.196   3.996  10.662 -0.5756  0.5934 -0.0547
  120OSM    O1112652   0.423   3.992  10.548  0.4243  0.5308 -0.2566
  120OSM    O1212653   0.396   4.112  10.770 -0.7127  0.7343 -0.3766
  120OSM    C1S12654   0.450   4.131  10.504 -0.4994  0.2386 -0.2324
  120OSM    H1S12655   0.539   4.169  10.559 -0.4422  2.4264 -1.8048
  120OSM    H1T12656   0.359   4.190  10.529 -0.2135  0.3393  0.5903
  120OSM     NF12657   0.533   4.267  10.322 -0.0814  0.4189 -0.1891
  120OSM    HNF12658   0.468   4.322  10.270  0.6528  1.4666 -0.0132
  120OSM    C2S12659   0.477   4.137  10.355 -0.0563  0.1657 -0.4640
  120OSM    H2S12660   0.565   4.071  10.337 -0.3064 -0.3072  0.0290
  120OSM    C3S12661   0.358   4.106  10.265 -0.1560 -0.0220 -0.7609
  120OSM    H3S12662   0.269   4.171  10.283  1.0160  1.7721 -1.3694
  120OSM     O312663   0.302   3.976  10.288  0.2306 -0.1344  0.0662
  120OSM    HO312664   0.368   3.939  10.347 -0.2137  1.1054  1.3724
  120OSM    C4S12665   0.386   4.109  10.115 -0.3353  0.1682  0.0436
  120OSM    H4S12666   0.444   4.020  10.089 -0.3456 -0.0779  0.8545
  120OSM    C5S12667   0.345   4.203  10.023 -0.7897  0.0197  0.0812
  120OSM    H5S12668   0.289   4.293  10.052  0.0212  0.0017  1.7367
  120OSM    C6S12669   0.391   4.192   9.876  1.1520  0.6266 -0.2175
  120OSM    H6S12670   0.407   4.292   9.829  1.9910  0.6291  0.0555
  120OSM    H6T12671   0.324   4.139   9.806  0.6593 -0.7156  1.2581
  120OSM    C7S12672   0.534   4.122   9.868 -0.4759  0.5180  0.3721
  120OSM    H7S12673   0.542   4.017   9.903  0.8617  0.5457  0.1913
  120OSM    H7T12674   0.611   4.176   9.926  0.4463 -1.5521  1.1548
  120OSM    C8S12675   0.598   4.120   9.731  0.5574 -0.0843  0.3164
  120OSM    H8S12676   0.706   4.095   9.736  0.3747 -0.6135  1.7694
  120OSM    H8T12677   0.585   4.226   9.697 -1.1821 -0.1358  0.7484
  120OSM    C9S12678   0.522   4.029   9.634  0.2700  0.1078  0.0471
  120OSM    H9S12679   0.415   4.058   9.620  0.2440  0.6063  1.2197
  120OSM    H9T12680   0.516   3.925   9.673 -2.1067  0.5582  0.9488
  120OSM   C10S12681   0.580   4.022   9.494  0.1954  0.2799  0.4066
  120OSM   H10S12682   0.682   3.981   9.511  0.7807  1.9616  1.0423
  120OSM   H10T12683   0.578   4.128   9.462 -1.8946  1.0830  3.0004
  120OSM   C11S12684   0.511   3.937   9.399 -0.0827  0.5347  0.3985
  120OSM   H11S12685   0.408   3.974   9.377 -0.2415  0.7010  1.4163
  120OSM   H11T12686   0.509   3.833   9.439 -2.2698 -0.6982 -2.6690
  120OSM   C12S12687   0.587   3.938   9.263  0.5244 -0.2478 -1.4835
  120OSM   H12S12688   0.531   3.865   9.199 -0.7728  0.4152 -1.1209
  120OSM   H12T12689   0.691   3.907   9.284 -0.3632 -1.8616  0.8422
  120OSM   C13S12690   0.575   4.066   9.185 -0.0056 -0.4158  0.8109
  120OSM   H13S12691   0.633   4.145   9.237  0.0231 -0.7893  1.3493
  120OSM   H13T12692   0.471   4.106   9.183  0.1103 -0.1486 -3.5862
  120OSM   C14S12693   0.610   4.057   9.036 -0.0437 -0.2564 -0.8314
  120OSM   H14S12694   0.692   3.982   9.030 -0.2275 -0.3818 -1.8220
  120OSM   H14T12695   0.653   4.152   8.998  2.2692 -0.7619  0.4718
  120OSM   C15S12696   0.493   4.005   8.958  0.9835 -0.0052  1.0237
  120OSM   H15S12697   0.399   4.060   8.979  0.7123  0.9560 -2.3534
  120OSM   H15T12698   0.483   3.901   8.995 -2.0206  0.8023  2.6521
  120OSM   C16S12699   0.535   4.022   8.806 -0.0738 -0.0388  0.7868
  120OSM   H16S12700   0.643   4.003   8.788 -0.6270 -2.2760 -0.3782
  120OSM   H16T12701   0.509   4.125   8.773  1.6886 -0.2220 -1.2873
  120OSM   C17S12702   0.449   3.927   8.717 -0.7637  0.4174  0.2763
  120OSM   H17S12703   0.349   3.955   8.755 -0.3497  0.0353  1.7042
  120OSM   H17T12704   0.467   3.819   8.734 -0.2277  0.0562 -2.3459
  120OSM   C18S12705   0.470   3.957   8.564 -0.5173  0.0580 -0.4555
  120OSM   H18S12706   0.573   3.932   8.529 -0.9360 -1.4190 -0.6768
  120OSM   H18T12707   0.447   4.061   8.536 -1.5387 -0.5338 -1.8365
  120OSM   H18U12708   0.407   3.889   8.503  1.4751 -0.0774 -2.4505
  120OSM    C1F12709   0.654   4.317  10.364  0.7977 -0.3484  0.0223
  120OSM     OF12710   0.726   4.265  10.440  0.1093 -0.2092  0.2658
  120OSM    C2F12711   0.680   4.456  10.305 -0.1248 -0.1844  0.2925
  120OSM    H2F12712   0.686   4.517  10.397 -1.2968 -0.6704  0.6984
  120OSM    H2G12713   0.592   4.484  10.243  2.0562  1.6055 -2.0876
  120OSM    C3F12714   0.801   4.460  10.210 -0.4481 -0.1003  0.1922
  120OSM    H3F12715   0.881   4.405  10.264 -0.8589 -0.2125  0.6836
  120OSM    H3G12716   0.841   4.561  10.186  1.9374 -1.0476  0.0064
  120OSM    C4F12717   0.764   4.382  10.080 -0.5030 -0.2867  0.1073
  120OSM    H4F12718   0.679   4.436  10.033  0.0716 -0.5627 -1.2699
  120OSM    H4G12719   0.733   4.277  10.100  0.5283 -0.3180  1.5966
  120OSM    C5F12720   0.879   4.392   9.978 -0.1574 -0.0552  0.4916
  120OSM    H5F12721   0.965   4.354  10.038  1.6507  1.2263 -1.2392
  120OSM    H5G12722   0.894   4.501   9.963  1.6450  0.1429  3.3425
  120OSM    C6F12723   0.872   4.312   9.850 -0.1560 -0.7902 -0.9388
  120OSM    H6F12724   0.770   4.335   9.811 -0.2269 -0.1903 -0.4095
  120OSM    H6G12725   0.871   4.202   9.866 -1.7076 -0.4567  1.4792
  120OSM    C7F12726   0.972   4.336   9.747 -0.1271  1.1025 -0.3867
  120OSM    H7F12727   1.070   4.330   9.799  0.4350 -1.0168 -1.6088
  120OSM    H7G12728   0.954   4.433   9.697 -1.0661  0.4233 -1.3850
  120OSM    C8F12729   0.972   4.233   9.629 -0.9760 -0.8140  1.0058
  120OSM    H8F12730   0.957   4.129   9.665  1.6949 -1.3205  0.7839
  120OSM    H8G12731   1.071   4.242   9.578 -1.7780  0.3878 -0.3782
  120OSM    C9F12732   0.869   4.261   9.520  0.1642 -0.2849 -0.1482
  120OSM    H9F12733   0.764   4.257   9.554  0.4486  0.4958  0.8327
  120OSM   C10F12734   0.887   4.281   9.389 -0.7005  0.5689 -0.7916
  120OSM   H10F12735   0.797   4.291   9.326 -0.3864 -2.3870 -1.7518
  120OSM   C11F12736   1.019   4.277   9.312 -0.2863  0.3508  0.5209
  120OSM   H11F12737   1.091   4.214   9.368 -0.8904 -1.3747 -0.6098
  120OSM   H11G12738   1.060   4.379   9.300  0.8267 -0.0624  0.7818
  120OSM   C12F12739   1.000   4.205   9.175 -0.3867 -0.1747 -0.4610
  120OSM   H12F12740   0.955   4.104   9.183 -1.7815  0.5700  1.5361
  120OSM   H12G12741   1.105   4.178   9.153  0.2751  0.7225  1.5077
  120OSM   C13F12742   0.932   4.287   9.068 -0.4775  1.3472  0.6634
  120OSM   H13F12743   1.003   4.371   9.050 -2.3183  2.7042 -0.4872
  120OSM   H13G12744   0.836   4.331   9.102  0.1607  0.6191  3.5662
  120OSM   C14F12745   0.922   4.218   8.933 -0.1087 -0.4019  0.1706
  120OSM   H14F12746   0.839   4.144   8.930 -0.6696  0.2701 -1.2643
  120OSM   H14G12747   1.020   4.167   8.922 -0.8823 -1.4168 -2.3168
  120OSM   C15F12748   0.901   4.310   8.814 -0.6030  0.4072  0.2857
  120OSM   H15F12749   0.985   4.380   8.794 -0.7052  0.2094 -0.9039
  120OSM   H15G12750   0.816   4.379   8.835 -0.8998  0.0240  0.3411
  120OSM   C16F12751   0.862   4.221   8.690 -0.5580 -0.4755 -0.3481
  120OSM   H16F12752   0.782   4.151   8.722 -0.8255 -0.2016 -0.4077
  120OSM   H16G12753   0.950   4.159   8.663  1.1440  2.2761 -1.4371
  120OSM   C17F12754   0.818   4.312   8.573  0.5196 -0.1622 -0.4949
  120OSM   H17F12755   0.899   4.374   8.529  0.5576 -0.1673 -0.4314
  120OSM   H17G12756   0.733   4.375   8.606  0.1479  1.6015 -4.5113
  120OSM   C18F12757   0.787   4.211   8.452 -0.4147 -0.2624 -0.1847
  120OSM   H18F12758   0.754   4.272   8.365  0.0515 -1.9668 -1.5749
  120OSM   H18G12759   0.705   4.142   8.481  0.9788 -0.9160  2.3313
  120OSM   H18H12760   0.885   4.163   8.430 -0.0258  0.4470 -0.0410
  121OSM      N12761   6.006   0.531  10.880 -0.0394 -0.2074 -0.0322
  121OSM    C1512762   5.869   0.575  10.878  0.3798  0.3242  0.7695
  121OSM   H15A12763   5.813   0.505  10.939  1.0641  1.0301  2.2527
  121OSM   H15B12764   5.829   0.574  10.778  3.1220 -1.5143 -0.3500
  121OSM   H15C12765   5.846   0.672  10.921  3.3386  0.5380  1.9643
  121OSM    C1412766   6.026   0.495  11.020 -0.2762  0.6485  0.2988
  121OSM   H14A12767   5.989   0.568  11.090  1.1061  0.0170  1.7385
  121OSM   H14B12768   6.132   0.480  11.036 -0.5960 -3.1244 -0.6463
  121OSM   H14C12769   5.985   0.399  11.047  1.9370 -0.4363 -0.0560
  121OSM    C1312770   6.027   0.403  10.807 -0.0555  0.4170 -0.3357
  121OSM   H13A12771   6.015   0.415  10.700  0.4202 -2.0324 -0.7064
  121OSM   H13B12772   5.958   0.324  10.831  1.9869 -1.0736  0.8207
  121OSM   H13C12773   6.130   0.372  10.819  0.6251  2.4355 -0.7941
  121OSM    C1212774   6.112   0.632  10.839 -0.1454 -0.2980  0.7241
  121OSM   H12A12775   6.119   0.703  10.920  0.5732 -2.2525  2.4032
  121OSM   H12B12776   6.085   0.681  10.746  1.8141  1.4662  1.0721
  121OSM    C1112777   6.253   0.574  10.811 -0.1014  0.2430 -0.1035
  121OSM   H11A12778   6.318   0.660  10.786 -0.6030  0.9946  1.1275
  121OSM   H11B12779   6.260   0.500  10.728  0.9038  1.0203 -0.7225
  121OSM      P12780   6.428   0.563  11.006  0.3698  0.0222 -0.3663
  121OSM    O1312781   6.384   0.689  11.074 -0.1041 -0.5264 -0.6039
  121OSM    O1412782   6.489   0.458  11.087 -0.0364 -0.0895 -0.2980
  121OSM    O1112783   6.529   0.597  10.892  0.0694 -0.2613 -0.1664
  121OSM    O1212784   6.304   0.510  10.927  0.2317  0.7309  0.0248
  121OSM    C1S12785   6.584   0.517  10.789  0.1240  0.3878 -0.8019
  121OSM    H1S12786   6.513   0.441  10.750  1.3679 -0.0452 -2.2963
  121OSM    H1T12787   6.668   0.454  10.825  0.0248  0.8971  0.3414
  121OSM     NF12788   6.660   0.514  10.552  0.2929 -0.8093  0.4482
  121OSM    HNF12789   6.756   0.491  10.551  1.1667  2.5752  0.1561
  121OSM    C2S12790   6.622   0.599  10.663  0.0169 -0.1066 -0.8927
  121OSM    H2S12791   6.526   0.648  10.638 -0.3759 -0.5579 -0.2664
  121OSM    C3S12792   6.731   0.703  10.693 -0.3320 -0.5872  0.1422
  121OSM    H3S12793   6.818   0.648  10.735 -0.0782  1.2387  2.1307
  121OSM     O312794   6.684   0.791  10.787  0.1811 -0.0853  0.0668
  121OSM    HO312795   6.605   0.745  10.814 -0.5074  0.9206 -0.1804
  121OSM    C4S12796   6.762   0.776  10.560 -0.0904  0.2105 -0.2087
  121OSM    H4S12797   6.682   0.812  10.494 -0.3091 -0.4001 -0.2804
  121OSM    C5S12798   6.886   0.788  10.509  0.0534  0.0394 -0.5298
  121OSM    H5S12799   6.968   0.768  10.579  0.3517  0.8957 -0.6300
  121OSM    C6S12800   6.904   0.859  10.377 -0.4567 -0.0906  0.3875
  121OSM    H6S12801   6.996   0.921  10.378 -0.1479 -0.5209 -0.7166
  121OSM    H6T12802   6.814   0.921  10.356  2.0382  2.7692 -2.2902
  121OSM    C7S12803   6.914   0.763  10.256  0.3060 -0.6044  0.3685
  121OSM    H7S12804   6.831   0.690  10.261  0.6946 -0.9927  1.2089
  121OSM    H7T12805   7.006   0.703  10.276  1.2253  0.7198  0.1754
  121OSM    C8S12806   6.929   0.841  10.125  0.1020 -0.1736 -0.0248
  121OSM    H8S12807   6.982   0.936  10.145 -2.4896  0.7914  2.6448
  121OSM    H8T12808   6.824   0.873  10.108 -0.3049 -0.7677  1.3457
  121OSM    C9S12809   6.976   0.760  10.007 -0.1849 -0.5685  0.0458
  121OSM    H9S12810   6.915   0.667  10.000 -0.8066 -0.1143 -0.7108
  121OSM    H9T12811   7.079   0.728  10.034 -0.6255 -1.0370  1.2283
  121OSM   C10S12812   6.959   0.830   9.869  0.0154  0.1202  0.9262
  121OSM   H10S12813   7.039   0.906   9.876  1.3427 -1.3545  2.3901
  121OSM   H10T12814   6.862   0.884   9.864  0.8231  1.4991  0.1273
  121OSM   C11S12815   6.979   0.739   9.749 -0.1345 -0.3445 -0.0793
  121OSM   H11S12816   6.905   0.656   9.750  0.9608 -1.3651 -1.4240
  121OSM   H11T12817   7.082   0.698   9.762  0.8341  0.7668 -3.7846
  121OSM   C12S12818   6.975   0.807   9.609 -0.6578 -0.1784 -0.1518
  121OSM   H12S12819   7.035   0.901   9.608  1.2528 -1.3432 -3.9607
  121OSM   H12T12820   6.870   0.843   9.597 -0.3959 -0.4411 -3.9549
  121OSM   C13S12821   7.016   0.717   9.497 -0.0775  0.5185  0.7153
  121OSM   H13S12822   6.947   0.636   9.464  2.5282 -1.2166 -0.7043
  121OSM   H13T12823   7.109   0.661   9.522  0.4410  1.0470  0.0170
  121OSM   C14S12824   7.041   0.797   9.361 -0.0707 -0.7917 -0.3683
  121OSM   H14S12825   7.114   0.875   9.390 -0.0348 -1.4547  1.4313
  121OSM   H14T12826   6.950   0.855   9.333  0.3417  0.3591  0.6326
  121OSM   C15S12827   7.096   0.720   9.240 -0.5818 -0.1112 -0.0856
  121OSM   H15S12828   7.097   0.797   9.159  0.5163 -1.7642 -1.6943
  121OSM   H15T12829   7.028   0.641   9.202 -0.7770 -0.9913  2.0560
  121OSM   C16S12830   7.238   0.664   9.268  0.4329  0.3967 -0.1292
  121OSM   H16S12831   7.242   0.587   9.347 -0.5072  0.0841 -0.3788
  121OSM   H16T12832   7.299   0.751   9.302  3.1095 -1.7818  0.7232
  121OSM   C17S12833   7.295   0.608   9.139  0.1273  0.2461  0.0314
  121OSM   H17S12834   7.334   0.688   9.074  0.7615  0.9430  1.2548
  121OSM   H17T12835   7.225   0.553   9.072  0.9626 -0.1527 -0.5311
  121OSM   C18S12836   7.413   0.519   9.181  0.3853 -0.1610 -0.3462
  121OSM   H18S12837   7.479   0.584   9.242 -0.8739 -0.9783  1.9741
  121OSM   H18T12838   7.467   0.480   9.092 -2.1641  1.1699 -2.5543
  121OSM   H18U12839   7.379   0.431   9.240  0.0896  0.7783  0.9103
  121OSM    C1F12840   6.576   0.431  10.485  0.9338  0.3855  0.3717
  121OSM     OF12841   6.453   0.435  10.499 -0.1770  0.4228  0.1678
  121OSM    C2F12842   6.634   0.333  10.383  0.3129 -0.1696 -0.7897
  121OSM    H2F12843   6.560   0.251  10.398  1.3857 -1.1528 -0.8641
  121OSM    H2G12844   6.737   0.312  10.419  0.3241  1.3632  0.1167
  121OSM    C3F12845   6.634   0.397  10.243  0.1285 -0.0117 -0.0601
  121OSM    H3F12846   6.705   0.482  10.234 -0.6140  0.5578 -0.6680
  121OSM    H3G12847   6.532   0.423  10.206 -0.3663 -0.6350  0.8186
  121OSM    C4F12848   6.679   0.295  10.135 -0.1678 -0.7792  0.2366
  121OSM    H4F12849   6.601   0.216  10.125 -1.1715 -0.2902  3.6850
  121OSM    H4G12850   6.769   0.238  10.167 -1.7761 -2.8787  1.1654
  121OSM    C5F12851   6.709   0.363   9.999 -0.4427 -0.4166  0.1484
  121OSM    H5F12852   6.788   0.437  10.026 -1.9365  0.7934  1.3188
  121OSM    H5G12853   6.612   0.411   9.977 -0.8559 -1.3003  0.0068
  121OSM    C6F12854   6.749   0.272   9.875 -0.0547  0.3306 -0.0172
  121OSM    H6F12855   6.659   0.206   9.872 -1.4631  2.0991  1.5609
  121OSM    H6G12856   6.848   0.235   9.910 -1.7015 -3.9432  0.4232
  121OSM    C7F12857   6.768   0.345   9.745  0.2000 -0.0885  0.1530
  121OSM    H7F12858   6.876   0.371   9.748 -0.0099  1.1656 -2.4111
  121OSM    H7G12859   6.709   0.438   9.733  0.1216 -0.3691 -1.7915
  121OSM    C8F12860   6.761   0.262   9.618  0.4998 -0.9170  0.2803
  121OSM    H8F12861   6.672   0.196   9.627  0.6476 -1.1399  0.1291
  121OSM    H8G12862   6.850   0.197   9.604 -0.6457 -1.7169 -3.7584
  121OSM    C9F12863   6.749   0.352   9.501  0.4030 -0.3312  0.1187
  121OSM    H9F12864   6.658   0.413   9.503 -0.8844 -2.1786 -1.1218
  121OSM   C10F12865   6.830   0.355   9.386 -0.2041 -0.5868 -0.0702
  121OSM   H10F12866   6.791   0.423   9.308 -0.7544  0.5648  1.1918
  121OSM   C11F12867   6.950   0.279   9.345 -0.4960  0.0142  0.4637
  121OSM   H11F12868   6.944   0.179   9.391  0.8087 -0.1096  0.3708
  121OSM   H11G12869   7.037   0.342   9.371  0.5575 -1.0981 -0.3012
  121OSM   C12F12870   6.952   0.254   9.187 -0.2649  0.8490  0.6149
  121OSM   H12F12871   7.050   0.232   9.140  0.2934  2.4046  0.9978
  121OSM   H12G12872   6.922   0.353   9.146 -1.8694  0.9069  1.8851
  121OSM   C13F12873   6.851   0.147   9.139 -0.0663  0.0517  0.0390
  121OSM   H13F12874   6.759   0.144   9.201  0.5949  1.8655  1.1536
  121OSM   H13G12875   6.893   0.044   9.142  0.2729  0.0693 -2.5315
  121OSM   C14F12876   6.815   0.167   8.994 -0.0623 -0.0747  0.8700
  121OSM   H14F12877   6.747   0.254   8.980  0.8051  0.4182 -0.3607
  121OSM   H14G12878   6.766   0.076   8.952 -0.4847  0.8111 -0.5866
  121OSM   C15F12879   6.937   0.198   8.893 -0.6007  0.0254  1.2187
  121OSM   H15F12880   7.014   0.119   8.886 -1.1592 -0.4559  0.4040
  121OSM   H15G12881   6.987   0.286   8.938  2.0772 -0.0672 -1.4570
  121OSM   C16F12882   6.890   0.260   8.753  0.9686  0.4436  0.4325
  121OSM   H16F12883   6.837   0.356   8.769 -1.5436 -0.2598 -2.9958
  121OSM   H16G12884   6.820   0.189   8.704  1.4804  1.4285 -1.7970
  121OSM   C17F12885   7.007   0.307   8.662  0.1071  0.3969  0.3056
  121OSM   H17F12886   7.090   0.233   8.663 -1.3806 -1.2805  1.6500
  121OSM   H17G12887   7.058   0.398   8.702  2.0388  0.9477 -3.2045
  121OSM   C18F12888   6.950   0.316   8.517 -0.3481  0.3728 -0.0349
  121OSM   H18F12889   6.860   0.381   8.514 -0.0280  0.7560 -1.5258
  121OSM   H18G12890   6.933   0.215   8.474 -2.2207  0.6154  0.0740
  121OSM   H18H12891   7.028   0.360   8.452  0.5067 -2.4463 -0.9894
  122OSM      N12892   0.314   5.106  10.983 -0.6750 -0.4852  0.2155
  122OSM    C1512893   0.198   5.196  10.989  0.0432  0.6947 -0.0244
  122OSM   H15A12894   0.106   5.152  10.953  0.0951  0.2869  0.3474
  122OSM   H15B12895   0.213   5.292  10.940  1.9801 -0.3879 -1.6396
  122OSM   H15C12896   0.172   5.218  11.091 -1.2829 -0.5543 -0.0837
  122OSM    C1412897   0.427   5.164  11.064 -0.7194  0.2929 -0.0052
  122OSM   H14A12898   0.516   5.107  11.046 -0.2124  0.3642  2.1054
  122OSM   H14B12899   0.403   5.152  11.169  0.2589  0.9976  0.3014
  122OSM   H14C12900   0.438   5.267  11.036  1.2311  0.4917  1.3887
  122OSM    C1312901   0.256   4.977  11.040  0.2978  0.4241 -0.0847
  122OSM   H13A12902   0.340   4.909  11.045  0.5230  0.7599  0.7655
  122OSM   H13B12903   0.177   4.941  10.976 -2.1985  2.2757  1.8887
  122OSM   H13C12904   0.210   5.002  11.134 -1.8485 -0.5005 -0.8734
  122OSM    C1212905   0.362   5.084  10.842 -0.3559 -0.3569  0.0453
  122OSM   H12A12906   0.275   5.071  10.780 -1.5830  3.9689  0.7333
  122OSM   H12B12907   0.429   4.999  10.835  0.6221  0.5879 -2.3269
  122OSM    C1112908   0.421   5.208  10.766 -0.0059  0.2162  0.5008
  122OSM   H11A12909   0.347   5.290  10.772 -0.3741 -0.0903  0.1562
  122OSM   H11B12910   0.425   5.183  10.658  2.4465 -1.0255  0.8480
  122OSM      P12911   0.682   5.163  10.780  0.3862  0.2660 -0.1629
  122OSM    O1312912   0.793   5.258  10.767  0.1190  0.2086 -0.3990
  122OSM    O1412913   0.687   5.055  10.878 -0.1318  0.1483 -1.3751
  122OSM    O1112914   0.657   5.102  10.631 -0.2035 -0.6028 -0.3109
  122OSM    O1212915   0.550   5.247  10.808  0.7344 -0.7667 -0.1598
  122OSM    C1S12916   0.762   5.112  10.534  0.0592 -0.6046  0.1350
  122OSM    H1S12917   0.854   5.066  10.575 -0.3214 -1.3431  0.1662
  122OSM    H1T12918   0.795   5.216  10.512 -1.9339 -0.0583 -0.3282
  122OSM     NF12919   0.843   5.021  10.314 -0.6281  0.1122 -0.4819
  122OSM    HNF12920   0.854   5.066  10.226 -1.7676 -0.7249 -1.0605
  122OSM    C2S12921   0.727   5.043  10.394  0.7178  0.1124  0.0593
  122OSM    H2S12922   0.689   4.942  10.418  2.0141  0.0918  2.1310
  122OSM    C3S12923   0.624   5.133  10.322  0.6925  0.0591 -0.1941
  122OSM    H3S12924   0.670   5.234  10.317 -0.6899  0.6409 -1.4276
  122OSM     O312925   0.504   5.146  10.397 -0.0698  0.2918  0.0235
  122OSM    HO312926   0.531   5.117  10.484 -0.2706  2.5795  0.8792
  122OSM    C4S12927   0.586   5.083  10.183 -0.3393  0.5061  0.3928
  122OSM    H4S12928   0.525   4.991  10.181  0.8810 -0.2717 -1.9798
  122OSM    C5S12929   0.613   5.148  10.068 -0.8650  0.5361 -0.0645
  122OSM    H5S12930   0.668   5.243  10.074 -1.2994  0.8062 -0.2964
  122OSM    C6S12931   0.572   5.092   9.939  0.2358  0.2795  0.3701
  122OSM    H6S12932   0.472   5.135   9.918 -0.3699 -1.1175  0.3314
  122OSM    H6T12933   0.554   4.983   9.951  1.6743  0.1362  1.3667
  122OSM    C7S12934   0.667   5.116   9.829  0.5155 -0.5317  0.8836
  122OSM    H7S12935   0.761   5.060   9.846  0.7027 -0.7577 -0.8304
  122OSM    H7T12936   0.679   5.224   9.806 -4.6201  0.5925  2.8074
  122OSM    C8S12937   0.599   5.053   9.703 -0.1188 -0.8945 -0.3101
  122OSM    H8S12938   0.499   5.092   9.673  0.0718 -1.4302 -1.6725
  122OSM    H8T12939   0.588   4.948   9.737  0.2056 -1.2365 -1.2364
  122OSM    C9S12940   0.693   5.048   9.582 -0.0786 -0.2915  0.0815
  122OSM    H9S12941   0.772   4.979   9.617  0.6980  0.0980 -0.8860
  122OSM    H9T12942   0.737   5.149   9.576 -0.7834 -0.0499 -1.2522
  122OSM   C10S12943   0.633   4.996   9.453 -0.1118 -0.5778 -0.1695
  122OSM   H10S12944   0.553   5.061   9.411 -2.5449 -1.9465  2.2049
  122OSM   H10T12945   0.586   4.899   9.480 -1.5628 -0.2940 -1.5928
  122OSM   C11S12946   0.733   4.968   9.345  0.4867  0.7917 -0.5610
  122OSM   H11S12947   0.691   4.892   9.274 -0.8517  2.2321 -1.3456
  122OSM   H11T12948   0.820   4.916   9.390 -1.6020 -3.9541 -1.6497
  122OSM   C12S12949   0.787   5.091   9.272 -0.3148  0.3495  0.1696
  122OSM   H12S12950   0.867   5.059   9.202  1.6987  1.4666  1.9218
  122OSM   H12T12951   0.842   5.155   9.344  2.8258  0.1474 -1.9684
  122OSM   C13S12952   0.690   5.175   9.193  0.3728  0.3842  0.0002
  122OSM   H13S12953   0.600   5.211   9.248  0.0444 -0.5853  0.1015
  122OSM   H13T12954   0.654   5.121   9.103 -0.5807  1.5102 -0.2952
  122OSM   C14S12955   0.749   5.303   9.125  0.4929 -0.4476 -0.9658
  122OSM   H14S12956   0.787   5.375   9.201  0.3971  0.1129 -1.4486
  122OSM   H14T12957   0.676   5.348   9.055  0.3376  2.9480  1.2202
  122OSM   C15S12958   0.879   5.274   9.043  0.0748  0.7317  0.0232
  122OSM   H15S12959   0.857   5.192   8.971 -0.3696  0.5652  0.3454
  122OSM   H15T12960   0.960   5.247   9.114 -0.3717 -0.2320  0.1755
  122OSM   C16S12961   0.933   5.393   8.966  0.2418  0.6341  0.2540
  122OSM   H16S12962   0.851   5.440   8.907  0.6948  0.9657 -0.1229
  122OSM   H16T12963   1.004   5.351   8.891 -0.8419  1.9539 -1.5580
  122OSM   C17S12964   1.013   5.497   9.047 -0.0730  0.0159  0.3043
  122OSM   H17S12965   0.946   5.516   9.133  0.8327 -3.0198  1.7420
  122OSM   H17T12966   1.024   5.596   8.997 -0.0181 -0.0165  0.2511
  122OSM   C18S12967   1.150   5.448   9.084  0.3466  0.1833  0.1816
  122OSM   H18S12968   1.147   5.356   9.145 -0.5259 -1.0813 -1.7222
  122OSM   H18T12969   1.201   5.529   9.140 -1.2775  0.5547  1.1506
  122OSM   H18U12970   1.205   5.424   8.990 -1.6215  1.1001 -1.2491
  122OSM    C1F12971   0.936   4.935  10.345 -0.3683 -1.1312  0.1838
  122OSM     OF12972   0.911   4.853  10.433 -0.7011 -0.0560 -0.3789
  122OSM    C2F12973   1.075   4.937  10.275 -0.0669  0.3698  0.1828
  122OSM    H2F12974   1.148   4.977  10.348 -0.2475  0.2744  0.4166
  122OSM    H2G12975   1.064   5.005  10.188  1.9880  0.3061 -0.1591
  122OSM    C3F12976   1.117   4.799  10.213 -0.8708  0.4699 -0.1833
  122OSM    H3F12977   1.034   4.726  10.216 -1.4223  1.0894 -0.2518
  122OSM    H3G12978   1.210   4.761  10.260  0.4912  1.0023 -2.3691
  122OSM    C4F12979   1.159   4.800  10.067  0.1829 -0.5436  1.2541
  122OSM    H4F12980   1.191   4.695  10.054 -1.1660 -0.7572 -0.5090
  122OSM    H4G12981   1.248   4.862  10.044  0.9755 -1.7534  1.0689
  122OSM    C5F12982   1.051   4.848   9.968 -0.0915 -0.6857 -0.1216
  122OSM    H5F12983   1.017   4.953   9.973  0.0102 -0.6254 -0.6526
  122OSM    H5G12984   0.975   4.771   9.994  0.3263 -0.9123  0.4372
  122OSM    C6F12985   1.104   4.835   9.828 -0.1251 -0.0671  0.3652
  122OSM    H6F12986   1.131   4.729   9.807  0.8266  0.6476 -2.2474
  122OSM    H6G12987   1.186   4.907   9.808  0.3671 -0.9025 -0.6658
  122OSM    C7F12988   0.992   4.859   9.721  0.1396 -0.0224  0.0853
  122OSM    H7F12989   0.947   4.961   9.725 -2.5658 -0.9876 -3.6850
  122OSM    H7G12990   0.907   4.789   9.734  0.4220 -1.0542 -3.3093
  122OSM    C8F12991   1.053   4.839   9.574 -0.3787  0.0519 -0.5612
  122OSM    H8F12992   1.139   4.910   9.571 -1.3256  1.1341 -2.4346
  122OSM    H8G12993   0.973   4.876   9.507 -1.8071  0.0384  1.0904
  122OSM    C9F12994   1.082   4.695   9.546 -0.2925 -0.5838  0.5349
  122OSM    H9F12995   1.170   4.654   9.597  0.0387  2.5756  2.6555
  122OSM   C10F12996   0.991   4.608   9.489 -0.0982  0.2124  0.1479
  122OSM   H10F12997   1.016   4.501   9.492  0.7869  0.4285  0.8941
  122OSM   C11F12998   0.854   4.632   9.436 -0.3980  0.2913 -0.9008
  122OSM   H11F12999   0.815   4.729   9.474  2.8909  1.4610 -0.3323
  122OSM   H11G13000   0.787   4.555   9.480 -0.4347  0.2772 -0.9822
  122OSM   C12F13001   0.820   4.625   9.282  0.4012 -0.3146 -0.2492
  122OSM   H12F13002   0.712   4.653   9.279  0.2462 -0.9275 -0.6268
  122OSM   H12G13003   0.820   4.521   9.243 -0.7981  1.0822 -4.2378
  122OSM   C13F13004   0.904   4.704   9.183 -0.2269  0.3659 -0.3412
  122OSM   H13F13005   1.011   4.671   9.178 -0.0084  1.4955 -4.2643
  122OSM   H13G13006   0.901   4.812   9.205 -1.1145  0.0932  0.9622
  122OSM   C14F13007   0.839   4.683   9.048 -1.0810 -0.1667  0.3014
  122OSM   H14F13008   0.733   4.713   9.056 -1.0640 -0.1520  0.4763
  122OSM   H14G13009   0.840   4.577   9.015 -2.2155  0.6871 -2.5964
  122OSM   C15F13010   0.912   4.776   8.952 -0.0616 -0.7375 -0.1938
  122OSM   H15F13011   1.016   4.743   8.929  0.3303 -1.5235  2.5148
  122OSM   H15G13012   0.918   4.876   9.001 -0.1009 -1.2009  0.7557
  122OSM   C16F13013   0.837   4.807   8.826  0.6049 -0.4606  0.5842
  122OSM   H16F13014   0.872   4.892   8.763 -1.8587 -0.3736 -0.7037
  122OSM   H16G13015   0.732   4.828   8.855 -0.0682 -1.7959 -0.7992
  122OSM   C17F13016   0.835   4.691   8.732  1.2057  0.1197  0.6517
  122OSM   H17F13017   0.763   4.614   8.766 -1.6804  2.2386 -0.4365
  122OSM   H17G13018   0.933   4.638   8.728  0.9318 -0.4118  0.9509
  122OSM   C18F13019   0.781   4.744   8.602 -0.8001 -0.3180 -0.0323
  122OSM   H18F13020   0.740   4.667   8.533  0.0869 -1.0462  0.2543
  122OSM   H18G13021   0.870   4.789   8.554 -0.5012 -0.4247  0.4142
  122OSM   H18H13022   0.707   4.824   8.627 -1.8319 -1.5674  0.9724
  123OSM      N13023   5.491   4.450   5.804 -0.8621  0.1373 -0.3017
  123OSM    C1513024   5.622   4.509   5.831  0.0038 -0.5623  0.7663
  123OSM   H15A13025   5.701   4.442   5.860  1.4510  0.3766 -0.9374
  123OSM   H15B13026   5.620   4.588   5.905  0.8082 -0.6853  0.9249
  123OSM   H15C13027   5.658   4.563   5.745 -1.5296 -1.1401 -0.2534
  123OSM    C1413028   5.395   4.559   5.767 -0.5661 -0.4892  0.1863
  123OSM   H14A13029   5.304   4.530   5.717 -0.7930  1.3219 -0.4832
  123OSM   H14B13030   5.440   4.637   5.707  0.1494 -1.0565 -0.0188
  123OSM   H14C13031   5.348   4.598   5.857 -0.7753 -1.2811  0.4206
  123OSM    C1313032   5.499   4.352   5.690  0.3574  0.0644 -0.0993
  123OSM   H13A13033   5.400   4.335   5.651  0.9960 -1.6049 -1.0221
  123OSM   H13B13034   5.509   4.251   5.728  0.7492  0.3492  0.5704
  123OSM   H13C13035   5.565   4.384   5.610 -0.3240  0.1385 -0.6327
  123OSM    C1213036   5.442   4.384   5.923  0.1606  0.6748  0.1266
  123OSM   H12A13037   5.441   4.463   5.996  0.1826  0.3898  0.4413
  123OSM   H12B13038   5.510   4.304   5.950  0.1662  1.2384  1.8402
  123OSM    C1113039   5.299   4.320   5.926 -0.4747  0.0299  0.2871
  123OSM   H11A13040   5.290   4.293   6.033 -1.0321  0.1893  0.2848
  123OSM   H11B13041   5.303   4.233   5.857 -0.9969 -0.6388  1.0865
  123OSM      P13042   5.144   4.504   5.989 -0.0895 -0.2368 -0.2829
  123OSM    O1313043   5.089   4.627   5.926 -0.0097 -0.2089 -0.4041
  123OSM    O1413044   5.051   4.428   6.077  0.0985  0.5786  0.2708
  123OSM    O1113045   5.270   4.537   6.081 -0.2541 -0.5990 -0.1311
  123OSM    O1213046   5.195   4.410   5.876 -0.1810 -0.0777 -0.1598
  123OSM    C1S13047   5.265   4.642   6.176  0.5869  0.0102  0.0987
  123OSM    H1S13048   5.197   4.726   6.152  0.4109 -0.4592 -1.0468
  123OSM    H1T13049   5.371   4.674   6.185  1.1984 -0.7147 -3.6210
  123OSM     NF13050   5.234   4.703   6.414 -0.5641 -0.0253  0.1412
  123OSM    HNF13051   5.301   4.714   6.487 -1.0374  0.6996  0.4752
  123OSM    C2S13052   5.240   4.585   6.322  0.0056 -0.0762 -0.0293
  123OSM    H2S13053   5.145   4.527   6.329 -0.0223 -0.1714 -1.2083
  123OSM    C3S13054   5.345   4.488   6.364  0.1463 -0.0446  0.1405
  123OSM    H3S13055   5.449   4.527   6.359  0.4110 -0.7920 -0.3850
  123OSM     O313056   5.350   4.371   6.286 -0.0329 -0.2198  0.1189
  123OSM    HO313057   5.307   4.409   6.209 -0.4571 -0.2566  0.3337
  123OSM    C4S13058   5.320   4.461   6.511  0.0711 -0.0754 -0.6114
  123OSM    H4S13059   5.212   4.455   6.530  0.3591 -2.6176  0.3846
  123OSM    C5S13060   5.414   4.440   6.607 -0.2772 -0.2485 -0.7129
  123OSM    H5S13061   5.518   4.451   6.574 -0.5249  0.6041 -1.2066
  123OSM    C6S13062   5.401   4.419   6.752 -0.0360 -0.0868  0.1947
  123OSM    H6S13063   5.299   4.445   6.788  0.4922 -2.0112  3.3310
  123OSM    H6T13064   5.470   4.481   6.812  1.8148  1.4589 -3.4190
  123OSM    C7S13065   5.431   4.272   6.773 -0.2901  0.4538  0.2632
  123OSM    H7S13066   5.527   4.235   6.731 -0.1985  0.8506  0.1128
  123OSM    H7T13067   5.351   4.218   6.718 -0.6920  1.8426 -0.5389
  123OSM    C8S13068   5.425   4.226   6.918  0.0400 -0.4212  0.0321
  123OSM    H8S13069   5.447   4.117   6.915 -1.8520 -0.7950 -2.6511
  123OSM    H8T13070   5.325   4.232   6.966  0.1376  0.3493  0.1483
  123OSM    C9S13071   5.515   4.294   7.017 -0.5358  0.0579 -0.4026
  123OSM    H9S13072   5.511   4.404   7.007 -3.3824 -0.1389 -2.1037
  123OSM    H9T13073   5.622   4.262   7.013 -0.2864  0.9293 -0.8391
  123OSM   C10S13074   5.477   4.241   7.163  0.8971  0.4283  0.5746
  123OSM   H10S13075   5.463   4.132   7.152 -0.2841  0.4496  1.7523
  123OSM   H10T13076   5.380   4.289   7.188  0.3351 -0.3131 -0.1614
  123OSM   C11S13077   5.582   4.266   7.267  0.0902  0.5085  0.1232
  123OSM   H11S13078   5.584   4.371   7.302  1.2263  1.2824 -2.1992
  123OSM   H11T13079   5.684   4.253   7.226  0.5905  3.0260  0.5219
  123OSM   C12S13080   5.568   4.172   7.388 -0.1879  0.3785  0.4597
  123OSM   H12S13081   5.578   4.064   7.362 -2.7743  0.0938  0.5858
  123OSM   H12T13082   5.470   4.196   7.434 -0.7640 -0.4497 -0.3079
  123OSM   C13S13083   5.674   4.200   7.506  0.0375  0.4243  0.6149
  123OSM   H13S13084   5.659   4.308   7.529 -0.5508  0.1731  1.4615
  123OSM   H13T13085   5.779   4.187   7.474  1.5384  2.2904  4.4094
  123OSM   C14S13086   5.635   4.125   7.634 -0.7405  0.0229 -0.4460
  123OSM   H14S13087   5.663   4.018   7.622  2.0512  0.6895 -0.1940
  123OSM   H14T13088   5.524   4.132   7.640 -0.7504 -0.7342  0.5525
  123OSM   C15S13089   5.710   4.171   7.768 -0.2033  0.0075 -1.2493
  123OSM   H15S13090   5.780   4.253   7.739  1.8177 -1.3053 -0.1991
  123OSM   H15T13091   5.776   4.092   7.810  1.7024  1.3550 -1.6136
  123OSM   C16S13092   5.617   4.234   7.874 -0.4623 -0.2887  0.1859
  123OSM   H16S13093   5.529   4.171   7.900 -0.7304 -0.5123 -1.1906
  123OSM   H16T13094   5.576   4.325   7.824  1.2839  1.5615  2.0235
  123OSM   C17S13095   5.688   4.271   8.007 -0.1493  0.0341 -0.6235
  123OSM   H17S13096   5.625   4.351   8.050  2.7285  1.4496  1.1547
  123OSM   H17T13097   5.789   4.313   7.987 -0.2829  0.5843 -0.1439
  123OSM   C18S13098   5.683   4.153   8.102 -0.0396  0.0584 -0.1888
  123OSM   H18S13099   5.680   4.180   8.210  1.2624  0.7250 -0.3105
  123OSM   H18T13100   5.757   4.073   8.081 -1.8765 -1.7849  0.2572
  123OSM   H18U13101   5.593   4.092   8.078 -0.8739 -0.1181  3.1313
  123OSM    C1F13102   5.125   4.777   6.409 -0.4437 -1.0413 -0.0287
  123OSM     OF13103   5.031   4.761   6.336 -0.3892  0.4340 -0.4663
  123OSM    C2F13104   5.114   4.887   6.517 -0.1685 -0.9159  0.4063
  123OSM    H2F13105   5.105   4.984   6.462  1.1323 -0.4563  0.9927
  123OSM    H2G13106   5.207   4.901   6.576  0.7808 -0.0848 -1.2503
  123OSM    C3F13107   4.995   4.862   6.615  0.0715  0.4644 -0.3458
  123OSM    H3F13108   4.901   4.856   6.556 -0.7127 -2.1614  1.0839
  123OSM    H3G13109   4.991   4.950   6.683  0.4263 -0.7174  1.2294
  123OSM    C4F13110   5.015   4.728   6.691  0.2073  0.4869 -0.3395
  123OSM    H4F13111   5.125   4.724   6.701  0.3219  1.2719 -1.2117
  123OSM    H4G13112   4.993   4.655   6.611 -1.3295  1.3651 -0.7375
  123OSM    C5F13113   4.918   4.702   6.803  0.0501  0.4403  0.7306
  123OSM    H5F13114   4.821   4.670   6.759 -0.4484  1.1664  1.2945
  123OSM    H5G13115   4.887   4.798   6.848 -2.0112 -0.8003  2.0353
  123OSM    C6F13116   4.975   4.601   6.900  0.3626 -0.1451 -0.4998
  123OSM    H6F13117   5.079   4.634   6.920  1.2407 -3.4001  0.6176
  123OSM    H6G13118   4.977   4.501   6.850 -0.4627 -0.0816 -0.6659
  123OSM    C7F13119   4.905   4.600   7.032 -0.6245 -0.8956  0.5477
  123OSM    H7F13120   4.799   4.583   7.003 -0.8557 -1.7149  1.8022
  123OSM    H7G13121   4.925   4.696   7.084 -0.4409  0.0074 -1.1612
  123OSM    C8F13122   4.930   4.469   7.111 -0.4032 -0.2703  0.3250
  123OSM    H8F13123   4.900   4.386   7.043  3.2209 -0.2460 -1.4183
  123OSM    H8G13124   4.865   4.472   7.200  0.2162 -2.9808  0.9093
  123OSM    C9F13125   5.078   4.457   7.153 -0.5002  0.3384 -0.8070
  123OSM    H9F13126   5.151   4.419   7.080  0.7707  0.1665  0.5418
  123OSM   C10F13127   5.130   4.488   7.276 -0.1298 -0.3447  0.2293
  123OSM   H10F13128   5.237   4.471   7.295 -0.3234  0.1218  1.7323
  123OSM   C11F13129   5.061   4.528   7.402  0.2208 -0.3041 -0.1496
  123OSM   H11F13130   4.955   4.496   7.400 -0.3784  1.5520  0.6836
  123OSM   H11G13131   5.048   4.639   7.399 -2.2189 -0.5414  0.3569
  123OSM   C12F13132   5.127   4.477   7.532 -0.4973  0.2997  0.4221
  123OSM   H12F13133   5.139   4.367   7.524  2.5733  0.6806 -0.9433
  123OSM   H12G13134   5.046   4.495   7.606 -0.8590 -1.7996  0.5667
  123OSM   C13F13135   5.254   4.537   7.588 -0.3223  0.2656 -0.2380
  123OSM   H13F13136   5.227   4.645   7.598 -0.9438  0.1710 -0.8586
  123OSM   H13G13137   5.337   4.510   7.520  1.4419 -0.1892  2.0330
  123OSM   C14F13138   5.293   4.474   7.717  0.0324 -0.2660 -0.5023
  123OSM   H14F13139   5.380   4.530   7.756 -1.6504  1.2036  1.2217
  123OSM   H14G13140   5.323   4.370   7.690 -0.7545 -0.9850  1.2991
  123OSM   C15F13141   5.191   4.468   7.828  0.6984 -0.3227 -0.1809
  123OSM   H15F13142   5.097   4.422   7.791  0.4510 -1.2351  1.5354
  123OSM   H15G13143   5.170   4.575   7.850  3.2719 -0.0202  0.9267
  123OSM   C16F13144   5.236   4.390   7.954 -0.3758  0.2404 -0.1641
  123OSM   H16F13145   5.279   4.291   7.927 -0.2870  0.7730 -2.0841
  123OSM   H16G13146   5.143   4.377   8.012 -0.5270 -2.0090 -0.8698
  123OSM   C17F13147   5.332   4.472   8.039 -1.0401 -0.6662 -0.5370
  123OSM   H17F13148   5.298   4.578   8.046  1.5532  0.1020  1.4030
  123OSM   H17G13149   5.430   4.473   7.986  0.2078 -0.7472  1.6920
  123OSM   C18F13150   5.359   4.410   8.178 -0.0312 -0.3946  0.0962
  123OSM   H18F13151   5.272   4.421   8.246 -0.0683  2.2128 -0.3203
  123OSM   H18G13152   5.439   4.461   8.235  0.2041  0.8421 -1.3247
  123OSM   H18H13153   5.378   4.301   8.168  0.2622 -0.4298  1.0700
  124OSM      N13154   1.155   1.272   6.175  0.1950 -0.4145  0.5030
  124OSM    C1513155   1.305   1.263   6.175 -0.2477  0.5422  0.1831
  124OSM   H15A13156   1.329   1.164   6.139  1.5038  0.9296  0.2151
  124OSM   H15B13157   1.347   1.277   6.274  0.7233 -2.3387  0.2387
  124OSM   H15C13158   1.355   1.339   6.117 -0.4800  1.4892  1.1984
  124OSM    C1413159   1.107   1.276   6.036  0.5582  0.3868 -0.2158
  124OSM   H14A13160   1.139   1.364   5.982  3.6077 -0.2249  0.5449
  124OSM   H14B13161   0.999   1.285   6.036  0.4570 -0.6897  1.4802
  124OSM   H14C13162   1.135   1.187   5.982 -1.2231 -0.8533  0.8284
  124OSM    C1313163   1.105   1.149   6.244  0.0566 -0.0460  0.6623
  124OSM   H13A13164   0.998   1.142   6.230  0.1438  0.3523 -0.2278
  124OSM   H13B13165   1.131   1.151   6.349  1.9998  1.0881  0.1686
  124OSM   H13C13166   1.144   1.057   6.203 -2.0235 -0.5683 -0.2029
  124OSM    C1213167   1.110   1.398   6.246 -0.4972  0.5881 -0.0694
  124OSM   H12A13168   1.132   1.405   6.352 -1.4204 -0.3897  0.1976
  124OSM   H12B13169   1.002   1.410   6.250 -0.5487 -0.0915  1.0085
  124OSM    C1113170   1.154   1.531   6.191 -0.0902  0.2682  0.0365
  124OSM   H11A13171   1.190   1.530   6.086 -2.5728  0.9918 -0.8502
  124OSM   H11B13172   1.250   1.561   6.238 -0.2381 -0.0528  0.5482
  124OSM      P13173   1.045   1.734   6.306  0.4763 -0.1389  0.4953
  124OSM    O1313174   1.157   1.829   6.269  0.0685  0.3830  0.6450
  124OSM    O1413175   0.906   1.791   6.309 -0.2084 -0.4302 -0.0349
  124OSM    O1113176   1.079   1.663   6.439  0.0602  0.2396  0.1627
  124OSM    O1213177   1.044   1.615   6.201 -0.0523 -0.7835 -0.3875
  124OSM    C1S13178   1.156   1.711   6.553 -0.0985 -0.0830 -0.3978
  124OSM    H1S13179   1.220   1.798   6.527  0.9216 -0.6780  0.0998
  124OSM    H1T13180   1.220   1.629   6.594 -0.7507 -0.7707 -0.7487
  124OSM     NF13181   1.142   1.808   6.783 -0.0351  0.3180 -0.3297
  124OSM    HNF13182   1.152   1.758   6.868 -0.4734  1.1553  0.2225
  124OSM    C2S13183   1.064   1.749   6.675 -0.9848  0.7735 -0.4638
  124OSM    H2S13184   0.989   1.827   6.648 -0.3154  1.6022  0.0539
  124OSM    C3S13185   0.978   1.617   6.710  0.7344 -0.2194  0.1720
  124OSM    H3S13186   1.047   1.543   6.755 -0.2345 -1.2795 -0.0715
  124OSM     O313187   0.925   1.541   6.601  0.2412  0.9614 -0.6532
  124OSM    HO313188   0.986   1.575   6.535  2.5582 -0.7701  0.5323
  124OSM    C4S13189   0.872   1.652   6.812  0.8090 -0.0530 -0.1143
  124OSM    H4S13190   0.891   1.613   6.914  3.7758  0.3382 -0.4844
  124OSM    C5S13191   0.752   1.707   6.785 -0.1025  0.3073 -0.2920
  124OSM    H5S13192   0.733   1.739   6.682  0.1468  2.2118  0.2282
  124OSM    C6S13193   0.640   1.740   6.887  0.5498 -0.1499  0.0722
  124OSM    H6S13194   0.541   1.702   6.854  1.7331 -1.4638 -2.1402
  124OSM    H6T13195   0.642   1.851   6.898  2.3583 -0.3466  2.0082
  124OSM    C7S13196   0.659   1.672   7.026 -0.5960  0.0642 -0.0780
  124OSM    H7S13197   0.754   1.709   7.070  0.0416  1.7403 -2.8007
  124OSM    H7T13198   0.673   1.563   7.007  1.6036  0.3395 -0.2003
  124OSM    C8S13199   0.550   1.703   7.119  0.2954  0.2358  0.1422
  124OSM    H8S13200   0.454   1.652   7.095  0.0776  0.6642  0.0906
  124OSM    H8T13201   0.531   1.812   7.107  1.5875  0.2138 -2.2987
  124OSM    C9S13202   0.583   1.667   7.260 -0.2933  0.0548 -0.8075
  124OSM    H9S13203   0.686   1.701   7.284  0.1733 -1.8646  0.0092
  124OSM    H9T13204   0.584   1.557   7.268  0.4692  0.2735  2.6807
  124OSM   C10S13205   0.485   1.718   7.366  0.3479 -0.3937 -0.3069
  124OSM   H10S13206   0.379   1.699   7.339  0.1547 -0.8984  0.8028
  124OSM   H10T13207   0.498   1.828   7.379 -0.0557 -0.0735 -2.3857
  124OSM   C11S13208   0.523   1.657   7.502 -0.1417  0.2968 -0.3554
  124OSM   H11S13209   0.632   1.651   7.522  0.2758  0.4703 -2.4663
  124OSM   H11T13210   0.493   1.550   7.508 -0.4000  0.4730  1.8924
  124OSM   C12S13211   0.438   1.714   7.613 -0.7007  0.2036 -0.5805
  124OSM   H12S13212   0.329   1.699   7.599 -0.9504  1.6579 -0.2927
  124OSM   H12T13213   0.465   1.822   7.610 -1.6538  0.4480 -0.3115
  124OSM   C13S13214   0.481   1.659   7.751  0.1841  0.6442  0.3313
  124OSM   H13S13215   0.592   1.668   7.754  0.0618  1.4899  2.8232
  124OSM   H13T13216   0.451   1.552   7.762  1.5226  0.3237  1.0226
  124OSM   C14S13217   0.430   1.738   7.870 -0.4642 -0.1285  0.0224
  124OSM   H14S13218   0.437   1.848   7.851  0.5074 -0.3044 -0.6919
  124OSM   H14T13219   0.511   1.728   7.946  0.3249  1.4471 -0.5717
  124OSM   C15S13220   0.293   1.694   7.917  0.3047 -0.3135 -0.1764
  124OSM   H15S13221   0.224   1.667   7.835  0.2170  1.1626 -0.6144
  124OSM   H15T13222   0.253   1.783   7.970 -0.8663  0.4921 -2.3362
  124OSM   C16S13223   0.287   1.576   8.012 -0.4368 -0.3488  0.3209
  124OSM   H16S13224   0.369   1.508   7.981  0.2112  0.9389 -0.9042
  124OSM   H16T13225   0.190   1.523   8.013  0.2372 -1.8246 -3.6586
  124OSM   C17S13226   0.319   1.615   8.163  0.1764  0.5515  0.1669
  124OSM   H17S13227   0.237   1.679   8.201  0.1598  1.2398 -1.0132
  124OSM   H17T13228   0.415   1.670   8.166  1.7393 -2.0606  0.0139
  124OSM   C18S13229   0.328   1.491   8.248  0.5519 -0.1666 -0.2222
  124OSM   H18S13230   0.409   1.429   8.204  1.0450  0.5901 -0.3897
  124OSM   H18T13231   0.238   1.428   8.231  1.7434 -0.9115 -4.2657
  124OSM   H18U13232   0.335   1.514   8.357 -2.0560  1.3998 -0.3537
  124OSM    C1F13233   1.209   1.920   6.766 -0.0128 -0.3997  0.5812
  124OSM     OF13234   1.178   1.995   6.672  0.6712  0.3720 -0.2289
  124OSM    C2F13235   1.319   1.951   6.864 -0.2716 -0.7315 -0.3589
  124OSM    H2F13236   1.421   1.936   6.823 -1.4877 -0.7336 -3.4756
  124OSM    H2G13237   1.307   1.892   6.958  0.1340  0.2384  0.3099
  124OSM    C3F13238   1.318   2.104   6.905  0.5815  0.6725  0.5789
  124OSM    H3F13239   1.213   2.129   6.935  0.0275 -2.6028  1.6025
  124OSM    H3G13240   1.352   2.167   6.821  0.5293 -3.6116 -2.8186
  124OSM    C4F13241   1.410   2.125   7.027  1.1406  0.0032  0.4490
  124OSM    H4F13242   1.407   2.231   7.059 -0.2178  0.9178 -2.5864
  124OSM    H4G13243   1.510   2.085   6.999  0.2549 -1.4255 -0.7007
  124OSM    C5F13244   1.369   2.045   7.155  0.0929 -0.2339 -0.6102
  124OSM    H5F13245   1.388   1.937   7.135 -1.9622 -0.6370 -0.5051
  124OSM    H5G13246   1.260   2.059   7.169  0.2071  1.3046 -1.1341
  124OSM    C6F13247   1.453   2.070   7.275 -0.1120  0.1728  0.5224
  124OSM    H6F13248   1.433   2.175   7.305 -1.6932 -0.1553  0.6588
  124OSM    H6G13249   1.555   2.057   7.234  0.2003  1.9229  0.7492
  124OSM    C7F13250   1.423   1.985   7.395 -0.7943 -0.0278 -0.0257
  124OSM    H7F13251   1.494   1.999   7.479 -0.9917  1.0441 -0.0309
  124OSM    H7G13252   1.424   1.879   7.360 -1.8015 -0.6621  1.8225
  124OSM    C8F13253   1.278   2.002   7.448  0.4043  0.4768 -0.0162
  124OSM    H8F13254   1.274   1.917   7.518  0.0882  0.5564  0.0608
  124OSM    H8G13255   1.213   1.982   7.360  2.9291 -1.0329 -1.5916
  124OSM    C9F13256   1.249   2.141   7.503  0.1730 -0.1391  0.5005
  124OSM    H9F13257   1.203   2.209   7.431 -1.3283 -1.8995 -0.2248
  124OSM   C10F13258   1.261   2.183   7.635  0.6150 -0.0546  0.6090
  124OSM   H10F13259   1.241   2.291   7.645  3.5593  0.7292 -1.1400
  124OSM   C11F13260   1.316   2.104   7.755 -0.3735  0.3494 -0.0720
  124OSM   H11F13261   1.386   2.151   7.827  0.7041 -0.2107 -0.7508
  124OSM   H11G13262   1.376   2.016   7.724 -2.3004 -0.4871 -1.5691
  124OSM   C12F13263   1.195   2.069   7.852  0.1385  0.0446 -1.0368
  124OSM   H12F13264   1.129   1.993   7.806  0.7483 -1.9339  1.2857
  124OSM   H12G13265   1.144   2.167   7.866  1.9370  0.8041  0.5616
  124OSM   C13F13266   1.233   2.028   7.995  0.2307  0.5602  0.3980
  124OSM   H13F13267   1.290   2.109   8.046  2.0298 -0.7743  0.5695
  124OSM   H13G13268   1.290   1.934   8.005  0.1883  0.7284  2.2376
  124OSM   C14F13269   1.122   1.991   8.084  0.2083 -0.2250  0.2779
  124OSM   H14F13270   1.086   1.890   8.054 -1.1029  1.3640 -3.7032
  124OSM   H14G13271   1.040   2.063   8.067 -0.1129 -0.9286 -1.2604
  124OSM   C15F13272   1.163   1.987   8.238 -0.0144  0.2017 -0.2779
  124OSM   H15F13273   1.192   2.088   8.274  0.1254 -0.1257  0.5264
  124OSM   H15G13274   1.255   1.926   8.250  1.4976  2.2323 -1.2368
  124OSM   C16F13275   1.051   1.922   8.319 -0.1392 -0.1602  0.0688
  124OSM   H16F13276   1.037   1.818   8.283 -3.1071  0.4236 -0.5746
  124OSM   H16G13277   0.956   1.976   8.300 -1.0840 -1.4948  0.9087
  124OSM   C17F13278   1.088   1.917   8.469 -0.4471 -0.7520 -0.0351
  124OSM   H17F13279   1.142   2.012   8.487 -2.1866 -0.0966  1.7864
  124OSM   H17G13280   1.168   1.842   8.490  2.3823  1.7646 -1.4268
  124OSM   C18F13281   0.970   1.922   8.562 -0.4873 -0.4964 -0.3718
  124OSM   H18F13282   0.918   1.825   8.577  1.2832 -1.4523 -0.2875
  124OSM   H18G13283   0.891   1.997   8.537 -2.8169 -2.7772 -0.1296
  124OSM   H18H13284   0.999   1.950   8.665 -0.2093 -1.2336 -0.2501
  125OSM      N13285   1.101   3.013   6.198  0.2042  0.5750 -0.5629
  125OSM    C1513286   1.106   3.031   6.348  0.4073  0.3727  0.1496
  125OSM   H15A13287   1.110   2.945   6.413 -0.5521 -0.0222 -0.3038
  125OSM   H15B13288   1.018   3.087   6.377  1.7974  2.4907  0.4056
  125OSM   H15C13289   1.185   3.096   6.383 -1.4627  2.5516  0.4517
  125OSM    C1413290   1.139   3.132   6.126  0.4531  0.1887  0.6426
  125OSM   H14A13291   1.135   3.115   6.019 -1.3758 -0.6030  0.8313
  125OSM   H14B13292   1.238   3.170   6.149  0.7785 -0.4691  0.3593
  125OSM   H14C13293   1.084   3.221   6.150 -1.4974 -0.8086 -0.0272
  125OSM    C1313294   1.207   2.903   6.164 -0.4836 -0.0507 -0.0476
  125OSM   H13A13295   1.193   2.869   6.063  1.7867 -0.0101 -0.3788
  125OSM   H13B13296   1.204   2.819   6.233  1.2269  1.3182  1.7433
  125OSM   H13C13297   1.308   2.939   6.165 -0.8870  1.1128  0.3631
  125OSM    C1213298   0.963   2.960   6.152  0.4222  1.0853  0.3219
  125OSM   H12A13299   0.945   2.867   6.204  1.4501  0.1835 -0.9088
  125OSM   H12B13300   0.967   2.929   6.049  0.0432 -1.9560  1.1784
  125OSM    C1113301   0.847   3.052   6.170  0.2758 -0.1686  0.1022
  125OSM   H11A13302   0.772   3.013   6.097  2.9651  2.6625 -4.3742
  125OSM   H11B13303   0.871   3.149   6.122 -1.3312  1.3303  2.2206
  125OSM      P13304   0.721   2.932   6.379  0.2003 -0.6109 -0.3413
  125OSM    O1313305   0.576   2.957   6.376  0.5880 -0.0950  0.1186
  125OSM    O1413306   0.762   2.797   6.329 -0.1752  0.2820  0.1738
  125OSM    O1113307   0.768   2.940   6.527  0.5290  0.2262  0.3450
  125OSM    O1213308   0.799   3.057   6.308  0.0705  0.3235  0.0138
  125OSM    C1S13309   0.806   3.063   6.583 -0.2596  0.5714  0.8548
  125OSM    H1S13310   0.750   3.147   6.536  0.9524  0.8838 -0.0602
  125OSM    H1T13311   0.916   3.066   6.572 -0.2744 -4.0990 -1.5542
  125OSM     NF13312   0.837   3.195   6.775  0.2732 -0.6369 -0.5527
  125OSM    HNF13313   0.935   3.214   6.782  0.2064 -0.0220 -1.2362
  125OSM    C2S13314   0.798   3.062   6.740 -0.3670 -0.4036 -0.8979
  125OSM    H2S13315   0.694   3.036   6.769 -0.0115 -1.1660 -0.3038
  125OSM    C3S13316   0.892   2.956   6.802 -0.0916  0.0888 -0.0528
  125OSM    H3S13317   0.998   2.978   6.775  0.7995 -1.6909  1.8148
  125OSM     O313318   0.871   2.821   6.760 -0.3056  0.0094  0.3540
  125OSM    HO313319   0.807   2.846   6.694  1.9923  0.0072 -1.9602
  125OSM    C4S13320   0.900   2.960   6.952  0.9848  0.1511  0.2319
  125OSM    H4S13321   0.807   2.913   6.988 -0.5709  2.5766 -0.5588
  125OSM    C5S13322   1.003   2.992   7.036 -0.2449  0.3301 -0.7722
  125OSM    H5S13323   1.101   3.013   6.990 -0.2753  2.1354 -0.0526
  125OSM    C6S13324   0.997   2.986   7.187 -0.2359 -0.1069 -0.1060
  125OSM    H6S13325   1.069   2.906   7.215  1.1324  1.0354 -0.3082
  125OSM    H6T13326   0.894   2.953   7.215 -0.7840 -0.2259 -2.2248
  125OSM    C7S13327   1.031   3.116   7.270 -0.4428 -0.0125  0.0521
  125OSM    H7S13328   0.957   3.195   7.247 -0.3298  0.1555  0.2561
  125OSM    H7T13329   1.128   3.156   7.233 -0.4898 -0.4427 -0.5308
  125OSM    C8S13330   1.055   3.093   7.420 -0.3513  0.0927 -0.3665
  125OSM    H8S13331   0.981   3.020   7.460  1.1610 -0.6220  1.2597
  125OSM    H8T13332   1.056   3.186   7.481  0.7513 -0.0029 -0.2283
  125OSM    C9S13333   1.199   3.035   7.443 -0.2285 -0.1710 -0.2906
  125OSM    H9S13334   1.280   3.097   7.399 -1.8368  2.2413  0.0406
  125OSM    H9T13335   1.202   2.935   7.395  0.0756 -0.2117 -0.1880
  125OSM   C10S13336   1.219   3.031   7.594  0.2393 -0.6199 -0.3107
  125OSM   H10S13337   1.135   2.968   7.630 -0.5676  0.7102  0.1419
  125OSM   H10T13338   1.209   3.133   7.635 -0.7871 -0.8055 -0.0848
  125OSM   C11S13339   1.348   2.957   7.630 -0.0145  0.4291 -0.2736
  125OSM   H11S13340   1.432   3.005   7.577 -0.3978 -1.3957 -2.6438
  125OSM   H11T13341   1.350   2.849   7.601  0.9681  0.5423 -0.6298
  125OSM   C12S13342   1.392   2.967   7.778 -0.0957 -0.0565  0.5066
  125OSM   H12S13343   1.381   3.072   7.813  0.8789  0.4756 -0.7354
  125OSM   H12T13344   1.494   2.923   7.783 -0.2619 -0.2988  1.7238
  125OSM   C13S13345   1.298   2.886   7.870  0.1611  0.6801 -0.1325
  125OSM   H13S13346   1.296   2.780   7.838 -0.0145  0.4488  0.6283
  125OSM   H13T13347   1.193   2.922   7.872  0.2014  0.9225 -2.0115
  125OSM   C14S13348   1.356   2.892   8.018  0.4844 -0.6026 -0.7862
  125OSM   H14S13349   1.403   2.992   8.028 -0.8768  0.0946 -1.2576
  125OSM   H14T13350   1.434   2.814   8.035 -0.1008 -0.9361  0.4342
  125OSM   C15S13351   1.236   2.893   8.120 -0.0908  0.2842  0.2879
  125OSM   H15S13352   1.184   2.795   8.116  0.0424  0.2623 -1.4767
  125OSM   H15T13353   1.161   2.970   8.092 -0.7376 -0.7189 -0.7947
  125OSM   C16S13354   1.287   2.912   8.261  0.6119  0.3664 -0.4627
  125OSM   H16S13355   1.342   3.007   8.274 -0.9308  1.1572  0.3350
  125OSM   H16T13356   1.358   2.829   8.284  2.9611  1.9912 -1.6819
  125OSM   C17S13357   1.186   2.933   8.363 -0.5801 -0.0391 -1.6422
  125OSM   H17S13358   1.122   2.847   8.390  0.4998 -0.2732  0.2578
  125OSM   H17T13359   1.131   3.027   8.341 -0.6956  0.5158  0.9090
  125OSM   C18S13360   1.264   2.961   8.494 -0.3146  0.1636  0.0217
  125OSM   H18S13361   1.191   2.939   8.575  1.4436 -1.1136  1.3084
  125OSM   H18T13362   1.308   3.063   8.500 -2.1465  1.0129 -0.6791
  125OSM   H18U13363   1.351   2.892   8.507 -1.2391 -1.0475 -0.0920
  125OSM    C1F13364   0.747   3.295   6.754 -0.2268  0.3387 -0.5350
  125OSM     OF13365   0.625   3.267   6.720  0.1631  0.4206 -0.5903
  125OSM    C2F13366   0.805   3.430   6.749  0.0270  0.1393  0.0067
  125OSM    H2F13367   0.735   3.517   6.752 -0.2962 -0.1546  1.2604
  125OSM    H2G13368   0.846   3.431   6.646 -2.8656 -2.2729 -1.2628
  125OSM    C3F13369   0.921   3.451   6.847  0.5766  0.8629  0.4288
  125OSM    H3F13370   0.977   3.543   6.820  1.8992 -0.7979 -2.7803
  125OSM    H3G13371   0.999   3.373   6.835  0.7753  1.1788 -0.3712
  125OSM    C4F13372   0.877   3.456   6.995  0.4049 -0.2848  0.8033
  125OSM    H4F13373   0.846   3.352   7.018 -0.1821 -0.7334 -1.8701
  125OSM    H4G13374   0.785   3.511   7.024 -0.3600 -0.7908 -0.6191
  125OSM    C5F13375   0.981   3.488   7.099 -0.5750 -0.4175 -0.1039
  125OSM    H5F13376   1.021   3.588   7.073 -2.6567  0.0201 -1.7517
  125OSM    H5G13377   1.069   3.420   7.099  1.1533  1.7756 -0.5222
  125OSM    C6F13378   0.918   3.495   7.245  0.6949 -0.3841  0.5625
  125OSM    H6F13379   0.864   3.403   7.278  1.1402 -0.3653  1.3406
  125OSM    H6G13380   0.836   3.570   7.243  0.3757 -0.7370  0.2707
  125OSM    C7F13381   1.016   3.520   7.353 -0.2939  0.4405 -0.1919
  125OSM    H7F13382   1.074   3.605   7.311  1.3963 -0.3052  0.5548
  125OSM    H7G13383   1.087   3.434   7.355 -0.5755  0.2234  1.5175
  125OSM    C8F13384   0.953   3.558   7.479 -0.1261  0.5739  0.0483
  125OSM    H8F13385   0.890   3.477   7.521  0.4038 -0.7228 -1.6164
  125OSM    H8G13386   0.883   3.644   7.464  0.2609  0.7383 -0.8495
  125OSM    C9F13387   1.065   3.602   7.575  0.5981  1.1331  0.7292
  125OSM    H9F13388   1.138   3.669   7.527  1.5822  0.7781  1.6954
  125OSM   C10F13389   1.079   3.560   7.698  0.5451 -0.3240 -0.4241
  125OSM   H10F13390   1.163   3.604   7.753  0.4251  1.7816 -1.8642
  125OSM   C11F13391   0.988   3.472   7.771  0.0747  0.8905 -0.3375
  125OSM   H11F13392   0.954   3.389   7.705 -0.9649  1.1770 -0.1672
  125OSM   H11G13393   0.911   3.538   7.815  0.6852  0.4476  1.4517
  125OSM   C12F13394   1.074   3.409   7.885  0.2065 -0.2008  0.0785
  125OSM   H12F13395   1.087   3.490   7.960  0.3848  0.6104 -0.8334
  125OSM   H12G13396   1.166   3.367   7.840  0.7852 -0.5077  1.5265
  125OSM   C13F13397   1.001   3.291   7.955 -0.2075 -0.0426 -0.2386
  125OSM   H13F13398   0.996   3.196   7.898 -1.0155 -1.0820  1.5466
  125OSM   H13G13399   0.899   3.328   7.979  0.0763  1.4357 -1.1893
  125OSM   C14F13400   1.053   3.264   8.097 -0.0583 -0.8640  0.6113
  125OSM   H14F13401   1.163   3.250   8.092  0.0237  0.5632 -2.8326
  125OSM   H14G13402   1.020   3.169   8.147  0.2039 -1.3829 -0.1985
  125OSM   C15F13403   1.038   3.383   8.199 -0.8272  0.2347 -0.0377
  125OSM   H15F13404   0.937   3.429   8.195 -0.3823  1.3155  0.8459
  125OSM   H15G13405   1.119   3.455   8.178  0.4561 -0.8868  0.9772
  125OSM   C16F13406   1.052   3.328   8.346  0.4102  0.1904 -0.2639
  125OSM   H16F13407   1.148   3.273   8.359 -0.3300 -1.1051 -0.2323
  125OSM   H16G13408   0.962   3.265   8.363  1.5955 -1.3809  0.3123
  125OSM   C17F13409   1.041   3.448   8.443 -0.2900 -0.3982 -0.1053
  125OSM   H17F13410   0.954   3.510   8.412  0.4763  0.6283 -0.2251
  125OSM   H17G13411   1.129   3.514   8.437 -0.9810  0.4693 -0.7583
  125OSM   C18F13412   1.032   3.396   8.589 -0.5984 -0.3217 -0.1789
  125OSM   H18F13413   1.122   3.349   8.634 -2.0689 -2.5574  0.4768
  125OSM   H18G13414   0.958   3.314   8.599 -0.6344 -0.3985 -1.0514
  125OSM   H18H13415   0.994   3.483   8.648 -1.4509 -0.3999 -0.5994
  126OSM      N13416   5.518   3.182   6.099 -0.8715  0.4677 -0.2158
  126OSM    C1513417   5.415   3.084   6.064 -0.1566 -0.1534  0.5809
  126OSM   H15A13418   5.453   2.987   6.037 -2.6501 -1.5152  1.8235
  126OSM   H15B13419   5.347   3.109   5.983 -2.3569 -0.8442  2.1560
  126OSM   H15C13420   5.348   3.072   6.148 -0.7523 -0.4838  0.0696
  126OSM    C1413421   5.620   3.187   5.988  0.2893 -0.3455 -0.6335
  126OSM   H14A13422   5.672   3.093   5.986  0.9842 -0.0243  1.4446
  126OSM   H14B13423   5.690   3.269   5.993 -0.4243  0.4397 -2.6883
  126OSM   H14C13424   5.572   3.210   5.894  1.2411  3.8937 -0.2205
  126OSM    C1313425   5.464   3.320   6.105 -0.4055 -0.1502  0.7338
  126OSM   H13A13426   5.535   3.389   6.148 -0.0957  0.6109 -0.9517
  126OSM   H13B13427   5.376   3.308   6.167 -2.1160 -2.4168 -2.0387
  126OSM   H13C13428   5.441   3.365   6.010  0.6548 -0.1761  0.4631
  126OSM    C1213429   5.590   3.154   6.225  0.1751  0.6181 -0.0109
  126OSM   H12A13430   5.690   3.194   6.216  0.5896 -0.4818 -0.3276
  126OSM   H12B13431   5.615   3.049   6.230 -0.3598  0.4619 -0.4810
  126OSM    C1113432   5.513   3.190   6.356  0.0577  0.0170  0.1350
  126OSM   H11A13433   5.523   3.300   6.371  1.8053 -0.1435  0.2462
  126OSM   H11B13434   5.578   3.162   6.442  0.8716  2.8865  0.5108
  126OSM      P13435   5.342   3.007   6.443  0.2557 -0.1695  0.0630
  126OSM    O1313436   5.195   2.998   6.446 -0.1219 -0.3823 -0.3353
  126OSM    O1413437   5.413   2.892   6.388 -0.5412  0.2120 -0.8881
  126OSM    O1113438   5.389   3.030   6.587 -0.1489 -0.0322 -0.3608
  126OSM    O1213439   5.381   3.148   6.369 -0.5169 -0.3299 -0.3652
  126OSM    C1S13440   5.373   3.160   6.655 -0.4423  0.3098  0.6965
  126OSM    H1S13441   5.276   3.203   6.625  0.3018  1.6488  0.1945
  126OSM    H1T13442   5.453   3.235   6.642 -0.0739  0.0761  1.5744
  126OSM     NF13443   5.296   3.221   6.887 -0.0462  0.4553  0.2034
  126OSM    HNF13444   5.360   3.280   6.936  1.7464 -0.6552 -0.7540
  126OSM    C2S13445   5.358   3.122   6.810  0.7376 -0.3308 -0.0641
  126OSM    H2S13446   5.286   3.037   6.817 -0.7060  1.0130  1.8318
  126OSM    C3S13447   5.499   3.082   6.859  0.3314 -0.0916 -0.0624
  126OSM    H3S13448   5.552   3.180   6.855 -1.1772  0.7342 -0.3078
  126OSM     O313449   5.572   2.987   6.774  0.0326  0.4174  0.1721
  126OSM    HO313450   5.507   2.975   6.704 -1.0075  1.0119  1.0156
  126OSM    C4S13451   5.495   3.037   6.999  0.2712  0.5637 -0.5553
  126OSM    H4S13452   5.528   3.122   7.060  1.6324 -1.5605  1.7465
  126OSM    C5S13453   5.468   2.912   7.046 -0.4390 -0.7749  0.6074
  126OSM    H5S13454   5.443   2.826   6.983 -4.3178  2.4130 -2.4262
  126OSM    C6S13455   5.483   2.891   7.196  0.4464 -0.6555  0.1725
  126OSM    H6S13456   5.388   2.863   7.246 -0.1804 -0.4838 -0.9080
  126OSM    H6T13457   5.541   2.967   7.254 -0.6738  0.1398  0.2656
  126OSM    C7S13458   5.581   2.772   7.210 -0.6471 -0.4161 -0.1656
  126OSM    H7S13459   5.678   2.806   7.168  0.1368 -1.9335  0.3819
  126OSM    H7T13460   5.555   2.690   7.141  2.4082 -1.9561  0.4220
  126OSM    C8S13461   5.611   2.711   7.349 -0.3453  0.3815 -0.2182
  126OSM    H8S13462   5.664   2.616   7.322 -1.9452 -0.5976  0.0298
  126OSM    H8T13463   5.511   2.700   7.396 -1.3301  0.1381 -2.3004
  126OSM    C9S13464   5.723   2.783   7.432  0.0070 -0.0909 -0.0586
  126OSM    H9S13465   5.686   2.886   7.451 -2.0548 -0.6322 -0.9280
  126OSM    H9T13466   5.817   2.788   7.373 -0.2234  0.8603 -0.3545
  126OSM   C10S13467   5.743   2.714   7.569 -0.2628  0.3419 -0.0010
  126OSM   H10S13468   5.791   2.615   7.552 -0.9980 -0.1483  0.7552
  126OSM   H10T13469   5.642   2.685   7.604 -0.0765 -0.3574 -0.0212
  126OSM   C11S13470   5.810   2.794   7.680  0.3049  0.4622 -0.2294
  126OSM   H11S13471   5.766   2.895   7.695  1.9637  1.1490  0.1620
  126OSM   H11T13472   5.917   2.799   7.652  0.4959  0.8798  0.5461
  126OSM   C12S13473   5.808   2.711   7.807  0.4933 -0.2134  0.1783
  126OSM   H12S13474   5.886   2.753   7.874  0.6668 -0.5797  0.2078
  126OSM   H12T13475   5.843   2.606   7.792 -1.5742 -0.5972 -2.1218
  126OSM   C13S13476   5.674   2.706   7.880 -0.8010  0.1451  0.0352
  126OSM   H13S13477   5.599   2.644   7.828 -1.8005  2.6614 -1.6321
  126OSM   H13T13478   5.644   2.813   7.880 -0.0577  0.3567 -0.7921
  126OSM   C14S13479   5.700   2.676   8.031 -0.2829  0.3812  0.8040
  126OSM   H14S13480   5.754   2.759   8.082 -2.2998  2.0260  0.3661
  126OSM   H14T13481   5.768   2.589   8.034  0.2229  0.6997 -1.1653
  126OSM   C15S13482   5.574   2.651   8.107 -0.4861 -0.2760 -0.1817
  126OSM   H15S13483   5.513   2.577   8.050 -1.5945  1.2807 -1.0349
  126OSM   H15T13484   5.507   2.739   8.096 -1.5172 -1.0845 -0.4737
  126OSM   C16S13485   5.579   2.605   8.250  0.2762 -0.0271  0.0947
  126OSM   H16S13486   5.620   2.690   8.309  0.2328  1.1526 -1.5354
  126OSM   H16T13487   5.643   2.515   8.263  0.6856  0.2366 -0.0813
  126OSM   C17S13488   5.436   2.581   8.308 -0.7294 -0.4217  0.3820
  126OSM   H17S13489   5.383   2.528   8.226  0.1414 -1.1509  0.2900
  126OSM   H17T13490   5.384   2.680   8.313  1.6155  1.0471 -2.5537
  126OSM   C18S13491   5.414   2.498   8.425  0.1766  0.3839 -0.0076
  126OSM   H18S13492   5.438   2.390   8.410  1.1530  0.2693  2.2073
  126OSM   H18T13493   5.312   2.516   8.466 -0.4880 -1.0735 -0.9663
  126OSM   H18U13494   5.487   2.539   8.498  0.4593  3.4704 -1.9458
  126OSM    C1F13495   5.166   3.249   6.875  0.1158 -0.5712 -0.4278
  126OSM     OF13496   5.096   3.190   6.803 -0.5517  0.0159 -0.0053
  126OSM    C2F13497   5.116   3.362   6.969  0.0279  0.5379  0.0907
  126OSM    H2F13498   5.204   3.429   6.976  0.9178 -0.8270  2.6897
  126OSM    H2G13499   5.107   3.318   7.071 -0.6271 -0.7826 -0.5112
  126OSM    C3F13500   4.996   3.449   6.920 -0.0906 -0.2769 -0.0638
  126OSM    H3F13501   4.904   3.387   6.912  0.3264 -0.8334 -0.6372
  126OSM    H3G13502   5.019   3.507   6.828  2.0055 -1.2409 -0.1806
  126OSM    C4F13503   4.956   3.548   7.035  0.1992 -0.3019  0.1007
  126OSM    H4F13504   4.884   3.614   6.981  1.9258  0.7257 -0.9729
  126OSM    H4G13505   5.039   3.607   7.079  0.8319  0.4935 -2.0939
  126OSM    C5F13506   4.881   3.474   7.148 -0.3711 -0.5637  0.9610
  126OSM    H5F13507   4.915   3.369   7.155  0.2717 -0.3807  0.5558
  126OSM    H5G13508   4.771   3.473   7.126 -0.2957  0.8661  0.4391
  126OSM    C6F13509   4.896   3.537   7.287  0.0768 -0.3162  0.2058
  126OSM    H6F13510   4.838   3.632   7.282  1.4169  0.5239  0.4411
  126OSM    H6G13511   5.005   3.559   7.290 -0.2933  1.5488  0.8759
  126OSM    C7F13512   4.839   3.450   7.406  0.6235  0.1651  0.1404
  126OSM    H7F13513   4.891   3.352   7.409  0.3702  0.0603  1.0671
  126OSM    H7G13514   4.733   3.430   7.379  0.3254  1.7870  0.0509
  126OSM    C8F13515   4.849   3.515   7.545  0.2007  0.3508  0.1608
  126OSM    H8F13516   4.790   3.453   7.617 -0.3622  1.2765  0.5099
  126OSM    H8G13517   4.796   3.612   7.539  0.0023  0.2738  0.6490
  126OSM    C9F13518   4.985   3.529   7.604  0.0685  0.1832 -0.4851
  126OSM    H9F13519   5.047   3.609   7.560  0.8157  0.2365  0.6393
  126OSM   C10F13520   5.031   3.460   7.715 -0.6351  0.1356  0.5487
  126OSM   H10F13521   5.132   3.487   7.749 -0.6448  0.4357  0.3404
  126OSM   C11F13522   4.955   3.365   7.799  0.5376 -0.1749 -0.0352
  126OSM   H11F13523   5.033   3.313   7.858  0.2696 -0.0720  0.4156
  126OSM   H11G13524   4.893   3.295   7.740  1.6695 -0.0565 -1.3999
  126OSM   C12F13525   4.859   3.439   7.902  0.0363 -0.3135 -0.0169
  126OSM   H12F13526   4.787   3.364   7.942 -0.3854 -0.0838 -0.3410
  126OSM   H12G13527   4.786   3.508   7.855  0.8408  0.0268 -0.7786
  126OSM   C13F13528   4.932   3.510   8.015  0.2785  0.7081 -0.1932
  126OSM   H13F13529   4.996   3.587   7.967 -0.0078  0.2951 -1.2517
  126OSM   H13G13530   4.996   3.446   8.079  0.1038  1.6052  0.8894
  126OSM   C14F13531   4.845   3.590   8.107  0.0968 -0.1930  0.0219
  126OSM   H14F13532   4.795   3.668   8.046 -0.1984  0.3271  0.9215
  126OSM   H14G13533   4.907   3.653   8.174 -1.2125  0.3507  0.7292
  126OSM   C15F13534   4.746   3.511   8.193  0.0794 -0.6783  1.4788
  126OSM   H15F13535   4.710   3.427   8.129 -1.7771  1.0837  0.1211
  126OSM   H15G13536   4.667   3.582   8.223  0.1724  0.2189 -0.3318
  126OSM   C16F13537   4.822   3.449   8.309  0.7283  0.2179  0.4796
  126OSM   H16F13538   4.862   3.525   8.379 -1.8568 -0.1913  2.5144
  126OSM   H16G13539   4.910   3.388   8.280 -0.9813 -1.6709 -0.8727
  126OSM   C17F13540   4.737   3.363   8.398  0.2602 -1.0214 -0.6321
  126OSM   H17F13541   4.691   3.286   8.332  0.0356 -0.7197 -0.8248
  126OSM   H17G13542   4.664   3.431   8.448  2.7218  1.2510 -0.0187
  126OSM   C18F13543   4.812   3.301   8.518 -0.0762  0.3249 -0.4681
  126OSM   H18F13544   4.871   3.377   8.574  0.0711 -1.3844  1.7555
  126OSM   H18G13545   4.882   3.227   8.474 -0.4137 -0.5148  0.4155
  126OSM   H18H13546   4.754   3.242   8.591  1.9817 -0.5460  0.4938
  127OSM      N13547   5.791   1.670   6.279  0.4041  0.7197  0.1728
  127OSM    C1513548   5.926   1.656   6.214  0.2920 -0.9250  0.0946
  127OSM   H15A13549   5.977   1.568   6.251 -1.5021 -2.4541 -1.0312
  127OSM   H15B13550   5.984   1.743   6.245 -0.5575 -0.1437 -0.4917
  127OSM   H15C13551   5.921   1.663   6.107  0.0111 -0.3975  0.1406
  127OSM    C1413552   5.816   1.699   6.423  0.7567 -0.0475 -0.0299
  127OSM   H14A13553   5.720   1.690   6.472 -0.3047  0.8409 -1.8983
  127OSM   H14B13554   5.864   1.795   6.437  0.8048 -0.2374  1.1527
  127OSM   H14C13555   5.878   1.622   6.467 -0.4485  0.2542  2.2729
  127OSM    C1313556   5.704   1.773   6.212 -0.2884  0.2989  0.3926
  127OSM   H13A13557   5.611   1.774   6.267 -0.3265 -2.0901  0.4008
  127OSM   H13B13558   5.676   1.749   6.111  1.3550  0.5839 -0.1498
  127OSM   H13C13559   5.754   1.869   6.216  1.0465 -0.3946  0.4852
  127OSM    C1213560   5.727   1.533   6.277  0.0884  0.2955 -0.8555
  127OSM   H12A13561   5.740   1.493   6.178  2.6646 -0.3143 -0.3201
  127OSM   H12B13562   5.622   1.540   6.303  0.2606  0.8718 -0.2851
  127OSM    C1113563   5.781   1.421   6.370 -0.2914 -0.2889  1.2148
  127OSM   H11A13564   5.720   1.332   6.343 -0.0717 -0.3822  1.0260
  127OSM   H11B13565   5.762   1.448   6.476  0.6488 -0.5009  1.4401
  127OSM      P13566   5.986   1.287   6.299  0.3912 -0.3561  0.2942
  127OSM    O1313567   5.930   1.266   6.163  0.2615 -0.1188  0.3019
  127OSM    O1413568   6.132   1.306   6.301  0.5661  0.2123 -0.0288
  127OSM    O1113569   5.944   1.159   6.382  0.3401  0.3708 -0.6832
  127OSM    O1213570   5.918   1.408   6.359  0.1369 -0.3826 -0.1177
  127OSM    C1S13571   5.987   1.142   6.513 -0.0698 -0.6168 -0.1927
  127OSM    H1S13572   5.979   1.234   6.575 -1.1843 -0.3897 -0.6542
  127OSM    H1T13573   6.093   1.109   6.512 -0.3725 -1.6638 -3.0934
  127OSM     NF13574   5.950   1.021   6.733  0.0096 -0.5082 -0.6472
  127OSM    HNF13575   6.010   0.943   6.749  2.4482  1.6007  0.9761
  127OSM    C2S13576   5.905   1.035   6.597  0.8518 -0.5268 -0.5973
  127OSM    H2S13577   5.798   1.065   6.593  0.6805 -1.0151  0.2639
  127OSM    C3S13578   5.902   0.896   6.521  0.3070 -0.7922  0.4719
  127OSM    H3S13579   6.007   0.859   6.512 -0.6058 -3.1103 -1.2554
  127OSM     O313580   5.865   0.914   6.380 -0.2468  0.6741 -0.0891
  127OSM    HO313581   5.899   1.004   6.374  2.7024 -0.4729 -2.0613
  127OSM    C4S13582   5.818   0.799   6.602 -0.5203  0.8122  0.7041
  127OSM    H4S13583   5.871   0.747   6.684  0.8301 -1.6748 -1.6438
  127OSM    C5S13584   5.682   0.774   6.602 -0.6202 -0.7803  0.0592
  127OSM    H5S13585   5.616   0.832   6.535  1.0355  1.1159  0.0173
  127OSM    C6S13586   5.600   0.685   6.693  0.0323 -0.8782  0.6106
  127OSM    H6S13587   5.558   0.611   6.622  1.5040 -0.1757 -1.0426
  127OSM    H6T13588   5.515   0.748   6.727  1.2257  0.9743  0.2803
  127OSM    C7S13589   5.667   0.620   6.816  0.7548  0.2261  0.0267
  127OSM    H7S13590   5.746   0.551   6.780 -0.2998  0.0554 -2.0808
  127OSM    H7T13591   5.594   0.553   6.866  0.8005 -1.2971 -1.8781
  127OSM    C8S13592   5.717   0.706   6.935  0.3756 -0.5549  0.8988
  127OSM    H8S13593   5.646   0.710   7.020 -0.3676  0.2469  0.2526
  127OSM    H8T13594   5.735   0.812   6.908  0.2601 -0.8352 -0.3315
  127OSM    C9S13595   5.841   0.634   6.984  0.1645  0.0371 -0.8268
  127OSM    H9S13596   5.916   0.622   6.902  1.3912  1.7485  0.0024
  127OSM    H9T13597   5.813   0.528   6.999  0.1904  0.1440 -0.0128
  127OSM   C10S13598   5.904   0.689   7.110  0.2209 -0.1474  0.3964
  127OSM   H10S13599   5.836   0.681   7.198 -0.9527  1.4913 -0.3474
  127OSM   H10T13600   5.931   0.796   7.094 -1.1368 -0.0920 -1.6531
  127OSM   C11S13601   6.049   0.633   7.134  0.0412 -0.3003  0.3018
  127OSM   H11S13602   6.104   0.639   7.038 -1.4702 -0.5724 -0.5876
  127OSM   H11T13603   6.044   0.526   7.164 -1.6068 -0.8209 -1.7599
  127OSM   C12S13604   6.130   0.724   7.239 -0.0944 -0.3503 -0.4629
  127OSM   H12S13605   6.111   0.828   7.206  1.1546  0.0341 -0.0066
  127OSM   H12T13606   6.240   0.718   7.224  0.2838  1.6582  1.3608
  127OSM   C13S13607   6.090   0.711   7.392 -0.2067 -0.5355  0.6564
  127OSM   H13S13608   6.127   0.610   7.420 -0.4627 -0.2392  2.1259
  127OSM   H13T13609   5.980   0.714   7.409 -0.5687 -2.7627 -1.1128
  127OSM   C14S13610   6.150   0.810   7.486 -0.0428 -0.1715 -0.4538
  127OSM   H14S13611   6.122   0.780   7.589  0.1804 -0.4270 -0.4645
  127OSM   H14T13612   6.093   0.905   7.476 -0.8914 -0.6514 -0.1938
  127OSM   C15S13613   6.297   0.840   7.473 -0.4214  0.4411  0.5124
  127OSM   H15S13614   6.317   0.910   7.557  2.4892  0.8507 -0.4730
  127OSM   H15T13615   6.316   0.900   7.381 -0.3963 -1.0052 -0.4320
  127OSM   C16S13616   6.385   0.716   7.475  0.5156 -0.0280  0.2848
  127OSM   H16S13617   6.340   0.636   7.413 -0.2988  1.4665 -1.1101
  127OSM   H16T13618   6.408   0.675   7.576  1.4130 -1.4699 -0.4807
  127OSM   C17S13619   6.522   0.751   7.430 -0.3263 -0.1621  0.4412
  127OSM   H17S13620   6.518   0.775   7.321  1.5679 -2.5673 -0.1919
  127OSM   H17T13621   6.575   0.654   7.435  2.0442  1.0191 -0.7163
  127OSM   C18S13622   6.610   0.858   7.499  0.1553  0.0664  0.2255
  127OSM   H18S13623   6.625   0.851   7.608 -2.3502 -1.7549  0.5068
  127OSM   H18T13624   6.563   0.959   7.488  0.9973  0.4284 -0.1369
  127OSM   H18U13625   6.709   0.863   7.449 -0.2494  1.6869 -0.4567
  127OSM    C1F13626   5.946   1.119   6.827  0.4022  0.3304  0.5318
  127OSM     OF13627   5.870   1.212   6.830 -0.1385 -0.0543  0.7423
  127OSM    C2F13628   6.066   1.110   6.926  0.7492 -0.0136  0.0304
  127OSM    H2F13629   6.142   1.175   6.878 -0.7590  0.8486 -1.2141
  127OSM    H2G13630   6.100   1.004   6.916  0.3180 -0.2053  0.5865
  127OSM    C3F13631   6.030   1.156   7.069 -0.5617  1.0620  1.1659
  127OSM    H3F13632   5.942   1.103   7.112  0.1904 -0.8218  0.4554
  127OSM    H3G13633   6.000   1.263   7.064 -1.1632  0.9324  1.8498
  127OSM    C4F13634   6.139   1.131   7.168  0.4127  0.0015 -0.1263
  127OSM    H4F13635   6.214   1.212   7.155 -0.7297  0.9709 -0.9294
  127OSM    H4G13636   6.181   1.029   7.161  1.8374  0.6873 -1.9377
  127OSM    C5F13637   6.093   1.156   7.315 -0.0469 -0.2943  0.0122
  127OSM    H5F13638   6.179   1.142   7.384  1.3937  1.4513 -1.3793
  127OSM    H5G13639   6.017   1.080   7.340 -0.1703  0.1913  1.1378
  127OSM    C6F13640   6.018   1.281   7.355 -0.6571  0.2718 -0.4760
  127OSM    H6F13641   5.935   1.316   7.290 -0.0140 -1.2464 -2.1267
  127OSM    H6G13642   6.089   1.366   7.351 -3.0381  2.5585  2.5195
  127OSM    C7F13643   5.966   1.272   7.499 -0.0016  0.3642 -0.0387
  127OSM    H7F13644   6.041   1.213   7.555 -0.6589 -0.8764 -0.4412
  127OSM    H7G13645   5.877   1.206   7.497  0.1929  0.0865  0.3403
  127OSM    C8F13646   5.946   1.414   7.560 -0.6096 -0.4958  0.3532
  127OSM    H8F13647   5.909   1.474   7.475 -1.5359 -2.6668 -0.8376
  127OSM    H8G13648   6.044   1.454   7.591 -1.3532  1.5837  0.1071
  127OSM    C9F13649   5.838   1.406   7.667 -0.4757 -0.0034  0.3209
  127OSM    H9F13650   5.737   1.399   7.625  0.6646  3.2730 -3.1664
  127OSM   C10F13651   5.857   1.408   7.805  0.3839  0.0152  0.2323
  127OSM   H10F13652   5.769   1.391   7.869  0.0358 -2.2102 -0.8195
  127OSM   C11F13653   5.985   1.400   7.885  0.0269  0.1223 -0.2368
  127OSM   H11F13654   6.070   1.411   7.813  0.6089  1.6615  0.6696
  127OSM   H11G13655   6.001   1.300   7.930 -0.0805  0.2834  0.1588
  127OSM   C12F13656   5.995   1.516   7.989 -0.4338 -0.2063 -0.1079
  127OSM   H12F13657   5.895   1.521   8.038 -0.8464  0.6418 -1.0167
  127OSM   H12G13658   6.008   1.609   7.930 -0.3718 -0.1890 -0.0661
  127OSM   C13F13659   6.110   1.512   8.083  0.0301  0.3558 -0.2354
  127OSM   H13F13660   6.081   1.575   8.169 -0.1256 -0.3176  0.2088
  127OSM   H13G13661   6.201   1.554   8.036 -1.5689  1.6764 -2.2765
  127OSM   C14F13662   6.142   1.373   8.139  0.2450 -0.1377 -0.3829
  127OSM   H14F13663   6.175   1.307   8.057  3.5912  1.5613 -0.4775
  127OSM   H14G13664   6.051   1.326   8.183  0.5600 -0.3433  0.0491
  127OSM   C15F13665   6.252   1.367   8.242 -0.0100 -0.9048 -0.1298
  127OSM   H15F13666   6.350   1.388   8.193 -0.3121  3.0479  0.8220
  127OSM   H15G13667   6.267   1.259   8.265  2.4122 -1.3502 -3.3547
  127OSM   C16F13668   6.236   1.443   8.376 -0.3549  0.6187 -0.2896
  127OSM   H16F13669   6.228   1.554   8.367  1.1546  0.6950 -0.8255
  127OSM   H16G13670   6.311   1.417   8.453  1.5056  1.3173 -1.8330
  127OSM   C17F13671   6.103   1.409   8.436  0.1694  0.0067  0.1213
  127OSM   H17F13672   6.093   1.299   8.451 -2.4289  0.2002 -0.0376
  127OSM   H17G13673   6.032   1.439   8.356 -0.1956 -0.6860  0.1834
  127OSM   C18F13674   6.062   1.475   8.568  0.1459 -0.6440  0.4168
  127OSM   H18F13675   5.989   1.413   8.624  0.4151 -0.1364  1.3497
  127OSM   H18G13676   6.038   1.582   8.550  1.7435 -0.2737  0.4238
  127OSM   H18H13677   6.147   1.484   8.639 -0.2445  1.9672  0.6102
  128OSM      N13678   2.254   4.602   6.145  0.3587  0.2909  0.2532
  128OSM    C1513679   2.224   4.467   6.203  0.0453  0.6179  0.1898
  128OSM   H15A13680   2.185   4.479   6.303 -0.7458  0.5903 -0.1167
  128OSM   H15B13681   2.313   4.412   6.230 -0.9915 -0.4279  1.5522
  128OSM   H15C13682   2.151   4.415   6.144  0.7138  1.6234 -1.5719
  128OSM    C1413683   2.343   4.677   6.236 -0.0076  1.3036 -0.3675
  128OSM   H14A13684   2.436   4.627   6.258 -0.5017  0.2365 -0.6691
  128OSM   H14B13685   2.296   4.703   6.330  0.0594  0.9275 -0.2301
  128OSM   H14C13686   2.369   4.772   6.192 -2.0921  3.5837  3.0360
  128OSM    C1313687   2.326   4.582   6.017 -0.6174  0.3864 -0.3494
  128OSM   H13A13688   2.311   4.660   5.944  0.7754  1.7781  0.8235
  128OSM   H13B13689   2.302   4.486   5.974  1.4591 -1.1649  1.8148
  128OSM   H13C13690   2.432   4.579   6.034 -1.0252 -2.2124  2.2654
  128OSM    C1213691   2.134   4.676   6.113  0.8279 -0.1094  0.1315
  128OSM   H12A13692   2.076   4.632   6.033 -1.3618 -0.5466  1.9222
  128OSM   H12B13693   2.173   4.770   6.075  0.2493 -0.1722 -0.6434
  128OSM    C1113694   2.035   4.698   6.230  0.7708  0.8422  0.2359
  128OSM   H11A13695   1.973   4.774   6.178 -1.2448 -2.2421 -2.0277
  128OSM   H11B13696   2.077   4.737   6.325  0.1659 -0.0825  0.8870
  128OSM      P13697   1.874   4.499   6.166  0.0935  0.1616  0.3468
  128OSM    O1313698   1.802   4.599   6.081 -0.3532  0.2921  0.1739
  128OSM    O1413699   1.946   4.394   6.096  0.2261 -0.2771  0.6147
  128OSM    O1113700   1.763   4.431   6.259 -0.2636  0.1575  0.0403
  128OSM    O1213701   1.966   4.577   6.261  0.2760 -0.1386  0.5583
  128OSM    C1S13702   1.788   4.324   6.344 -0.2503 -0.0092  0.5638
  128OSM    H1S13703   1.838   4.244   6.286 -2.0646  0.1998 -1.3569
  128OSM    H1T13704   1.691   4.291   6.387 -0.2577 -2.8525 -1.4963
  128OSM     NF13705   1.900   4.235   6.534  0.6672  0.1903  0.7672
  128OSM    HNF13706   1.831   4.194   6.592 -0.1466  0.1010 -0.2444
  128OSM    C2S13707   1.866   4.359   6.469 -0.1491  0.1851  0.1064
  128OSM    H2S13708   1.959   4.409   6.436  0.7031 -0.9074  0.8519
  128OSM    C3S13709   1.778   4.462   6.555 -0.5646  0.1775  0.1376
  128OSM    H3S13710   1.685   4.415   6.595 -0.4635 -0.0263  0.1314
  128OSM     O313711   1.728   4.570   6.476  0.4120  0.0553 -0.1249
  128OSM    HO313712   1.731   4.535   6.387  0.4030  1.1799 -0.5771
  128OSM    C4S13713   1.859   4.517   6.676  0.4401  0.3753 -0.5831
  128OSM    H4S13714   1.917   4.609   6.665  1.0383 -0.0286 -0.8225
  128OSM    C5S13715   1.849   4.449   6.794 -0.4466  0.5967  0.6378
  128OSM    H5S13716   1.793   4.354   6.801 -0.8612  0.5191 -2.7307
  128OSM    C6S13717   1.918   4.484   6.919 -0.4005  0.2666  0.0564
  128OSM    H6S13718   1.959   4.586   6.902  0.5630 -0.1754 -0.3310
  128OSM    H6T13719   2.005   4.418   6.940 -1.9990 -1.9069  0.0526
  128OSM    C7S13720   1.806   4.473   7.021  0.1641  0.6304  0.0983
  128OSM    H7S13721   1.766   4.372   7.041  2.1920  0.0760  1.5089
  128OSM    H7T13722   1.728   4.546   6.989  0.3904  0.2126 -1.4396
  128OSM    C8S13723   1.856   4.520   7.158 -0.3235 -0.0271 -0.9254
  128OSM    H8S13724   1.901   4.621   7.148  0.3879 -0.2076  0.3000
  128OSM    H8T13725   1.937   4.456   7.198 -1.1442 -0.8379 -0.5355
  128OSM    C9S13726   1.754   4.511   7.266 -0.1639 -0.3163 -0.4559
  128OSM    H9S13727   1.722   4.405   7.271  1.8977 -0.9457  0.0873
  128OSM    H9T13728   1.670   4.579   7.244 -0.7347 -1.1365 -0.8439
  128OSM   C10S13729   1.823   4.541   7.398 -0.7919 -0.7835  0.0336
  128OSM   H10S13730   1.749   4.575   7.474 -0.2189 -1.9074  1.1338
  128OSM   H10T13731   1.908   4.611   7.402 -0.7635 -0.7216 -1.4260
  128OSM   C11S13732   1.883   4.420   7.470 -0.2824  0.1095 -0.1121
  128OSM   H11S13733   1.960   4.377   7.402 -1.3021  0.3026 -1.3937
  128OSM   H11T13734   1.801   4.345   7.477 -0.0791 -0.0085  1.2209
  128OSM   C12S13735   1.941   4.443   7.610  0.2026 -0.3295 -0.1895
  128OSM   H12S13736   2.019   4.522   7.602 -2.4597  2.2781 -1.3313
  128OSM   H12T13737   1.983   4.343   7.632  1.2307  0.0227 -0.5139
  128OSM   C13S13738   1.831   4.466   7.715 -0.3560  0.3791 -0.6731
  128OSM   H13S13739   1.768   4.375   7.724  0.8623 -0.4446 -0.2697
  128OSM   H13T13740   1.760   4.546   7.686  0.8879  1.9690  0.5865
  128OSM   C14S13741   1.904   4.491   7.847 -0.0827 -0.1667  0.7821
  128OSM   H14S13742   1.835   4.504   7.934  1.1096 -0.4536  1.7861
  128OSM   H14T13743   1.963   4.584   7.852  0.2461 -0.4568  2.6971
  128OSM   C15S13744   2.016   4.382   7.884  0.2499  0.0350 -0.3025
  128OSM   H15S13745   2.100   4.379   7.810  1.9076  0.5588  1.5201
  128OSM   H15T13746   1.972   4.280   7.880  1.3462 -0.4869  0.5213
  128OSM   C16S13747   2.080   4.410   8.018  0.1421 -0.4410  0.3295
  128OSM   H16S13748   1.996   4.402   8.091 -0.4124 -1.1761 -0.3756
  128OSM   H16T13749   2.099   4.519   8.030  0.4057 -0.7126  2.7010
  128OSM   C17S13750   2.200   4.324   8.050  0.0830  0.4350 -0.2651
  128OSM   H17S13751   2.266   4.308   7.963  1.8379 -1.0420  1.2848
  128OSM   H17T13752   2.158   4.224   8.072 -0.4494  0.6685 -0.1975
  128OSM   C18S13753   2.269   4.371   8.173  0.1115  0.3775  0.6619
  128OSM   H18S13754   2.191   4.378   8.252 -1.8136 -1.8292 -0.9869
  128OSM   H18T13755   2.304   4.477   8.167 -0.9741  0.7697  1.0710
  128OSM   H18U13756   2.353   4.310   8.212 -0.9770  0.1310  2.6346
  128OSM    C1F13757   2.001   4.164   6.495  0.3612  0.1023 -0.8907
  128OSM     OF13758   2.062   4.195   6.397 -0.1714  0.4070 -0.6284
  128OSM    C2F13759   2.036   4.046   6.575  0.4138  0.5964  0.5369
  128OSM    H2F13760   2.039   3.958   6.507 -0.2667  2.0954 -1.4943
  128OSM    H2G13761   1.957   4.025   6.651 -0.5222  2.3084  0.0668
  128OSM    C3F13762   2.166   4.055   6.648  0.0383 -0.1252 -0.5065
  128OSM    H3F13763   2.165   4.156   6.695 -0.7608  0.2514 -1.3137
  128OSM    H3G13764   2.251   4.059   6.577  0.9828  0.1937  0.6351
  128OSM    C4F13765   2.190   3.942   6.754 -0.1938  0.0139  0.5693
  128OSM    H4F13766   2.220   3.861   6.685  1.2545  1.5492 -0.6556
  128OSM    H4G13767   2.103   3.908   6.813  0.3799 -1.4357  0.5948
  128OSM    C5F13768   2.293   3.986   6.855  0.6526 -0.5756 -0.4819
  128OSM    H5F13769   2.252   4.081   6.894  2.6271 -0.6229  1.8431
  128OSM    H5G13770   2.386   3.996   6.796  0.6088 -1.5413 -0.7340
  128OSM    C6F13771   2.317   3.896   6.973 -0.0265 -0.4169 -0.4299
  128OSM    H6F13772   2.343   3.801   6.922  0.9973  0.2097 -1.0959
  128OSM    H6G13773   2.220   3.882   7.025 -0.4436 -2.0172 -1.5963
  128OSM    C7F13774   2.428   3.941   7.070  0.1754  1.0266 -0.5281
  128OSM    H7F13775   2.426   4.050   7.094 -2.4807  1.4600 -2.4447
  128OSM    H7G13776   2.510   3.922   6.998 -0.6690  0.4149 -1.3284
  128OSM    C8F13777   2.426   3.858   7.198 -0.0438  0.0054  0.3534
  128OSM    H8F13778   2.388   3.757   7.173  0.6970 -1.1092  3.5077
  128OSM    H8G13779   2.357   3.908   7.270 -0.0653 -0.8392  0.9249
  128OSM    C9F13780   2.562   3.862   7.263  0.8564  0.7848  0.6864
  128OSM    H9F13781   2.650   3.821   7.212 -2.2886 -3.5685 -1.5431
  128OSM   C10F13782   2.597   3.906   7.378 -0.6303 -0.2286 -0.2581
  128OSM   H10F13783   2.706   3.922   7.379 -0.2436 -2.7093 -0.0418
  128OSM   C11F13784   2.515   3.973   7.489 -0.1884  0.3700  0.0540
  128OSM   H11F13785   2.408   3.950   7.474  0.0695 -0.5586 -0.3893
  128OSM   H11G13786   2.527   4.082   7.467 -1.2559  0.4755 -0.0215
  128OSM   C12F13787   2.549   3.940   7.631  0.8332 -0.1207  0.0298
  128OSM   H12F13788   2.657   3.955   7.648  0.8904 -1.7090  1.2283
  128OSM   H12G13789   2.544   3.829   7.640  0.7866  0.0531  2.6648
  128OSM   C13F13790   2.456   4.007   7.737  0.6495 -0.5541  0.0423
  128OSM   H13F13791   2.352   3.969   7.735  0.7916 -1.2281  2.8995
  128OSM   H13G13792   2.453   4.117   7.725  2.3188 -0.1605  2.6739
  128OSM   C14F13793   2.516   3.979   7.880 -1.2714  0.5580 -0.4242
  128OSM   H14F13794   2.612   4.029   7.907  0.0036 -2.1312  0.2734
  128OSM   H14G13795   2.525   3.868   7.885 -0.1883  0.6497 -0.0998
  128OSM   C15F13796   2.417   4.005   7.997  0.3134 -0.4930  0.0901
  128OSM   H15F13797   2.312   3.976   7.977  0.8927 -0.6723 -2.8317
  128OSM   H15G13798   2.417   4.115   8.013  1.7779 -0.4669 -0.0283
  128OSM   C16F13799   2.464   3.956   8.136 -0.5723 -0.1400  0.3288
  128OSM   H16F13800   2.567   3.998   8.138 -1.2968  1.8026 -1.2761
  128OSM   H16G13801   2.470   3.846   8.150  1.0696  0.0104  0.9125
  128OSM   C17F13802   2.390   4.007   8.257  0.1260  0.0150 -0.0023
  128OSM   H17F13803   2.311   3.930   8.272 -1.6085  1.2881 -2.3530
  128OSM   H17G13804   2.315   4.087   8.243  0.1717 -0.0398 -0.5531
  128OSM   C18F13805   2.470   4.009   8.387 -0.4636 -0.3471 -0.2080
  128OSM   H18F13806   2.401   3.998   8.473 -1.6494 -0.2762 -1.1357
  128OSM   H18G13807   2.541   4.092   8.402 -0.2092 -0.5394 -0.3337
  128OSM   H18H13808   2.534   3.918   8.381 -2.3220 -1.6588 -0.9540
  129OSM      N13809   5.607   0.973   6.090  0.3703 -0.1495  0.5681
  129OSM    C1513810   5.647   0.844   6.021  0.1653 -0.5753 -0.0142
  129OSM   H15A13811   5.669   0.870   5.918  2.0907 -0.0392  0.5206
  129OSM   H15B13812   5.562   0.779   6.005  2.1577 -2.9288 -1.4392
  129OSM   H15C13813   5.742   0.807   6.055  0.6038 -0.1147 -0.7271
  129OSM    C1413814   5.733   1.048   6.130  0.4012 -0.1236 -0.2200
  129OSM   H14A13815   5.798   0.985   6.188 -0.9922 -1.7482 -0.3921
  129OSM   H14B13816   5.712   1.137   6.188  1.5767 -0.2477  0.3950
  129OSM   H14C13817   5.795   1.087   6.050  0.1774 -0.6868 -0.6768
  129OSM    C1313818   5.509   1.051   6.014 -0.5826  0.6414 -0.0296
  129OSM   H13A13819   5.467   1.129   6.076 -2.1914  0.8177 -1.2969
  129OSM   H13B13820   5.427   0.989   5.980 -0.4601  1.0514 -1.0956
  129OSM   H13C13821   5.545   1.096   5.923 -0.7473  3.9060  1.4594
  129OSM    C1213822   5.545   0.920   6.220  0.1277 -0.3919 -0.2708
  129OSM   H12A13823   5.609   0.848   6.268  0.2805  0.7209  1.2284
  129OSM   H12B13824   5.450   0.872   6.199  0.6989 -1.5938 -0.1098
  129OSM    C1113825   5.537   1.030   6.334  0.8433  0.0429 -0.1392
  129OSM   H11A13826   5.642   1.058   6.355  1.1942 -0.4117 -1.2356
  129OSM   H11B13827   5.496   0.986   6.427 -0.7524  0.6294 -0.5438
  129OSM      P13828   5.334   1.189   6.360 -0.2948  0.4281  0.1488
  129OSM    O1313829   5.291   1.320   6.298  0.2341 -0.0485  0.4607
  129OSM    O1413830   5.240   1.073   6.345  0.1918 -0.1348 -0.5762
  129OSM    O1113831   5.375   1.220   6.507 -0.1845 -0.1150  0.0968
  129OSM    O1213832   5.467   1.144   6.300  0.1398  0.1610  1.0158
  129OSM    C1S13833   5.491   1.296   6.547 -0.0560 -0.2081  0.5868
  129OSM    H1S13834   5.468   1.404   6.536  3.3751  0.5704  0.6134
  129OSM    H1T13835   5.587   1.270   6.498 -0.3021  1.4599 -0.8125
  129OSM     NF13836   5.626   1.346   6.756  0.0978 -0.8472 -0.0352
  129OSM    HNF13837   5.706   1.294   6.785 -1.9684 -3.7063  0.7339
  129OSM    C2S13838   5.519   1.270   6.698 -0.0303  0.0513  0.9369
  129OSM    H2S13839   5.419   1.283   6.745  0.6818  2.5396  1.8621
  129OSM    C3S13840   5.549   1.118   6.718 -0.2966  0.0865  0.3698
  129OSM    H3S13841   5.632   1.089   6.649 -0.1933  0.4089  0.3558
  129OSM     O313842   5.446   1.025   6.668 -0.3022 -0.2315  0.0781
  129OSM    HO313843   5.391   1.075   6.607 -1.3706 -1.1606  0.2486
  129OSM    C4S13844   5.584   1.080   6.857 -0.3196 -0.2079 -0.0288
  129OSM    H4S13845   5.693   1.072   6.872 -0.0813  0.2821 -1.4322
  129OSM    C5S13846   5.496   1.058   6.954  0.2874  0.0705 -0.4020
  129OSM    H5S13847   5.389   1.073   6.935 -0.1917 -2.5497  0.0897
  129OSM    C6S13848   5.523   1.035   7.102 -0.2719  0.3604 -0.3137
  129OSM    H6S13849   5.485   0.939   7.145 -0.7349  0.9175  0.5419
  129OSM    H6T13850   5.448   1.092   7.160  0.2408 -2.3197  3.1497
  129OSM    C7S13851   5.671   1.067   7.149  0.5389  0.6205 -0.0453
  129OSM    H7S13852   5.674   1.174   7.120  0.5641  0.2612 -1.3735
  129OSM    H7T13853   5.746   1.008   7.092  0.7643  1.6728 -0.8474
  129OSM    C8S13854   5.699   1.059   7.301  0.6401  0.9062  0.3921
  129OSM    H8S13855   5.606   1.093   7.352  0.9376  3.7137 -0.8314
  129OSM    H8T13856   5.781   1.130   7.326  2.0497  0.1806 -1.9569
  129OSM    C9S13857   5.733   0.919   7.353 -0.0994 -0.0149  0.2338
  129OSM    H9S13858   5.814   0.881   7.286  2.0362  0.6321  2.4039
  129OSM    H9T13859   5.651   0.845   7.341 -0.4474  0.6298 -1.4517
  129OSM   C10S13860   5.795   0.907   7.497 -0.0082  0.2351 -0.4662
  129OSM   H10S13861   5.886   0.970   7.508  0.1977 -0.3212  1.0729
  129OSM   H10T13862   5.827   0.803   7.519 -1.4414 -0.2254 -0.4746
  129OSM   C11S13863   5.697   0.943   7.612 -0.1833 -0.2903  0.3074
  129OSM   H11S13864   5.619   0.865   7.622  0.7926 -1.1617  1.3120
  129OSM   H11T13865   5.645   1.033   7.573 -0.1593  0.0184  0.9933
  129OSM   C12S13866   5.759   0.967   7.747  0.0947 -0.0040  0.7094
  129OSM   H12S13867   5.835   1.048   7.746  0.5554 -0.4247 -1.2594
  129OSM   H12T13868   5.819   0.878   7.775  0.3815  0.3432  1.2103
  129OSM   C13S13869   5.652   0.979   7.855 -0.5073  0.6084 -0.2872
  129OSM   H13S13870   5.610   0.876   7.866  2.4193 -0.8226 -1.8721
  129OSM   H13T13871   5.573   1.050   7.825  0.8496  2.2329 -0.1204
  129OSM   C14S13872   5.729   1.030   7.984  0.4256  0.2352 -0.5819
  129OSM   H14S13873   5.780   1.127   7.966  2.2580 -0.2021  1.8919
  129OSM   H14T13874   5.814   0.960   8.003  0.3804  0.3308 -0.0295
  129OSM   C15S13875   5.626   1.027   8.097 -0.2558 -0.1054 -0.9672
  129OSM   H15S13876   5.615   0.926   8.141  1.3546  0.5262  0.9533
  129OSM   H15T13877   5.524   1.063   8.069 -0.8594 -1.6472 -0.8080
  129OSM   C16S13878   5.675   1.109   8.219  0.6932 -0.9059 -0.7320
  129OSM   H16S13879   5.579   1.117   8.274  1.0061 -0.1706 -0.2931
  129OSM   H16T13880   5.701   1.210   8.181 -2.7712  1.3940  2.6105
  129OSM   C17S13881   5.799   1.058   8.308 -0.5219 -0.9279  0.2284
  129OSM   H17S13882   5.884   1.050   8.238 -1.4888 -1.8876 -0.8529
  129OSM   H17T13883   5.770   0.959   8.348 -1.1043 -0.6676  0.4569
  129OSM   C18S13884   5.845   1.157   8.405 -0.1604  0.4403  0.4267
  129OSM   H18S13885   5.911   1.113   8.483 -1.8479  1.3173  2.4334
  129OSM   H18T13886   5.767   1.212   8.463 -1.2969 -0.1929 -0.4959
  129OSM   H18U13887   5.914   1.233   8.365 -1.0323  0.8121 -0.3849
  129OSM    C1F13888   5.630   1.478   6.766 -0.0559 -0.4005  0.6971
  129OSM     OF13889   5.529   1.546   6.756  0.4079 -0.2108 -0.2510
  129OSM    C2F13890   5.768   1.533   6.799 -0.3063  0.2322 -0.0384
  129OSM    H2F13891   5.764   1.643   6.787 -0.9764  0.4054  1.6783
  129OSM    H2G13892   5.849   1.485   6.740  0.0139 -0.9609  1.3495
  129OSM    C3F13893   5.796   1.509   6.951 -0.7541  0.8519 -0.5566
  129OSM    H3F13894   5.841   1.604   6.985 -3.5883  0.7958  3.5956
  129OSM    H3G13895   5.868   1.424   6.955 -0.3027  1.0365 -3.4004
  129OSM    C4F13896   5.677   1.479   7.046  0.1211 -0.3529  0.1310
  129OSM    H4F13897   5.631   1.384   7.011  1.7532 -1.5088  1.0286
  129OSM    H4G13898   5.591   1.548   7.034  0.4388  0.6284  3.0345
  129OSM    C5F13899   5.722   1.457   7.185 -0.6479  0.6829  0.5918
  129OSM    H5F13900   5.790   1.541   7.209  1.3302 -0.8599  0.5594
  129OSM    H5G13901   5.779   1.362   7.174 -0.4631  0.4834  2.9714
  129OSM    C6F13902   5.616   1.428   7.289  0.2438 -0.6856 -0.7911
  129OSM    H6F13903   5.666   1.399   7.384 -1.7360 -2.1285 -0.1791
  129OSM    H6G13904   5.540   1.350   7.273  1.0310 -1.1125 -2.7023
  129OSM    C7F13905   5.530   1.551   7.318 -0.2914  0.7041  0.6443
  129OSM    H7F13906   5.451   1.563   7.242  1.0806 -0.1496 -0.9416
  129OSM    H7G13907   5.587   1.646   7.318  1.7193 -0.4709 -1.4199
  129OSM    C8F13908   5.457   1.541   7.459  0.1708  0.0400  0.2516
  129OSM    H8F13909   5.408   1.639   7.475 -0.7714 -0.5147  0.8252
  129OSM    H8G13910   5.538   1.532   7.535  0.8322 -1.2039 -0.5778
  129OSM    C9F13911   5.344   1.443   7.471  0.1287  0.8526 -0.0698
  129OSM    H9F13912   5.280   1.460   7.383  0.6785  0.1764 -0.6089
  129OSM   C10F13913   5.311   1.352   7.563  0.1975 -0.4553 -0.2697
  129OSM   H10F13914   5.214   1.301   7.553 -0.5436  1.0447 -0.7334
  129OSM   C11F13915   5.388   1.324   7.685 -0.2783  0.7610 -0.3731
  129OSM   H11F13916   5.481   1.382   7.702 -0.1337  0.3663  0.1895
  129OSM   H11G13917   5.419   1.217   7.689 -0.5778  0.6897  0.0161
  129OSM   C12F13918   5.303   1.371   7.803 -0.2393  0.1304 -0.0804
  129OSM   H12F13919   5.195   1.346   7.794 -0.3948  0.5805  0.4834
  129OSM   H12G13920   5.306   1.482   7.812  1.4214 -0.0215  1.4351
  129OSM   C13F13921   5.346   1.328   7.938  0.2393  0.2955 -0.1899
  129OSM   H13F13922   5.445   1.370   7.963 -0.4541  0.9777  1.4819
  129OSM   H13G13923   5.360   1.218   7.931 -1.5670  0.0960 -1.3122
  129OSM   C14F13924   5.243   1.369   8.042 -0.3056 -0.4145 -0.3710
  129OSM   H14F13925   5.149   1.314   8.019 -1.3718 -0.1232  3.0947
  129OSM   H14G13926   5.228   1.478   8.033  0.4111 -0.3415 -0.7355
  129OSM   C15F13927   5.285   1.338   8.187  0.1748 -0.0411  0.2658
  129OSM   H15F13928   5.234   1.410   8.254 -1.2607 -2.0440  1.3946
  129OSM   H15G13929   5.393   1.356   8.209 -0.0404 -1.0956  2.3231
  129OSM   C16F13930   5.241   1.190   8.237 -0.3124 -0.6755  0.0254
  129OSM   H16F13931   5.297   1.124   8.167 -0.1412 -0.5366  0.0309
  129OSM   H16G13932   5.133   1.179   8.216  0.0699  1.4345 -3.4897
  129OSM   C17F13933   5.284   1.164   8.381 -0.0533 -0.3653  0.4081
  129OSM   H17F13934   5.223   1.227   8.449 -1.9706  1.0220 -2.5042
  129OSM   H17G13935   5.390   1.192   8.398  0.1036 -0.1040 -1.0116
  129OSM   C18F13936   5.276   1.017   8.408  0.3524  0.3710 -0.5169
  129OSM   H18F13937   5.335   0.985   8.496 -1.5962 -0.2552  0.5915
  129OSM   H18G13938   5.326   0.961   8.326 -1.2984 -0.1517 -1.1793
  129OSM   H18H13939   5.173   0.978   8.421  0.6131 -1.1332 -2.7264
  130OSM      N13940   2.627   2.787   6.205  0.6103  0.2983 -0.3677
  130OSM    C1513941   2.562   2.810   6.335  0.3846 -0.2295  0.0529
  130OSM   H15A13942   2.566   2.726   6.403  1.2911 -1.5349 -1.5766
  130OSM   H15B13943   2.457   2.833   6.322  0.5127  0.3873  0.0884
  130OSM   H15C13944   2.601   2.889   6.397 -0.6409  0.4612 -0.1706
  130OSM    C1413945   2.769   2.746   6.211 -0.7377 -0.2184 -0.2726
  130OSM   H14A13946   2.801   2.695   6.122 -0.2759  1.0783 -0.8685
  130OSM   H14B13947   2.773   2.676   6.293 -0.9855 -0.3403 -0.3676
  130OSM   H14C13948   2.832   2.828   6.243  1.3763 -1.1351 -1.9819
  130OSM    C1313949   2.549   2.674   6.144 -0.0127  0.7312 -0.1135
  130OSM   H13A13950   2.579   2.649   6.043 -0.3114 -2.7877  0.5962
  130OSM   H13B13951   2.441   2.682   6.147 -0.5897 -5.2296  2.4208
  130OSM   H13C13952   2.578   2.586   6.200 -0.1106  0.9626  0.2989
  130OSM    C1213953   2.618   2.902   6.108  0.1806 -0.5939  0.0208
  130OSM   H12A13954   2.513   2.915   6.086 -0.3035 -0.8997  2.0500
  130OSM   H12B13955   2.659   2.872   6.013  1.7760  0.5757  0.3293
  130OSM    C1113956   2.667   3.040   6.152  0.0679 -0.2371  0.1424
  130OSM   H11A13957   2.659   3.097   6.057  1.2029 -0.3463 -0.0251
  130OSM   H11B13958   2.774   3.042   6.183  0.5763 -0.6800 -1.5265
  130OSM      P13959   2.436   3.151   6.202 -0.3118 -0.3502 -0.0649
  130OSM    O1313960   2.427   3.287   6.150 -0.3265 -0.1312 -0.3043
  130OSM    O1413961   2.362   3.046   6.139  0.3993  0.6051  0.0190
  130OSM    O1113962   2.379   3.149   6.346  0.8329 -0.2195 -0.0006
  130OSM    O1213963   2.584   3.106   6.248  0.2159 -0.1663  0.1334
  130OSM    C1S13964   2.377   3.272   6.423  0.6069 -0.5896 -0.3232
  130OSM    H1S13965   2.296   3.343   6.395  0.6433  0.1781  1.4072
  130OSM    H1T13966   2.478   3.318   6.422  1.3571 -2.2090 -0.5810
  130OSM     NF13967   2.320   3.366   6.644  0.4423  0.6570 -0.0344
  130OSM    HNF13968   2.402   3.419   6.665  0.3112  0.5245  0.8316
  130OSM    C2S13969   2.342   3.238   6.575  1.0245 -0.1951  0.1449
  130OSM    H2S13970   2.248   3.180   6.580 -0.3316  2.0518  1.4737
  130OSM    C3S13971   2.461   3.163   6.641 -0.1220  0.2881  0.1278
  130OSM    H3S13972   2.549   3.228   6.625  0.1008 -0.0381  0.0384
  130OSM     O313973   2.506   3.043   6.569 -0.4351 -0.0415  0.1761
  130OSM    HO313974   2.472   3.051   6.479  0.4546 -1.0408 -0.2584
  130OSM    C4S13975   2.436   3.129   6.781  0.1384  0.0808 -0.4824
  130OSM    H4S13976   2.479   3.195   6.858  0.3082 -0.1235 -0.4023
  130OSM    C5S13977   2.379   3.020   6.827  0.4649  0.1397 -0.1614
  130OSM    H5S13978   2.345   2.951   6.748  2.4821 -0.4655 -0.5478
  130OSM    C6S13979   2.358   2.991   6.974  0.2744 -0.3501  0.4619
  130OSM    H6S13980   2.419   2.902   6.999  0.8905 -0.7937 -2.4131
  130OSM    H6T13981   2.253   2.965   6.996  0.2988 -0.7580  0.1099
  130OSM    C7S13982   2.400   3.093   7.086 -0.1412  0.1701  0.5642
  130OSM    H7S13983   2.336   3.184   7.087  0.1466  0.3670  1.1881
  130OSM    H7T13984   2.505   3.118   7.062 -0.6970  2.4157  0.3655
  130OSM    C8S13985   2.377   3.025   7.227  0.7179 -0.3810  0.2683
  130OSM    H8S13986   2.433   2.930   7.230 -3.3656 -2.8833  1.2737
  130OSM    H8T13987   2.273   2.994   7.250  0.5612 -0.3760 -0.4076
  130OSM    C9S13988   2.423   3.112   7.343  0.0790 -0.7301  0.6926
  130OSM    H9S13989   2.391   3.218   7.336  1.3210 -0.4393 -0.8100
  130OSM    H9T13990   2.534   3.112   7.353 -0.0701 -0.0122  2.6193
  130OSM   C10S13991   2.355   3.060   7.476 -0.5842  0.0308  0.5164
  130OSM   H10S13992   2.401   2.962   7.504 -0.5700  0.3397  1.5844
  130OSM   H10T13993   2.248   3.042   7.454 -1.3501  2.1831  2.3626
  130OSM   C11S13994   2.371   3.156   7.595  0.2617  0.5817 -0.1968
  130OSM   H11S13995   2.310   3.248   7.600 -1.3253 -0.4297 -0.3949
  130OSM   H11T13996   2.479   3.171   7.614  0.1188  2.2515 -0.6848
  130OSM   C12S13997   2.326   3.082   7.722  0.4143 -0.3669 -0.0445
  130OSM   H12S13998   2.394   2.998   7.749 -0.7136 -1.1714  0.3203
  130OSM   H12T13999   2.225   3.036   7.715  1.1178 -1.8795 -0.4748
  130OSM   C13S14000   2.328   3.177   7.839 -0.1112 -0.2265 -0.5637
  130OSM   H13S14001   2.246   3.251   7.822 -0.3100 -0.3010  0.0708
  130OSM   H13T14002   2.426   3.228   7.830  0.9415 -1.5705  2.7605
  130OSM   C14S14003   2.307   3.118   7.977  0.1759 -0.2395  0.9763
  130OSM   H14S14004   2.392   3.052   8.005  2.0167  1.8021  0.3084
  130OSM   H14T14005   2.221   3.048   7.970  0.1499 -0.2245  1.1491
  130OSM   C15S14006   2.282   3.201   8.106 -0.0768  0.0139 -0.2654
  130OSM   H15S14007   2.217   3.289   8.088  1.2367  0.7929 -1.3263
  130OSM   H15T14008   2.383   3.234   8.139  0.9783 -3.3780  0.0513
  130OSM   C16S14009   2.226   3.119   8.215  0.4048  0.4912 -0.4005
  130OSM   H16S14010   2.289   3.029   8.230  0.3878  0.1792 -2.1140
  130OSM   H16T14011   2.129   3.082   8.175  0.2463  0.6554 -0.1685
  130OSM   C17S14012   2.197   3.185   8.347  0.1775  0.1215  0.7355
  130OSM   H17S14013   2.138   3.278   8.337  2.7209  1.5577 -1.5291
  130OSM   H17T14014   2.292   3.233   8.378  0.1626 -0.1466  1.1930
  130OSM   C18S14015   2.155   3.099   8.463 -0.0221 -0.5536  0.2012
  130OSM   H18S14016   2.056   3.051   8.447 -0.1487 -0.5095  0.8368
  130OSM   H18T14017   2.142   3.146   8.562 -2.4403  0.2891 -0.4687
  130OSM   H18U14018   2.218   3.008   8.478 -0.1212 -0.6056  0.3052
  130OSM    C1F14019   2.197   3.423   6.645  0.2143  0.0988  0.4784
  130OSM     OF14020   2.106   3.359   6.602 -0.3700  0.1268 -0.5017
  130OSM    C2F14021   2.184   3.562   6.687 -0.3007 -0.6112  0.1859
  130OSM    H2F14022   2.125   3.605   6.604  3.2619  1.2488 -1.5210
  130OSM    H2G14023   2.282   3.612   6.701 -0.2029 -0.8418  0.3190
  130OSM    C3F14024   2.092   3.566   6.814  0.5248  0.2523  0.8316
  130OSM    H3F14025   2.000   3.510   6.788 -0.2522  1.2578  1.3578
  130OSM    H3G14026   2.062   3.671   6.833  0.0615  0.1525  0.6551
  130OSM    C4F14027   2.157   3.500   6.939 -0.2666  0.0697 -0.0849
  130OSM    H4F14028   2.258   3.545   6.951 -0.3566  0.6038 -1.2172
  130OSM    H4G14029   2.168   3.389   6.939  0.5280  0.1458  0.0446
  130OSM    C5F14030   2.075   3.535   7.065 -0.3044 -0.4484 -0.3680
  130OSM    H5F14031   1.973   3.496   7.044 -1.7272  2.4556  0.8130
  130OSM    H5G14032   2.080   3.646   7.075  1.2617 -0.5634  0.2491
  130OSM    C6F14033   2.130   3.476   7.195 -0.1753  0.1617 -0.2934
  130OSM    H6F14034   2.237   3.502   7.181  0.2752 -0.2367  2.2088
  130OSM    H6G14035   2.136   3.365   7.197  0.6996  0.2020 -0.3789
  130OSM    C7F14036   2.062   3.521   7.326 -0.0270  0.3414  0.6115
  130OSM    H7F14037   1.969   3.461   7.330 -0.1813  0.6441  2.2330
  130OSM    H7G14038   2.043   3.631   7.328  1.8983  0.7557 -1.3662
  130OSM    C8F14039   2.138   3.477   7.446  0.9728  0.0448  0.5656
  130OSM    H8F14040   2.175   3.376   7.419 -0.4783 -0.1672 -0.7524
  130OSM    H8G14041   2.060   3.463   7.524  0.8014  0.6499  0.5094
  130OSM    C9F14042   2.247   3.574   7.477  0.4368  0.7225  0.2667
  130OSM    H9F14043   2.278   3.637   7.393 -0.4580  1.9804  0.8558
  130OSM   C10F14044   2.301   3.593   7.600 -0.4570 -0.1803  0.7934
  130OSM   H10F14045   2.366   3.681   7.608 -2.3282  1.1841  1.0849
  130OSM   C11F14046   2.267   3.516   7.727  0.1409  0.0490  0.0748
  130OSM   H11F14047   2.363   3.473   7.762 -0.4685 -0.5360  1.0554
  130OSM   H11G14048   2.205   3.424   7.718  0.8559 -0.4855  0.5506
  130OSM   C12F14049   2.223   3.613   7.838 -0.4978  0.4542 -0.3266
  130OSM   H12F14050   2.125   3.654   7.807 -1.6562 -0.9855  1.3404
  130OSM   H12G14051   2.301   3.692   7.840 -0.6331  0.5879 -0.3694
  130OSM   C13F14052   2.215   3.544   7.972 -0.0037  0.2027  0.1887
  130OSM   H13F14053   2.313   3.498   7.998  0.1315  0.0706 -0.5298
  130OSM   H13G14054   2.141   3.463   7.954 -0.3501  0.5616  0.0098
  130OSM   C14F14055   2.176   3.636   8.085 -0.2110 -0.3548  0.4947
  130OSM   H14F14056   2.066   3.653   8.094 -0.2779 -0.1339 -0.6688
  130OSM   H14G14057   2.219   3.736   8.063  0.5699 -0.5811  1.0075
  130OSM   C15F14058   2.218   3.582   8.221  0.1866 -0.0492 -0.3302
  130OSM   H15F14059   2.327   3.562   8.217  0.1431 -0.1212 -1.3831
  130OSM   H15G14060   2.169   3.482   8.222 -0.8130  0.4404  2.5871
  130OSM   C16F14061   2.169   3.668   8.340  0.2756 -0.2858  0.0285
  130OSM   H16F14062   2.061   3.645   8.347  0.7418 -2.4278  0.3709
  130OSM   H16G14063   2.189   3.777   8.334 -1.6648  0.0249 -1.7657
  130OSM   C17F14064   2.218   3.612   8.477  0.5125  0.1529  0.2447
  130OSM   H17F14065   2.328   3.603   8.468  0.3652 -1.3830 -0.1249
  130OSM   H17G14066   2.187   3.506   8.487  3.1802 -0.4795  2.4882
  130OSM   C18F14067   2.179   3.690   8.609 -0.5365 -0.2688  0.7135
  130OSM   H18F14068   2.239   3.652   8.694  1.5285  0.5339 -0.3479
  130OSM   H18G14069   2.070   3.681   8.632 -0.8412 -0.0759 -0.6345
  130OSM   H18H14070   2.204   3.797   8.590  2.9755 -1.3152 -0.9600
  131OSM      N14071   6.091   0.672   6.186 -0.0230 -0.0787 -0.1294
  131OSM    C1514072   6.193   0.698   6.286 -0.0662 -0.2930  0.0224
  131OSM   H15A14073   6.199   0.608   6.346  1.0755 -1.7391 -2.1864
  131OSM   H15B14074   6.175   0.779   6.355 -0.5766 -1.1614  0.9442
  131OSM   H15C14075   6.287   0.715   6.236 -1.4820 -2.0094 -3.3760
  131OSM    C1414076   5.974   0.619   6.266  0.0464 -0.8254 -0.0479
  131OSM   H14A14077   6.003   0.529   6.318 -0.1620 -2.3427 -2.4874
  131OSM   H14B14078   5.891   0.584   6.207  0.5358 -2.0252 -0.0371
  131OSM   H14C14079   5.945   0.691   6.342  1.6141  0.6976 -0.8803
  131OSM    C1314080   6.064   0.801   6.118 -0.3028  0.1237 -0.0623
  131OSM   H13A14081   5.976   0.787   6.058  0.0788  0.5299 -0.7262
  131OSM   H13B14082   6.150   0.827   6.058 -0.5833  0.8710 -0.1418
  131OSM   H13C14083   6.047   0.883   6.186 -2.3286  0.4417 -0.9168
  131OSM    C1214084   6.145   0.570   6.086  0.3289 -0.8971  0.3858
  131OSM   H12A14085   6.214   0.626   6.024  0.8160  0.9872  2.5504
  131OSM   H12B14086   6.065   0.521   6.033  2.9488 -2.2947 -2.3765
  131OSM    C1114087   6.226   0.452   6.149  0.0223 -0.5767  0.5776
  131OSM   H11A14088   6.316   0.488   6.204 -0.1541 -1.7214  1.6295
  131OSM   H11B14089   6.270   0.394   6.065  2.2554  0.1566  1.2139
  131OSM      P14090   6.060   0.271   6.155  0.1368  0.2304  0.2488
  131OSM    O1314091   6.013   0.332   6.031  0.5525 -0.2232 -0.0086
  131OSM    O1414092   6.128   0.141   6.153 -0.0369 -0.4343  0.7583
  131OSM    O1114093   5.922   0.275   6.246  0.1763  0.4414  0.3366
  131OSM    O1214094   6.146   0.375   6.239 -0.2523  0.4484 -0.5094
  131OSM    C1S14095   5.884   0.160   6.318  0.1778 -0.6222 -0.5561
  131OSM    H1S14096   5.913   0.060   6.281  0.9228 -1.6235  2.6235
  131OSM    H1T14097   5.773   0.158   6.325  0.1973  0.5428  0.2850
  131OSM     NF14098   5.912   0.028   6.519 -0.3892  0.3511  0.3074
  131OSM    HNF14099   5.833   0.015   6.579 -2.7130 -1.3525 -2.9064
  131OSM    C2S14100   5.940   0.158   6.469 -0.1122 -0.6469  0.4747
  131OSM    H2S14101   6.050   0.173   6.469 -0.2841  0.7738  2.1120
  131OSM    C3S14102   5.870   0.267   6.562 -0.2962 -0.0017  0.5855
  131OSM    H3S14103   5.764   0.235   6.554 -0.1962 -0.7685  2.2036
  131OSM     O314104   5.883   0.396   6.501 -0.0250  0.1903 -0.1783
  131OSM    HO314105   5.905   0.376   6.410 -1.1826 -1.6789 -0.0748
  131OSM    C4S14106   5.917   0.263   6.701  0.4093 -0.0737  0.0291
  131OSM    H4S14107   5.843   0.231   6.776  0.2265  0.4094  0.0565
  131OSM    C5S14108   6.037   0.309   6.754 -0.2011 -0.0003  0.1666
  131OSM    H5S14109   6.095   0.366   6.681 -1.9227  1.5923 -0.0063
  131OSM    C6S14110   6.089   0.310   6.900  0.2469 -0.3219  0.5129
  131OSM    H6S14111   6.081   0.416   6.933  0.7326 -0.3049  0.5792
  131OSM    H6T14112   6.197   0.289   6.912  0.2995 -1.3632 -1.5249
  131OSM    C7S14113   6.001   0.230   7.001 -0.2323 -0.5770 -0.2403
  131OSM    H7S14114   5.894   0.258   6.983 -0.4290 -1.8918 -1.1478
  131OSM    H7T14115   6.022   0.263   7.105  1.2434  2.7872 -1.5390
  131OSM    C8S14116   6.022   0.074   6.991  1.0933 -0.5194 -0.3560
  131OSM    H8S14117   6.127   0.046   7.015  2.0249  2.6895 -0.4451
  131OSM    H8T14118   6.018   0.045   6.884  1.8860 -0.0247 -0.5209
  131OSM    C9S14119   5.925  -0.019   7.076 -0.1543 -0.7284  0.1692
  131OSM    H9S14120   5.946  -0.128   7.077 -0.1953 -0.7320  1.1707
  131OSM    H9T14121   5.827  -0.004   7.026  1.1780  0.9287 -1.9702
  131OSM   C10S14122   5.931   0.006   7.232 -0.0780  0.2484 -0.3392
  131OSM   H10S14123   5.939   0.115   7.254 -1.0879 -0.0492  1.6488
  131OSM   H10T14124   6.027  -0.027   7.278  1.0199  0.5943 -2.3324
  131OSM   C11S14125   5.811  -0.060   7.295 -0.3222  0.7025 -0.6963
  131OSM   H11S14126   5.808  -0.168   7.272  2.3356  0.5800 -0.6401
  131OSM   H11T14127   5.718  -0.015   7.254 -1.4393 -1.4159 -0.5401
  131OSM   C12S14128   5.813  -0.036   7.448  0.5668  0.2341 -0.0814
  131OSM   H12S14129   5.829   0.070   7.477  2.3549  0.2574 -1.0741
  131OSM   H12T14130   5.897  -0.094   7.493  1.4661  1.7534  0.2659
  131OSM   C13S14131   5.686  -0.092   7.518  0.5509 -0.0939 -0.9720
  131OSM   H13S14132   5.688  -0.201   7.500 -0.9199 -0.1403 -0.8810
  131OSM   H13T14133   5.600  -0.039   7.472  0.4138 -0.1039 -0.7299
  131OSM   C14S14134   5.676  -0.070   7.673 -0.5182 -0.3723  0.1501
  131OSM   H14S14135   5.581  -0.117   7.706 -0.2115 -0.3103  1.1443
  131OSM   H14T14136   5.676   0.037   7.702  0.7508 -0.1636 -0.5640
  131OSM   C15S14137   5.805  -0.126   7.750  0.1674 -0.2285  0.1870
  131OSM   H15S14138   5.896  -0.076   7.709  0.4787  0.9079  2.2213
  131OSM   H15T14139   5.811  -0.228   7.708  1.4536  0.6675 -1.9201
  131OSM   C16S14140   5.787  -0.128   7.902  0.2199 -0.1562  0.3987
  131OSM   H16S14141   5.873  -0.181   7.949 -0.9191 -3.1252 -0.7320
  131OSM   H16T14142   5.698  -0.192   7.921  0.3696 -0.4344  0.1647
  131OSM   C17S14143   5.763   0.006   7.965  0.4574 -0.4691  0.1080
  131OSM   H17S14144   5.675   0.061   7.926  0.5621  0.0014  0.5296
  131OSM   H17T14145   5.855   0.067   7.950  0.9846 -1.1871  0.4159
  131OSM   C18S14146   5.736  -0.005   8.116  0.3355  0.0126 -0.2587
  131OSM   H18S14147   5.735   0.094   8.166 -0.8250  0.3281 -0.8801
  131OSM   H18T14148   5.810  -0.070   8.168  0.5235  0.3265 -0.1329
  131OSM   H18U14149   5.630  -0.038   8.123  0.2063  0.1359 -1.5313
  131OSM    C1F14150   5.982  -0.083   6.482 -0.6635  0.2066  0.4025
  131OSM     OF14151   6.093  -0.073   6.428 -0.1403  0.1503 -0.4526
  131OSM    C2F14152   5.929  -0.222   6.510 -0.0869  0.2080  0.2562
  131OSM    H2F14153   5.947  -0.303   6.437  1.4799  0.3155  0.5093
  131OSM    H2G14154   5.820  -0.206   6.526 -0.4575 -0.3163 -1.6319
  131OSM    C3F14155   5.986  -0.266   6.653 -0.4716  0.1779  0.5792
  131OSM    H3F14156   5.942  -0.198   6.729 -0.7986  1.7155 -0.9619
  131OSM    H3G14157   6.096  -0.251   6.645 -0.4528 -0.8623 -1.3749
  131OSM    C4F14158   5.959  -0.408   6.682  0.0376  0.7425  0.1892
  131OSM    H4F14159   6.002  -0.466   6.597  4.3070  1.2509  1.9230
  131OSM    H4G14160   5.848  -0.422   6.678 -0.1783  2.2262  0.5180
  131OSM    C5F14161   6.022  -0.470   6.808 -0.3731  0.5370  0.4236
  131OSM    H5F14162   6.133  -0.460   6.808 -0.4665  1.6442  0.2995
  131OSM    H5G14163   5.993  -0.577   6.814 -1.1986  0.7258 -0.1488
  131OSM    C6F14164   5.966  -0.415   6.939  0.8038 -0.2373  0.3658
  131OSM    H6F14165   5.855  -0.409   6.943  0.6715 -0.2669 -2.5158
  131OSM    H6G14166   6.002  -0.310   6.949 -1.5670  0.6312  0.1962
  131OSM    C7F14167   6.023  -0.496   7.055 -0.0609 -0.3260  0.6811
  131OSM    H7F14168   6.125  -0.519   7.017  0.9995  1.3975  2.3911
  131OSM    H7G14169   5.965  -0.588   7.076 -0.6233 -0.3117 -0.7488
  131OSM    C8F14170   6.038  -0.414   7.185 -0.9256  0.2541  0.6112
  131OSM    H8F14171   5.938  -0.401   7.232 -0.6663 -2.1356  1.8851
  131OSM    H8G14172   6.077  -0.312   7.164  0.1184  0.1261  1.8995
  131OSM    C9F14173   6.133  -0.487   7.279  0.3362 -0.3540  0.0199
  131OSM    H9F14174   6.232  -0.517   7.239 -0.2290  0.5577 -2.1513
  131OSM   C10F14175   6.115  -0.503   7.410  0.1027 -0.0159 -0.2524
  131OSM   H10F14176   6.181  -0.573   7.463  2.5349  2.0302 -0.4962
  131OSM   C11F14177   6.002  -0.448   7.494 -0.3147 -0.2504 -0.1418
  131OSM   H11F14178   5.923  -0.409   7.426 -0.4432  1.1775  0.8035
  131OSM   H11G14179   6.035  -0.364   7.559  1.9923 -0.3517 -1.1271
  131OSM   C12F14180   5.945  -0.569   7.574  0.1282  1.3929  0.1418
  131OSM   H12F14181   6.023  -0.625   7.629 -0.2667 -0.0217 -0.7214
  131OSM   H12G14182   5.892  -0.638   7.505  1.7475  0.9662 -0.7071
  131OSM   C13F14183   5.852  -0.524   7.684  0.1914 -0.8569  0.5591
  131OSM   H13F14184   5.759  -0.481   7.640  0.0083 -1.2424  0.5701
  131OSM   H13G14185   5.908  -0.436   7.723 -2.0794  1.1264 -0.5188
  131OSM   C14F14186   5.823  -0.621   7.798 -0.0989  0.2956  0.1772
  131OSM   H14F14187   5.928  -0.645   7.825 -0.2614  1.3632  1.8085
  131OSM   H14G14188   5.775  -0.717   7.767 -0.9310  1.1758 -1.3274
  131OSM   C15F14189   5.755  -0.554   7.918  0.0094  0.5078  0.1613
  131OSM   H15F14190   5.646  -0.546   7.899  0.0066 -0.4727 -0.2720
  131OSM   H15G14191   5.792  -0.449   7.923  2.2262 -0.3402  2.4178
  131OSM   C16F14192   5.776  -0.616   8.054  0.3698 -0.2270  0.2953
  131OSM   H16F14193   5.773  -0.726   8.067 -1.5733 -0.2252  0.0194
  131OSM   H16G14194   5.706  -0.570   8.127  0.0642 -0.4928  0.1698
  131OSM   C17F14195   5.914  -0.574   8.103 -0.3070  0.0191  0.8235
  131OSM   H17F14196   5.918  -0.464   8.119 -0.9748 -0.1355  2.1315
  131OSM   H17G14197   5.994  -0.596   8.030  1.2457 -0.3455  2.6081
  131OSM   C18F14198   5.956  -0.635   8.239  0.2928  0.9846 -0.8066
  131OSM   H18F14199   5.872  -0.623   8.311  2.5589  0.3905  2.0494
  131OSM   H18G14200   6.038  -0.569   8.277  0.9370  1.2315 -2.5620
  131OSM   H18H14201   5.982  -0.743   8.228  0.8605  0.9163  0.9484
  132OSM      N14202   1.380   0.586   6.050 -0.0542  0.2405 -0.2151
  132OSM    C1514203   1.259   0.545   5.963  0.1332  0.4979 -0.1078
  132OSM   H15A14204   1.220   0.631   5.912  0.5314  0.7862  0.0637
  132OSM   H15B14205   1.178   0.507   6.024  3.0826 -3.5486  1.5313
  132OSM   H15C14206   1.291   0.468   5.895  2.0522  1.0777  0.1049
  132OSM    C1414207   1.457   0.461   6.083  0.1337 -1.1144 -0.9575
  132OSM   H14A14208   1.550   0.481   6.134 -0.5658  1.4899 -0.6696
  132OSM   H14B14209   1.487   0.418   5.989  2.7556  0.3342 -0.8331
  132OSM   H14C14210   1.394   0.384   6.126 -1.9919  0.9725 -0.2274
  132OSM    C1314211   1.474   0.654   5.961  0.4869  0.2381  0.8768
  132OSM   H13A14212   1.502   0.581   5.885 -1.4214 -0.2039  0.5813
  132OSM   H13B14213   1.565   0.680   6.013  0.8337  0.2533  0.2737
  132OSM   H13C14214   1.436   0.745   5.918  4.0032  1.2579 -0.2404
  132OSM    C1214215   1.352   0.665   6.176  0.3637  0.0811 -0.4864
  132OSM   H12A14216   1.301   0.758   6.156 -0.2297 -0.4978 -1.6791
  132OSM   H12B14217   1.453   0.689   6.208 -0.1837  1.8126  0.0168
  132OSM    C1114218   1.273   0.582   6.285  0.1350 -0.3253  0.2783
  132OSM   H11A14219   1.293   0.638   6.379 -1.7917  0.9148 -0.0366
  132OSM   H11B14220   1.328   0.485   6.287 -1.0571 -1.1385 -2.6855
  132OSM      P14221   1.056   0.703   6.243  0.2123  0.0253  0.1535
  132OSM    O1314222   1.096   0.803   6.142 -0.5062  0.2097  0.9412
  132OSM    O1414223   0.910   0.674   6.235  0.1654 -0.4407  0.4960
  132OSM    O1114224   1.073   0.752   6.391 -0.2470 -0.5276 -0.0797
  132OSM    O1214225   1.139   0.573   6.239  0.2972  0.2257 -0.3285
  132OSM    C1S14226   1.009   0.682   6.505  0.5816  0.2324  0.1713
  132OSM    H1S14227   1.007   0.572   6.488 -0.3452  0.1114  1.0349
  132OSM    H1T14228   0.904   0.715   6.520 -0.0504 -0.4593 -2.3912
  132OSM     NF14229   1.018   0.642   6.753 -0.8874  0.5154 -0.0563
  132OSM    HNF14230   0.949   0.680   6.815 -2.3378 -0.6656 -0.9104
  132OSM    C2S14231   1.069   0.720   6.647  0.0490  0.5002  0.0582
  132OSM    H2S14232   1.178   0.701   6.636 -0.0652 -0.7875  1.0175
  132OSM    C3S14233   1.035   0.868   6.679 -0.5936  0.2734 -0.4294
  132OSM    H3S14234   0.925   0.876   6.681 -0.5269  1.6409 -1.4545
  132OSM     O314235   1.088   0.961   6.589  0.1603 -0.1408 -0.5361
  132OSM    HO314236   1.120   0.914   6.512  1.2307 -0.7540  0.2646
  132OSM    C4S14237   1.095   0.921   6.809  0.2825 -0.6044  0.3602
  132OSM    H4S14238   1.026   0.985   6.866  0.3679 -0.2484  0.0687
  132OSM    C5S14239   1.219   0.899   6.856 -0.3927  0.0431 -0.0415
  132OSM    H5S14240   1.299   0.845   6.803  1.8612  1.9837  1.2913
  132OSM    C6S14241   1.260   0.962   6.986  0.0459  0.4154 -0.3981
  132OSM    H6S14242   1.224   1.067   6.988 -2.2392 -0.3358 -0.7383
  132OSM    H6T14243   1.370   0.964   6.998  0.0664 -0.8064 -0.2929
  132OSM    C7S14244   1.210   0.885   7.116  0.1716  0.0503  0.2784
  132OSM    H7S14245   1.235   0.777   7.109  1.9653  0.4308  0.6447
  132OSM    H7T14246   1.099   0.880   7.113  0.2063 -0.2942 -1.1438
  132OSM    C8S14247   1.254   0.949   7.247 -0.3543 -0.7303  0.1013
  132OSM    H8S14248   1.227   1.057   7.249 -0.7369 -0.8107 -0.7281
  132OSM    H8T14249   1.364   0.951   7.262 -0.4134 -1.5373  0.6997
  132OSM    C9S14250   1.206   0.875   7.376  0.7179  0.0784  1.1589
  132OSM    H9S14251   1.250   0.773   7.368  0.1534 -0.0243 -1.1544
  132OSM    H9T14252   1.096   0.862   7.370  0.7390 -0.2469  1.4415
  132OSM   C10S14253   1.231   0.955   7.506  0.2805  0.7399  0.8787
  132OSM   H10S14254   1.193   1.057   7.485  2.7668  1.4232 -0.4746
  132OSM   H10T14255   1.341   0.964   7.513  0.2175  1.9721  0.3377
  132OSM   C11S14256   1.177   0.898   7.640  0.2446  0.1870  0.3315
  132OSM   H11S14257   1.228   0.808   7.681  1.2913  1.2862  1.4711
  132OSM   H11T14258   1.071   0.866   7.645  0.1320  0.6174  0.7164
  132OSM   C12S14259   1.181   1.009   7.758  0.4222 -0.8065  1.0630
  132OSM   H12S14260   1.117   1.095   7.728  2.9448 -0.0365 -2.3615
  132OSM   H12T14261   1.286   1.041   7.769 -0.0636  1.1812  0.0631
  132OSM   C13S14262   1.124   0.966   7.895  0.1314 -0.6558  0.0413
  132OSM   H13S14263   1.028   0.910   7.890 -0.7402  0.8271 -0.2922
  132OSM   H13T14264   1.098   1.059   7.951 -2.4630 -2.0179  1.1797
  132OSM   C14S14265   1.222   0.894   7.982 -0.2728  0.6623 -0.3717
  132OSM   H14S14266   1.306   0.964   8.004  2.2484 -0.9950 -4.2019
  132OSM   H14T14267   1.256   0.802   7.930 -0.6166  0.5358 -0.3778
  132OSM   C15S14268   1.164   0.855   8.117 -0.0664  0.3339 -1.0520
  132OSM   H15S14269   1.250   0.808   8.171 -0.3495 -0.4722 -1.2870
  132OSM   H15T14270   1.080   0.785   8.099 -1.3776  1.8853 -1.0517
  132OSM   C16S14271   1.118   0.958   8.215  0.0684  0.4615 -0.1843
  132OSM   H16S14272   1.016   0.990   8.183  1.0638  2.0083 -1.8983
  132OSM   H16T14273   1.187   1.044   8.215  1.7282 -0.8084 -2.1268
  132OSM   C17S14274   1.110   0.910   8.359 -0.9292  0.5351 -0.6218
  132OSM   H17S14275   1.092   0.990   8.434 -1.5624  1.4236 -1.7086
  132OSM   H17T14276   1.211   0.880   8.396 -0.2755  2.4292 -0.8279
  132OSM   C18S14277   1.020   0.787   8.378  0.0913  0.4049  0.1329
  132OSM   H18S14278   0.983   0.794   8.483  1.2030 -0.0859  0.5548
  132OSM   H18T14279   1.057   0.687   8.348 -0.1194  1.0785 -2.4191
  132OSM   H18U14280   0.927   0.804   8.319  1.7799 -0.5033 -2.8371
  132OSM    C1F14281   1.037   0.513   6.763  0.7510  0.1203  0.2004
  132OSM     OF14282   1.091   0.441   6.678 -0.1006 -0.0608  0.5255
  132OSM    C2F14283   0.993   0.456   6.892 -0.1449  0.1010 -0.2280
  132OSM    H2F14284   0.975   0.347   6.880  0.5815 -0.2691  1.9120
  132OSM    H2G14285   0.895   0.503   6.914 -0.2918 -0.7016  0.8273
  132OSM    C3F14286   1.086   0.492   7.009 -0.4494 -0.1844 -0.2991
  132OSM    H3F14287   1.087   0.602   7.025  0.7693 -0.1825 -0.3355
  132OSM    H3G14288   1.191   0.467   6.984 -0.4800  0.7319 -1.3645
  132OSM    C4F14289   1.049   0.425   7.148 -0.0833  0.0687 -0.3923
  132OSM    H4F14290   1.073   0.317   7.144  0.8738  0.3327 -2.6344
  132OSM    H4G14291   0.939   0.429   7.168 -0.0697 -1.3055 -0.0156
  132OSM    C5F14292   1.139   0.484   7.258  0.8494 -0.2780 -0.2993
  132OSM    H5F14293   1.140   0.595   7.265  0.5594 -0.4087  2.1883
  132OSM    H5G14294   1.244   0.457   7.234  0.2820 -1.4585 -1.5136
  132OSM    C6F14295   1.101   0.428   7.396  0.0841  0.4448  0.0556
  132OSM    H6F14296   1.138   0.323   7.402  0.1065  0.4996  1.0435
  132OSM    H6G14297   0.993   0.427   7.424  0.0408  0.5110 -0.1104
  132OSM    C7F14298   1.188   0.489   7.502 -0.2843  0.2392  0.0356
  132OSM    H7F14299   1.129   0.578   7.534 -2.1095 -1.2963  1.0545
  132OSM    H7G14300   1.281   0.517   7.449 -0.6104  0.9931 -0.1534
  132OSM    C8F14301   1.209   0.406   7.630  0.4839  1.2942 -0.7355
  132OSM    H8F14302   1.271   0.320   7.597  0.4119  0.8934  0.1702
  132OSM    H8G14303   1.110   0.367   7.662  3.1065 -3.9966  1.5556
  132OSM    C9F14304   1.286   0.481   7.739  0.5650 -0.2318  0.3770
  132OSM    H9F14305   1.391   0.506   7.718  0.0056  2.1943  0.3057
  132OSM   C10F14306   1.239   0.531   7.855 -0.1759 -0.2383 -0.1132
  132OSM   H10F14307   1.309   0.578   7.926 -1.1474 -0.9374  1.3247
  132OSM   C11F14308   1.091   0.520   7.896  0.7680  0.3342  0.8263
  132OSM   H11F14309   1.019   0.477   7.823  2.2795  0.3228 -0.6898
  132OSM   H11G14310   1.056   0.621   7.926 -1.1598  0.3267 -1.2646
  132OSM   C12F14311   1.092   0.421   8.012 -0.1972 -0.4542 -0.3487
  132OSM   H12F14312   1.121   0.320   7.977  2.4130  0.4082 -0.7943
  132OSM   H12G14313   0.984   0.413   8.037 -0.3458  1.8590 -0.1633
  132OSM   C13F14314   1.161   0.471   8.134 -0.0364  0.3176 -0.5108
  132OSM   H13F14315   1.132   0.575   8.159 -0.0010  0.4317 -0.9524
  132OSM   H13G14316   1.269   0.478   8.110  0.1450  1.4569  0.5937
  132OSM   C14F14317   1.143   0.383   8.259 -0.1855 -0.6316 -0.0040
  132OSM   H14F14318   1.036   0.370   8.287 -0.0502 -0.5215  0.5646
  132OSM   H14G14319   1.209   0.422   8.339 -0.5799  0.1839 -0.0652
  132OSM   C15F14320   1.193   0.241   8.231 -0.1410  0.0322  0.2926
  132OSM   H15F14321   1.150   0.199   8.137  1.7133 -0.8820 -0.1634
  132OSM   H15G14322   1.159   0.185   8.320 -2.1363  0.0979 -0.4084
  132OSM   C16F14323   1.346   0.231   8.212  0.5816 -0.2526 -0.0039
  132OSM   H16F14324   1.401   0.283   8.293 -2.0012  0.4448  1.3556
  132OSM   H16G14325   1.370   0.292   8.122  2.9183 -1.2328 -0.0649
  132OSM   C17F14326   1.397   0.092   8.186 -0.0326  0.1166  0.3988
  132OSM   H17F14327   1.504   0.103   8.157 -0.1741  0.9384  0.1776
  132OSM   H17G14328   1.344   0.060   8.093  1.3241 -2.8765  0.5929
  132OSM   C18F14329   1.370  -0.017   8.288  0.0347 -0.4951  0.0015
  132OSM   H18F14330   1.444  -0.013   8.371 -0.7115  1.7190  0.5982
  132OSM   H18G14331   1.382  -0.119   8.245  0.3033  0.5962 -2.6066
  132OSM   H18H14332   1.265  -0.001   8.321 -0.0764  0.6574 -0.9153
  133OSM      N14333   1.791   0.053   6.332 -0.5923 -0.2789 -0.0862
  133OSM    C1514334   1.924  -0.005   6.345 -0.3520 -0.2834 -0.2887
  133OSM   H15A14335   1.952  -0.066   6.260  0.7097 -1.8256  1.1493
  133OSM   H15B14336   1.932  -0.064   6.435  0.3268 -1.1860 -0.9276
  133OSM   H15C14337   2.008   0.061   6.359  0.3718 -0.4719 -3.2837
  133OSM    C1414338   1.698  -0.070   6.315 -0.8139 -0.3021 -0.5243
  133OSM   H14A14339   1.701  -0.116   6.413  2.1668  0.1276 -0.3602
  133OSM   H14B14340   1.730  -0.122   6.226  1.0846  0.3328 -0.2390
  133OSM   H14C14341   1.597  -0.034   6.312 -0.5701  0.2858 -1.9320
  133OSM    C1314342   1.747   0.127   6.464  0.4270 -0.1831 -0.1982
  133OSM   H13A14343   1.832   0.186   6.492  0.7162 -0.7057  0.0250
  133OSM   H13B14344   1.730   0.053   6.540  1.5601 -0.2702 -0.0242
  133OSM   H13C14345   1.656   0.183   6.447  0.3488  0.1974  1.4437
  133OSM    C1214346   1.783   0.147   6.211  0.4270 -0.0015  0.3563
  133OSM   H12A14347   1.793   0.078   6.129 -0.2596  0.4866 -0.1449
  133OSM   H12B14348   1.865   0.216   6.199 -0.7976  1.0254 -2.4318
  133OSM    C1114349   1.642   0.219   6.188 -0.1554 -0.5653  0.8858
  133OSM   H11A14350   1.634   0.269   6.089  0.4567  0.8124  1.5114
  133OSM   H11B14351   1.628   0.286   6.275  0.3199  0.0021  0.5306
  133OSM      P14352   1.406   0.130   6.274 -0.0332  0.1435 -0.3941
  133OSM    O1314353   1.320   0.243   6.227  0.3709 -0.0518  0.5493
  133OSM    O1414354   1.340  -0.006   6.282  0.0502 -0.0380 -0.6947
  133OSM    O1114355   1.458   0.169   6.418 -0.3404 -0.1874  0.2930
  133OSM    O1214356   1.536   0.127   6.182  0.0286  0.5121  0.3226
  133OSM    C1S14357   1.356   0.188   6.516 -0.2835  0.2681  0.6036
  133OSM    H1S14358   1.297   0.096   6.536 -1.9696  0.3365 -3.4989
  133OSM    H1T14359   1.273   0.255   6.486  0.8358  1.2276 -0.4252
  133OSM     NF14360   1.322   0.250   6.760  0.0171 -0.3698 -0.1491
  133OSM    HNF14361   1.265   0.331   6.771 -0.1350 -0.1692 -2.2293
  133OSM    C2S14362   1.415   0.261   6.650  0.1767  0.3122 -0.1456
  133OSM    H2S14363   1.512   0.211   6.673  0.1324 -0.8971 -2.4629
  133OSM    C3S14364   1.451   0.409   6.626 -0.0431  0.2304  0.0454
  133OSM    H3S14365   1.355   0.461   6.607  1.4159  2.3027 -1.9086
  133OSM     O314366   1.522   0.428   6.504 -0.2290 -0.0769  0.6688
  133OSM    HO314367   1.502   0.344   6.463 -1.4107  1.2848 -1.6337
  133OSM    C4S14368   1.531   0.470   6.734 -0.4871  0.5033 -0.0885
  133OSM    H4S14369   1.625   0.416   6.756 -1.0877  0.8251  3.6042
  133OSM    C5S14370   1.502   0.580   6.804 -0.2619  0.4459 -0.3294
  133OSM    H5S14371   1.407   0.629   6.781  0.5063  1.0573 -2.2912
  133OSM    C6S14372   1.588   0.647   6.911  0.0773  0.1120 -0.9464
  133OSM    H6S14373   1.591   0.756   6.891 -0.7717  0.4924  0.8927
  133OSM    H6T14374   1.692   0.609   6.921  0.4513  0.6737 -2.6225
  133OSM    C7S14375   1.514   0.632   7.042 -0.3093  0.2476  0.0105
  133OSM    H7S14376   1.515   0.525   7.070  1.2337  0.3032  0.2408
  133OSM    H7T14377   1.408   0.664   7.034  0.6984  3.7941 -0.3254
  133OSM    C8S14378   1.595   0.703   7.161  0.3330  0.4388  0.1785
  133OSM    H8S14379   1.568   0.810   7.152 -0.5339  0.0542 -2.2074
  133OSM    H8T14380   1.704   0.690   7.148  0.2242  0.4211 -0.7174
  133OSM    C9S14381   1.551   0.658   7.304 -0.0612  0.6740  0.2320
  133OSM    H9S14382   1.589   0.554   7.315  0.6514  0.6754 -1.9818
  133OSM    H9T14383   1.442   0.675   7.316 -0.0940  0.8225 -0.2907
  133OSM   C10S14384   1.607   0.742   7.427 -0.7681 -0.2802  0.1842
  133OSM   H10S14385   1.599   0.852   7.413  0.2769  0.2342  3.2168
  133OSM   H10T14386   1.718   0.728   7.429 -0.4530  1.6937 -1.7684
  133OSM   C11S14387   1.541   0.715   7.560  0.1399 -0.1889 -0.8892
  133OSM   H11S14388   1.554   0.607   7.579  0.8119  0.0476  0.0569
  133OSM   H11T14389   1.432   0.712   7.541 -0.0333 -2.1912  0.2776
  133OSM   C12S14390   1.594   0.802   7.676 -0.5306  0.8300 -0.3641
  133OSM   H12S14391   1.594   0.910   7.650 -0.9442  1.0343  0.4699
  133OSM   H12T14392   1.700   0.774   7.696 -1.2773 -2.9637 -1.3662
  133OSM   C13S14393   1.529   0.763   7.805  0.2896 -0.1735  0.0361
  133OSM   H13S14394   1.517   0.654   7.820 -0.0997 -0.3351 -1.3724
  133OSM   H13T14395   1.424   0.798   7.805  1.4835  3.8009 -1.7492
  133OSM   C14S14396   1.602   0.826   7.926  0.1703  0.6560  0.2574
  133OSM   H14S14397   1.584   0.936   7.926  2.5913  1.1085 -1.6425
  133OSM   H14T14398   1.712   0.828   7.911  0.2856  1.3939  1.1517
  133OSM   C15S14399   1.568   0.760   8.059 -0.1753 -0.1108  0.1455
  133OSM   H15S14400   1.457   0.758   8.066 -0.1498 -2.7936  0.4035
  133OSM   H15T14401   1.600   0.817   8.149 -2.0769 -0.8991  1.3806
  133OSM   C16S14402   1.629   0.620   8.077  0.2427  0.4415  0.0432
  133OSM   H16S14403   1.725   0.614   8.021 -0.5712 -0.3444 -1.2781
  133OSM   H16T14404   1.559   0.552   8.024  2.1807  0.1525 -2.2295
  133OSM   C17S14405   1.653   0.594   8.222  0.4153  0.1675  0.0573
  133OSM   H17S14406   1.726   0.665   8.267 -1.4380  1.4727  1.0372
  133OSM   H17T14407   1.689   0.492   8.247 -2.8245 -0.6355  1.7524
  133OSM   C18S14408   1.521   0.617   8.304  0.1150  0.1548 -0.1285
  133OSM   H18S14409   1.539   0.597   8.412  2.8560  0.7675 -0.4504
  133OSM   H18T14410   1.445   0.542   8.272  0.5672  0.1831 -1.2875
  133OSM   H18U14411   1.484   0.720   8.286 -0.2413 -0.0189 -0.3898
  133OSM    C1F14412   1.290   0.136   6.819 -0.3156  0.4133 -0.0797
  133OSM     OF14413   1.347   0.033   6.787 -0.3158  0.3333 -0.0102
  133OSM    C2F14414   1.174   0.138   6.920  0.1133 -0.2795  0.4283
  133OSM    H2F14415   1.081   0.163   6.864  0.2387 -0.3781  0.1728
  133OSM    H2G14416   1.189   0.210   7.003  2.6842 -1.7244  1.2581
  133OSM    C3F14417   1.164  -0.001   6.985  0.4938  0.2955 -0.0352
  133OSM    H3F14418   1.258  -0.037   7.032 -0.4606 -0.9127  0.9621
  133OSM    H3G14419   1.118  -0.076   6.918  1.1259 -1.3259  1.3279
  133OSM    C4F14420   1.062   0.001   7.100 -0.0885  0.1936 -1.2726
  133OSM    H4F14421   0.995  -0.084   7.079  0.0885  0.0910 -1.4132
  133OSM    H4G14422   1.004   0.096   7.094 -1.6167 -0.6790 -0.6903
  133OSM    C5F14423   1.127  -0.011   7.232  0.2879  0.4446  0.0647
  133OSM    H5F14424   1.192   0.078   7.240  0.4657  0.3926 -0.7225
  133OSM    H5G14425   1.191  -0.102   7.241  1.6398  0.9022 -3.9810
  133OSM    C6F14426   1.024  -0.010   7.345 -0.9059  0.4047  0.7488
  133OSM    H6F14427   0.954  -0.094   7.325  0.6636 -0.9118  0.6727
  133OSM    H6G14428   0.956   0.076   7.330  0.0939  1.1040  0.1654
  133OSM    C7F14429   1.088  -0.024   7.485  0.2070  0.1080 -0.2078
  133OSM    H7F14430   1.198  -0.033   7.480  0.2338 -0.1480  0.7299
  133OSM    H7G14431   1.065  -0.130   7.510 -0.4105  0.1626 -0.5204
  133OSM    C8F14432   1.029   0.064   7.591 -0.0984  0.5814  0.6780
  133OSM    H8F14433   0.923   0.045   7.620 -0.0639  0.9303  1.0392
  133OSM    H8G14434   1.036   0.163   7.542  0.9564  0.3533  0.3619
  133OSM    C9F14435   1.113   0.066   7.711  0.2022 -0.0211  0.8121
  133OSM    H9F14436   1.197   0.137   7.715 -0.5410  0.7760  2.5757
  133OSM   C10F14437   1.093  -0.013   7.818  0.4777 -0.2968 -0.4464
  133OSM   H10F14438   1.156  -0.011   7.909 -0.8887  1.9724  0.4958
  133OSM   C11F14439   0.989  -0.126   7.830 -0.1643  0.2033  0.2455
  133OSM   H11F14440   0.975  -0.182   7.735  0.9621  3.2637 -1.7880
  133OSM   H11G14441   0.894  -0.091   7.876 -0.3466 -0.1969  0.1799
  133OSM   C12F14442   1.036  -0.240   7.932 -0.5435 -0.1575 -0.1068
  133OSM   H12F14443   0.945  -0.287   7.975 -1.9060  1.9102 -0.6756
  133OSM   H12G14444   1.080  -0.188   8.020  1.2505 -0.6525 -0.6941
  133OSM   C13F14445   1.125  -0.348   7.865 -0.1447  0.0215 -0.6193
  133OSM   H13F14446   1.192  -0.289   7.798 -0.9613  1.8308  0.1171
  133OSM   H13G14447   1.065  -0.416   7.801 -0.2371 -0.9552  0.4767
  133OSM   C14F14448   1.195  -0.430   7.969  0.5830  0.9018  0.2810
  133OSM   H14F14449   1.139  -0.484   8.048  1.9388  1.5736  1.7245
  133OSM   H14G14450   1.262  -0.360   8.024  1.7166 -0.6918  0.9670
  133OSM   C15F14451   1.284  -0.538   7.907  0.0178  0.1892  0.7971
  133OSM   H15F14452   1.367  -0.504   7.841  1.7264  1.1773  3.3594
  133OSM   H15G14453   1.213  -0.606   7.856  0.7369 -1.5225  2.0421
  133OSM   C16F14454   1.338  -0.625   8.020  0.0153 -0.3740 -0.4674
  133OSM   H16F14455   1.253  -0.680   8.065  0.6088 -0.8957  0.0062
  133OSM   H16G14456   1.382  -0.572   8.107 -0.8396  3.0197 -1.9933
  133OSM   C17F14457   1.435  -0.728   7.974 -0.0413  0.5972  0.3694
  133OSM   H17F14458   1.534  -0.681   7.952 -0.0189  0.0184 -0.8155
  133OSM   H17G14459   1.402  -0.775   7.879  2.8319 -1.2690  0.2276
  133OSM   C18F14460   1.446  -0.837   8.086  0.1769  1.2077 -0.5709
  133OSM   H18F14461   1.355  -0.831   8.149 -0.1997 -1.1928 -0.8593
  133OSM   H18G14462   1.528  -0.803   8.153 -0.0496  1.5140 -0.4463
  133OSM   H18H14463   1.454  -0.935   8.035  0.1104  1.2113 -0.5901
  134OSM      N14464   3.280   4.183   6.508  0.1950 -0.2885 -0.4299
  134OSM    C1514465   3.395   4.267   6.501 -0.1826  0.4317 -0.5575
  134OSM   H15A14466   3.406   4.321   6.593 -1.2474  0.9293 -0.7048
  134OSM   H15B14467   3.392   4.346   6.427  0.0289 -0.2702 -1.3204
  134OSM   H15C14468   3.488   4.217   6.481 -0.6183 -0.5454 -0.1517
  134OSM    C1414469   3.154   4.272   6.555 -0.1145  0.2186  0.0575
  134OSM   H14A14470   3.165   4.305   6.657  1.5117  0.9143 -0.3325
  134OSM   H14B14471   3.064   4.213   6.548  0.3562 -0.4955  0.0009
  134OSM   H14C14472   3.140   4.355   6.487 -2.5329 -1.3130 -1.3834
  134OSM    C1314473   3.244   4.134   6.374 -0.6699 -0.2472 -0.2840
  134OSM   H13A14474   3.237   4.215   6.304  3.8771  1.5961  1.2333
  134OSM   H13B14475   3.151   4.078   6.376 -1.0853  0.2652 -3.1337
  134OSM   H13C14476   3.323   4.064   6.348 -0.5887 -0.3646  0.2706
  134OSM    C1214477   3.305   4.070   6.615  0.9111 -0.0411 -1.0404
  134OSM   H12A14478   3.354   4.120   6.696 -1.4766  0.5635  0.0681
  134OSM   H12B14479   3.371   3.998   6.569  1.2778 -0.8702  0.7393
  134OSM    C1114480   3.192   3.975   6.670  0.4691 -0.4742  0.4800
  134OSM   H11A14481   3.117   4.042   6.717 -0.5469 -1.5778  0.4424
  134OSM   H11B14482   3.243   3.909   6.743 -0.0154 -1.0051  0.3368
  134OSM      P14483   3.186   3.780   6.499  0.1791  0.4108  0.0593
  134OSM    O1314484   3.145   3.785   6.357 -0.6819 -0.4151 -0.7971
  134OSM    O1414485   3.327   3.762   6.527  0.2541 -0.1428 -0.3623
  134OSM    O1114486   3.098   3.664   6.567 -0.1113 -0.2857  0.5498
  134OSM    O1214487   3.129   3.912   6.563 -0.1968 -0.4155 -0.6554
  134OSM    C1S14488   3.105   3.656   6.712  0.2619 -0.7542 -0.1506
  134OSM    H1S14489   3.034   3.728   6.758 -0.5225 -0.8424 -1.2053
  134OSM    H1T14490   3.209   3.676   6.744 -0.2167  1.0575  0.3032
  134OSM     NF14491   3.124   3.507   6.905  0.0433  0.6082  0.3624
  134OSM    HNF14492   3.211   3.460   6.922 -0.5260  0.2809  2.4423
  134OSM    C2S14493   3.077   3.512   6.765  0.8232 -0.3085 -0.0656
  134OSM    H2S14494   2.967   3.500   6.764  0.5450  2.1026 -1.6381
  134OSM    C3S14495   3.143   3.403   6.670 -0.0619 -0.9982  0.4468
  134OSM    H3S14496   3.251   3.430   6.675 -0.2484  0.0572 -0.7790
  134OSM     O314497   3.090   3.403   6.542 -0.3239  0.2725  0.1454
  134OSM    HO314498   3.053   3.491   6.535 -1.0803 -0.0701 -0.1475
  134OSM    C4S14499   3.110   3.270   6.731 -0.4362 -0.1045  0.6796
  134OSM    H4S14500   3.016   3.225   6.695  0.4968 -1.2927 -0.3158
  134OSM    C5S14501   3.193   3.190   6.796  0.3773 -0.8106 -0.0911
  134OSM    H5S14502   3.298   3.223   6.797  0.0186  0.3709 -0.0325
  134OSM    C6S14503   3.162   3.052   6.839  0.3852 -0.1803  0.3420
  134OSM    H6S14504   3.220   2.980   6.778  0.3099  0.7457 -0.8365
  134OSM    H6T14505   3.056   3.032   6.814  1.5573 -2.5622 -3.0676
  134OSM    C7S14506   3.213   3.025   6.979  0.7573 -0.0195 -0.0107
  134OSM    H7S14507   3.316   3.067   6.977  1.5416 -1.9392 -2.0375
  134OSM    H7T14508   3.217   2.919   7.010 -1.9773  0.5280  2.4788
  134OSM    C8S14509   3.137   3.091   7.090  0.0494  0.0456  0.1988
  134OSM    H8S14510   3.049   3.025   7.108  0.5863 -0.3146  1.5728
  134OSM    H8T14511   3.093   3.183   7.046  0.5610  1.3503  2.3118
  134OSM    C9S14512   3.222   3.129   7.211  0.3310 -0.1688  0.4617
  134OSM    H9S14513   3.279   3.215   7.170 -1.5648  0.4978 -0.8378
  134OSM    H9T14514   3.292   3.049   7.243  0.2326 -0.9939 -1.2871
  134OSM   C10S14515   3.131   3.154   7.334 -0.4349 -0.0097 -0.2283
  134OSM   H10S14516   3.069   3.068   7.368 -0.1993  0.6477  1.9504
  134OSM   H10T14517   3.061   3.236   7.304 -0.9347 -0.4471 -0.2725
  134OSM   C11S14518   3.202   3.210   7.459  0.2371 -0.2147  0.3041
  134OSM   H11S14519   3.240   3.315   7.457  0.8605 -0.4568 -0.7037
  134OSM   H11T14520   3.288   3.142   7.472 -0.7761 -1.3913  0.9387
  134OSM   C12S14521   3.100   3.202   7.574 -0.5755 -0.1318 -0.4816
  134OSM   H12S14522   3.085   3.094   7.595  3.5305 -0.4469  1.4563
  134OSM   H12T14523   3.001   3.245   7.549 -0.1070  0.2045 -1.8065
  134OSM   C13S14524   3.157   3.264   7.698 -0.6495 -0.3543 -0.3163
  134OSM   H13S14525   3.182   3.371   7.678 -0.5809 -0.0842  1.1384
  134OSM   H13T14526   3.245   3.206   7.732  0.8768  1.4286 -1.1233
  134OSM   C14S14527   3.054   3.260   7.811  0.2712  0.5578  0.1369
  134OSM   H14S14528   3.018   3.155   7.822 -0.6676  0.8223 -0.4004
  134OSM   H14T14529   2.966   3.321   7.782  1.3275  1.2065 -1.7903
  134OSM   C15S14530   3.117   3.317   7.941  0.1463 -0.5339  0.5837
  134OSM   H15S14531   3.123   3.427   7.930 -1.3136 -0.2998  2.0118
  134OSM   H15T14532   3.221   3.276   7.935  0.8257  1.0402  1.3170
  134OSM   C16S14533   3.042   3.275   8.066  0.2954 -0.6696  0.9145
  134OSM   H16S14534   3.027   3.165   8.074 -0.3313 -0.9715 -3.0667
  134OSM   H16T14535   2.946   3.328   8.081  0.0998 -0.3992 -1.0809
  134OSM   C17S14536   3.131   3.317   8.184 -0.3634  0.1654 -0.5931
  134OSM   H17S14537   3.175   3.418   8.172  0.1722 -0.1974 -1.8028
  134OSM   H17T14538   3.215   3.244   8.176  0.6367  1.3945 -1.5549
  134OSM   C18S14539   3.055   3.289   8.307 -0.2327 -0.0756 -0.9896
  134OSM   H18S14540   2.977   3.368   8.308 -0.4995 -0.2943 -2.6361
  134OSM   H18T14541   3.122   3.316   8.391  0.9840  0.5853 -2.1441
  134OSM   H18U14542   3.009   3.189   8.319  0.9572 -0.4741  0.3425
  134OSM    C1F14543   3.062   3.558   7.008  0.9010  0.2386  0.2973
  134OSM     OF14544   2.950   3.607   6.991  0.1593 -0.3117 -0.7920
  134OSM    C2F14545   3.125   3.562   7.152  0.1717  0.4872  0.2214
  134OSM    H2F14546   3.234   3.580   7.143  0.4641  1.4503  4.6076
  134OSM    H2G14547   3.112   3.458   7.189 -1.6585  0.8264  0.5751
  134OSM    C3F14548   3.060   3.664   7.251  0.4882  0.7505 -0.2764
  134OSM    H3F14549   2.954   3.675   7.221  0.1560 -2.5932 -0.5171
  134OSM    H3G14550   3.103   3.765   7.232 -0.1576  1.2667  0.9989
  134OSM    C4F14551   3.067   3.619   7.393 -0.2005 -0.2731 -1.4637
  134OSM    H4F14552   3.169   3.588   7.424 -1.5026 -0.9877  2.3266
  134OSM    H4G14553   2.998   3.532   7.400  3.2758 -2.9658  0.4163
  134OSM    C5F14554   3.016   3.720   7.497 -0.2571 -0.4146  0.3766
  134OSM    H5F14555   2.911   3.744   7.469  0.7777  0.7842 -2.7326
  134OSM    H5G14556   3.065   3.817   7.473 -0.9603 -0.0516  0.3672
  134OSM    C6F14557   3.048   3.678   7.644 -0.2339 -0.6765 -0.9687
  134OSM    H6F14558   3.157   3.681   7.667  0.0890 -1.1677 -2.3805
  134OSM    H6G14559   3.015   3.575   7.666  1.2181 -0.8409  0.5615
  134OSM    C7F14560   2.983   3.765   7.749  0.2651 -0.6840 -0.2349
  134OSM    H7F14561   2.875   3.744   7.740  0.1814  0.4032 -1.8191
  134OSM    H7G14562   2.991   3.875   7.741  0.6360 -0.6777  0.1713
  134OSM    C8F14563   3.016   3.715   7.888 -0.1994 -0.9486 -0.3558
  134OSM    H8F14564   2.991   3.609   7.908  1.0238 -1.1025  0.4617
  134OSM    H8G14565   2.948   3.780   7.947 -1.0429 -0.1824 -2.1605
  134OSM    C9F14566   3.155   3.757   7.937 -0.4739 -0.0667  0.3600
  134OSM    H9F14567   3.235   3.767   7.862  0.2058  1.1450  1.2313
  134OSM   C10F14568   3.194   3.756   8.064  0.0252 -0.0653 -0.7382
  134OSM   H10F14569   3.295   3.796   8.085 -0.7137  0.6823  1.5591
  134OSM   C11F14570   3.112   3.714   8.191 -0.5335 -0.6020  0.7551
  134OSM   H11F14571   3.188   3.686   8.268  1.4442  0.5481 -0.7365
  134OSM   H11G14572   3.046   3.631   8.157  0.9983 -0.9141 -1.5487
  134OSM   C12F14573   3.017   3.824   8.243 -0.5158  0.3061  0.3546
  134OSM   H12F14574   2.948   3.787   8.322 -3.1536 -0.1153 -2.0534
  134OSM   H12G14575   2.946   3.851   8.162 -0.5275 -0.8481 -0.0300
  134OSM   C13F14576   3.090   3.947   8.305  0.0202 -0.4217  0.2691
  134OSM   H13F14577   3.136   4.010   8.226  0.5879 -2.1461 -0.8044
  134OSM   H13G14578   3.163   3.915   8.383 -0.0047  1.1168  0.9559
  134OSM   C14F14579   2.983   4.037   8.366  0.0670  0.6310  0.7501
  134OSM   H14F14580   3.027   4.122   8.422 -2.7417 -0.2822  4.5503
  134OSM   H14G14581   2.928   3.981   8.445  0.3673  1.0275  1.2401
  134OSM   C15F14582   2.881   4.085   8.262 -0.3906  0.1449 -0.4907
  134OSM   H15F14583   2.807   4.012   8.224  0.1472 -0.4789 -0.3456
  134OSM   H15G14584   2.942   4.118   8.175  1.2310 -0.7005  0.3009
  134OSM   C16F14585   2.801   4.206   8.312 -0.1211 -0.4347 -0.6120
  134OSM   H16F14586   2.881   4.281   8.331  0.3015 -0.4964 -2.0924
  134OSM   H16G14587   2.748   4.199   8.410 -0.2706 -1.3313 -0.7525
  134OSM   C17F14588   2.701   4.249   8.196 -0.5690  0.3461 -0.3873
  134OSM   H17F14589   2.618   4.175   8.191 -0.5325  0.2769 -0.0159
  134OSM   H17G14590   2.753   4.249   8.098 -0.6024  0.4254 -0.4066
  134OSM   C18F14591   2.641   4.391   8.213 -0.1187 -0.6877  0.1620
  134OSM   H18F14592   2.576   4.400   8.303  1.2374  0.4858  1.0506
  134OSM   H18G14593   2.575   4.420   8.129 -1.3227 -0.6416  1.1112
  134OSM   H18H14594   2.717   4.471   8.231 -2.1542  1.1258  0.9563
  135OSM      N14595   2.718   3.498   6.065  0.3010 -0.2631  0.6535
  135OSM    C1514596   2.714   3.402   5.954 -0.7156 -0.1495  0.9423
  135OSM   H15A14597   2.688   3.443   5.857  1.3827 -0.9453  0.0054
  135OSM   H15B14598   2.635   3.327   5.956  0.1974 -1.3267 -2.5152
  135OSM   H15C14599   2.804   3.342   5.953 -1.5795 -1.4969 -0.9357
  135OSM    C1414600   2.802   3.613   6.038  0.6607  0.1092 -0.0645
  135OSM   H14A14601   2.782   3.671   5.949 -0.4663 -0.5548 -0.2500
  135OSM   H14B14602   2.907   3.586   6.034  0.2899 -1.7292  2.0528
  135OSM   H14C14603   2.813   3.675   6.125  1.9178 -0.7745  0.4227
  135OSM    C1314604   2.572   3.546   6.075  0.4272 -0.0088  0.2727
  135OSM   H13A14605   2.516   3.476   6.134  0.0170 -0.9661 -1.2317
  135OSM   H13B14606   2.525   3.543   5.978  0.7221 -0.9236  0.1601
  135OSM   H13C14607   2.574   3.644   6.122  1.0408 -0.0325  0.3034
  135OSM    C1214608   2.760   3.434   6.196  0.3713  0.7995  0.2864
  135OSM   H12A14609   2.863   3.400   6.189 -0.1384 -0.5742 -0.7714
  135OSM   H12B14610   2.708   3.339   6.201  0.2627  0.9197  1.6404
  135OSM    C1114611   2.724   3.512   6.323  0.6979  0.1756 -0.1334
  135OSM   H11A14612   2.758   3.453   6.410  1.5107 -0.3712 -0.8087
  135OSM   H11B14613   2.613   3.508   6.330  0.6501 -0.9678 -1.3868
  135OSM      P14614   2.685   3.774   6.367  0.3625  0.2150  0.0790
  135OSM    O1314615   2.776   3.888   6.354 -0.3588 -0.0865  0.0055
  135OSM    O1414616   2.571   3.775   6.271  0.7911 -0.1142 -0.1879
  135OSM    O1114617   2.639   3.759   6.514 -0.3283 -0.5194 -0.7609
  135OSM    O1214618   2.773   3.642   6.334 -0.3737  0.0533 -0.7571
  135OSM    C1S14619   2.733   3.781   6.621  0.2027 -0.1862  0.0868
  135OSM    H1S14620   2.756   3.890   6.617  1.6587 -0.5187 -0.7168
  135OSM    H1T14621   2.829   3.728   6.600 -0.0400 -0.7060  0.2870
  135OSM     NF14622   2.749   3.776   6.867  0.1140 -0.1226 -0.1120
  135OSM    HNF14623   2.808   3.712   6.915  1.4110 -0.0729 -1.6112
  135OSM    C2S14624   2.668   3.731   6.760 -0.1037  0.1460  0.6452
  135OSM    H2S14625   2.565   3.769   6.773 -1.1255 -1.3071 -2.7649
  135OSM    C3S14626   2.653   3.577   6.764 -0.6448 -0.1343 -0.4757
  135OSM    H3S14627   2.747   3.526   6.733  1.1286  2.4331  0.5318
  135OSM     O314628   2.558   3.530   6.665  0.0431  0.3379 -0.6310
  135OSM    HO314629   2.560   3.603   6.602 -1.5351  0.7228 -0.2371
  135OSM    C4S14630   2.604   3.531   6.900 -0.7660 -0.7563 -0.1533
  135OSM    H4S14631   2.506   3.574   6.924 -0.3457  0.4462 -0.5251
  135OSM    C5S14632   2.659   3.448   6.986 -0.1298  0.1568 -0.5992
  135OSM    H5S14633   2.759   3.406   6.967  0.0945  0.8523 -1.0098
  135OSM    C6S14634   2.609   3.414   7.122 -0.0171  0.4345  0.3619
  135OSM    H6S14635   2.581   3.309   7.146 -0.2553  0.7375  1.4716
  135OSM    H6T14636   2.516   3.473   7.142 -1.2627 -1.5362  0.5172
  135OSM    C7S14637   2.697   3.461   7.241 -0.3662  0.0161 -0.0752
  135OSM    H7S14638   2.695   3.572   7.243 -0.4597 -0.0054  1.4886
  135OSM    H7T14639   2.798   3.421   7.220  0.3767  2.5354 -1.5169
  135OSM    C8S14640   2.650   3.402   7.377  0.1488 -0.0569  0.4413
  135OSM    H8S14641   2.658   3.292   7.362  0.6944  0.2123 -1.3462
  135OSM    H8T14642   2.549   3.446   7.389 -0.2351  0.2077 -3.2768
  135OSM    C9S14643   2.736   3.436   7.498  0.4725 -0.0092 -0.1459
  135OSM    H9S14644   2.758   3.545   7.494 -1.6483  0.4157 -0.4988
  135OSM    H9T14645   2.832   3.381   7.494  2.3109  2.9795  0.8280
  135OSM   C10S14646   2.659   3.406   7.628 -0.1210 -0.5232  0.1019
  135OSM   H10S14647   2.671   3.297   7.648  1.3641 -0.7293 -1.8190
  135OSM   H10T14648   2.552   3.427   7.607 -0.1390  0.4538  1.0779
  135OSM   C11S14649   2.712   3.474   7.751  0.1188 -0.6644  0.3244
  135OSM   H11S14650   2.687   3.582   7.741  1.1513 -0.1205  3.1060
  135OSM   H11T14651   2.819   3.456   7.774 -0.7016 -1.1605  4.1302
  135OSM   C12S14652   2.641   3.423   7.875  0.5011 -0.9234 -0.5217
  135OSM   H12S14653   2.677   3.318   7.885  2.9561 -0.1800 -1.0371
  135OSM   H12T14654   2.530   3.416   7.871  0.6024 -2.4975 -1.0668
  135OSM   C13S14655   2.677   3.516   7.993  0.2993 -0.2467 -0.4385
  135OSM   H13S14656   2.621   3.612   7.984 -1.4763 -1.5473 -4.9211
  135OSM   H13T14657   2.786   3.533   7.988  0.0819  0.9825 -1.3218
  135OSM   C14S14658   2.649   3.447   8.130 -0.0229 -0.6891  0.3848
  135OSM   H14S14659   2.727   3.375   8.163  0.0104 -0.5309  0.6582
  135OSM   H14T14660   2.548   3.404   8.143 -2.0537  3.5288 -0.4483
  135OSM   C15S14661   2.669   3.553   8.237 -0.5041 -0.1098 -0.4682
  135OSM   H15S14662   2.600   3.639   8.220  0.5593  1.1226  1.2812
  135OSM   H15T14663   2.774   3.590   8.237 -0.6526  0.3269  0.6251
  135OSM   C16S14664   2.637   3.499   8.376 -0.3529 -0.2375  0.2003
  135OSM   H16S14665   2.690   3.402   8.392 -0.3153 -0.0688  1.1109
  135OSM   H16T14666   2.528   3.478   8.369 -0.3783  0.5642 -1.9157
  135OSM   C17S14667   2.659   3.577   8.502 -0.2826 -1.1595  0.1646
  135OSM   H17S14668   2.595   3.667   8.486 -1.1248 -2.0152 -1.3169
  135OSM   H17T14669   2.762   3.614   8.520  0.4667 -3.3314  0.3838
  135OSM   C18S14670   2.603   3.519   8.633  0.0004 -0.3359 -0.0336
  135OSM   H18S14671   2.523   3.448   8.604 -1.7196  1.8443 -0.7450
  135OSM   H18T14672   2.567   3.601   8.698 -0.7903  0.9827 -2.0866
  135OSM   H18U14673   2.686   3.458   8.675 -0.0959 -1.4356 -1.3698
  135OSM    C1F14674   2.771   3.904   6.892 -0.9857  0.4750 -0.1063
  135OSM     OF14675   2.704   3.992   6.844 -0.2427  0.1336  0.4773
  135OSM    C2F14676   2.892   3.924   6.975 -0.0029 -0.5728 -0.1951
  135OSM    H2F14677   2.990   3.882   6.944  1.3554  1.6210  1.0653
  135OSM    H2G14678   2.877   3.887   7.079  2.1911  0.2579  0.4353
  135OSM    C3F14679   2.924   4.076   7.002  0.4884 -0.8320 -0.0628
  135OSM    H3F14680   2.836   4.130   7.042  1.4187  1.3973 -0.9437
  135OSM    H3G14681   2.947   4.125   6.905  0.3177  0.2100  0.4181
  135OSM    C4F14682   3.038   4.100   7.101 -0.1919 -0.3611  0.1965
  135OSM    H4F14683   3.077   4.204   7.092 -0.7248 -0.2173 -0.5679
  135OSM    H4G14684   3.113   4.023   7.072 -0.0141  0.7066 -2.2874
  135OSM    C5F14685   2.997   4.069   7.253 -0.0848  0.3091 -0.0695
  135OSM    H5F14686   3.056   3.984   7.293 -0.2115  0.4855  0.4983
  135OSM    H5G14687   2.891   4.040   7.261 -0.3373  1.5890  1.7887
  135OSM    C6F14688   3.002   4.190   7.346 -0.5064  0.1515 -0.6087
  135OSM    H6F14689   2.918   4.248   7.302 -1.6984  0.3236  1.8284
  135OSM    H6G14690   3.097   4.248   7.347  0.5894 -1.5887 -0.5896
  135OSM    C7F14691   2.972   4.147   7.490 -0.3634  0.4535 -0.0989
  135OSM    H7F14692   3.062   4.106   7.540 -0.7785 -0.0482  0.2364
  135OSM    H7G14693   2.897   4.065   7.489  0.1081  0.0117 -2.2509
  135OSM    C8F14694   2.931   4.267   7.578  0.8344  0.6470 -0.3342
  135OSM    H8F14695   2.843   4.323   7.541 -0.1657 -0.6062  0.1272
  135OSM    H8G14696   3.015   4.340   7.576  0.3587  1.3047  1.9411
  135OSM    C9F14697   2.903   4.224   7.722 -0.3095  0.4245 -0.0692
  135OSM    H9F14698   2.869   4.120   7.731  0.6126  0.1455  0.2735
  135OSM   C10F14699   2.922   4.294   7.835 -0.1793 -0.6839 -0.0393
  135OSM   H10F14700   2.897   4.251   7.933 -0.8225  0.2555  0.2137
  135OSM   C11F14701   2.964   4.440   7.832  0.0087  0.3889 -0.3264
  135OSM   H11F14702   2.946   4.485   7.732 -1.7731  4.9355  1.8658
  135OSM   H11G14703   3.071   4.429   7.859 -0.3557 -3.0084 -0.0716
  135OSM   C12F14704   2.900   4.531   7.945 -0.3668  0.5291  0.4922
  135OSM   H12F14705   2.934   4.496   8.044 -0.4833  0.0196  0.3540
  135OSM   H12G14706   2.789   4.535   7.942 -0.3949 -0.6928 -1.8346
  135OSM   C13F14707   2.968   4.665   7.950 -0.0752  0.0736 -0.0024
  135OSM   H13F14708   2.972   4.706   7.846  2.9055 -0.5746 -0.1941
  135OSM   H13G14709   3.073   4.661   7.988 -0.6707 -1.0925  1.5424
  135OSM   C14F14710   2.887   4.765   8.038  0.4152 -0.3174  0.5719
  135OSM   H14F14711   2.874   4.726   8.141  1.7547 -0.8577  0.5463
  135OSM   H14G14712   2.782   4.779   8.006  0.9832 -0.2396 -1.3705
  135OSM   C15F14713   2.962   4.902   8.070  0.2733 -0.2537 -0.0890
  135OSM   H15F14714   2.954   4.976   7.988  1.2897  0.4861  0.4687
  135OSM   H15G14715   3.072   4.885   8.081  0.1946 -0.4971  0.3242
  135OSM   C16F14716   2.910   4.966   8.203 -0.2609  0.7001  0.2996
  135OSM   H16F14717   2.799   4.962   8.212 -0.2276 -1.6370 -0.0601
  135OSM   H16G14718   2.933   5.074   8.199  1.7598  0.2739 -0.2593
  135OSM   C17F14719   2.977   4.902   8.328  0.6507 -0.7597  0.0697
  135OSM   H17F14720   3.085   4.927   8.332  0.2630  1.0491 -0.3829
  135OSM   H17G14721   2.976   4.793   8.308 -0.2769 -0.4444 -1.7369
  135OSM   C18F14722   2.907   4.940   8.456 -0.1720 -0.1599  0.6472
  135OSM   H18F14723   2.962   4.894   8.540  0.3142 -1.0907 -0.1669
  135OSM   H18G14724   2.799   4.917   8.451 -0.7954  2.4922  1.0997
  135OSM   H18H14725   2.900   5.049   8.478  0.0876  0.4039 -1.8481
  136OSM      N14726   1.073   4.552   5.851  0.6708 -0.3046  0.1579
  136OSM    C1514727   1.180   4.450   5.880  0.5831  0.0418  0.1290
  136OSM   H15A14728   1.151   4.378   5.955  0.7326  0.5069  0.6399
  136OSM   H15B14729   1.275   4.491   5.910  1.7281 -2.4621  0.0476
  136OSM   H15C14730   1.189   4.390   5.791 -1.5955  0.1411 -0.1922
  136OSM    C1414731   1.122   4.629   5.730 -0.1382  0.2098 -0.0255
  136OSM   H14A14732   1.063   4.718   5.719 -0.4127 -0.2900 -3.1875
  136OSM   H14B14733   1.126   4.566   5.642  0.9015 -0.3763  0.4334
  136OSM   H14C14734   1.219   4.671   5.753 -0.4831  2.9907 -3.2408
  136OSM    C1314735   0.940   4.488   5.818 -0.3161 -0.1548  0.0767
  136OSM   H13A14736   0.954   4.400   5.756  1.6609 -0.0510  0.3429
  136OSM   H13B14737   0.867   4.554   5.775  0.8207 -0.0732 -1.7930
  136OSM   H13C14738   0.900   4.456   5.913 -0.1132  1.6856  0.7901
  136OSM    C1214739   1.061   4.651   5.965  0.7334  0.1601 -0.0608
  136OSM   H12A14740   0.979   4.719   5.943 -1.4547 -2.2547  0.3893
  136OSM   H12B14741   1.147   4.715   5.977  0.0786  1.0527 -0.0026
  136OSM    C1114742   1.026   4.597   6.102  0.3012  0.5995  0.0974
  136OSM   H11A14743   1.024   4.675   6.181 -1.4860  1.6319 -0.9232
  136OSM   H11B14744   1.098   4.522   6.141 -1.2296  0.6163  3.1630
  136OSM      P14745   0.758   4.615   6.118  0.2681 -0.0829 -0.4583
  136OSM    O1314746   0.769   4.751   6.053  0.2509  0.0751 -0.1542
  136OSM    O1414747   0.656   4.525   6.069  0.2746 -0.4474  0.3170
  136OSM    O1114748   0.748   4.639   6.272  0.4451 -0.5527  0.0007
  136OSM    O1214749   0.893   4.529   6.103  0.1483 -0.1502  0.1095
  136OSM    C1S14750   0.791   4.540   6.360 -0.2159 -0.4408  1.3036
  136OSM    H1S14751   0.902   4.548   6.366 -0.3221  1.8709  0.5467
  136OSM    H1T14752   0.761   4.439   6.324  1.2366  0.4277 -2.5896
  136OSM     NF14753   0.794   4.487   6.600  0.1590 -0.2984 -0.2341
  136OSM    HNF14754   0.744   4.407   6.633  1.2422 -0.4876  0.9607
  136OSM    C2S14755   0.726   4.569   6.500  0.1048 -0.5072  0.4701
  136OSM    H2S14756   0.753   4.673   6.526  1.3055 -0.1841 -1.8805
  136OSM    C3S14757   0.570   4.552   6.487  0.5494  0.0098  0.6982
  136OSM    H3S14758   0.547   4.450   6.450  2.1853 -1.0332  2.4515
  136OSM     O314759   0.519   4.641   6.388 -0.3970 -0.6343 -1.0495
  136OSM    HO314760   0.591   4.663   6.329  1.6988 -0.6381  1.4352
  136OSM    C4S14761   0.510   4.577   6.623 -0.2635  0.1280 -0.3918
  136OSM    H4S14762   0.511   4.679   6.663 -2.1140 -0.5186  1.4484
  136OSM    C5S14763   0.459   4.482   6.696 -0.1870  0.1542  0.1754
  136OSM    H5S14764   0.468   4.376   6.669 -0.6081 -0.2162  1.4409
  136OSM    C6S14765   0.403   4.499   6.832 -0.2989  0.3705 -0.5247
  136OSM    H6S14766   0.322   4.427   6.855 -0.1290  1.1911  2.9667
  136OSM    H6T14767   0.351   4.595   6.854  1.0601  0.7810  0.9552
  136OSM    C7S14768   0.519   4.484   6.934  0.6468 -0.0223  0.7474
  136OSM    H7S14769   0.587   4.569   6.912 -0.7023  0.5359 -1.3617
  136OSM    H7T14770   0.573   4.388   6.920 -0.2421 -0.2861 -0.9342
  136OSM    C8S14771   0.466   4.492   7.075 -0.3816 -0.8861  0.2427
  136OSM    H8S14772   0.414   4.401   7.114 -1.0450 -0.1451  1.1077
  136OSM    H8T14773   0.393   4.575   7.080  0.0551 -0.3629 -1.7119
  136OSM    C9S14774   0.562   4.528   7.188 -0.6128 -0.0708  0.1854
  136OSM    H9S14775   0.597   4.631   7.167  0.9856 -0.5914  0.2175
  136OSM    H9T14776   0.642   4.451   7.186  0.0453  0.6458 -1.5307
  136OSM   C10S14777   0.493   4.531   7.326 -0.0223 -0.3391 -0.2531
  136OSM   H10S14778   0.424   4.444   7.333 -0.8938  0.4324  1.0369
  136OSM   H10T14779   0.430   4.622   7.333  1.2088  0.5884 -1.0058
  136OSM   C11S14780   0.601   4.526   7.438 -0.2705 -0.1024 -0.2344
  136OSM   H11S14781   0.669   4.613   7.424  1.0933 -1.4715 -2.5255
  136OSM   H11T14782   0.655   4.431   7.421 -1.0265 -0.5979  0.1131
  136OSM   C12S14783   0.529   4.546   7.576 -0.3687 -0.6983 -0.7585
  136OSM   H12S14784   0.446   4.472   7.567 -1.5551  0.1028  2.5544
  136OSM   H12T14785   0.489   4.647   7.599 -1.1539 -1.1100 -0.2845
  136OSM   C13S14786   0.618   4.513   7.699  0.4137  0.2800  0.6306
  136OSM   H13S14787   0.716   4.565   7.690  0.4924 -0.2124 -1.9233
  136OSM   H13T14788   0.637   4.404   7.706  0.2283  0.2540  0.7202
  136OSM   C14S14789   0.546   4.539   7.825  0.4401  0.2508  0.3899
  136OSM   H14S14790   0.459   4.471   7.841  0.9865 -0.2518  1.2434
  136OSM   H14T14791   0.501   4.640   7.814 -0.3282 -0.2944 -1.7061
  136OSM   C15S14792   0.633   4.523   7.947 -0.3730  0.3503 -0.2310
  136OSM   H15S14793   0.720   4.593   7.942 -1.0457  1.5029  2.6588
  136OSM   H15T14794   0.688   4.427   7.947  1.0283  1.1354 -0.6034
  136OSM   C16S14795   0.559   4.532   8.074  0.2720  0.4783 -0.5632
  136OSM   H16S14796   0.486   4.448   8.070 -1.7574  2.1363  0.4619
  136OSM   H16T14797   0.520   4.634   8.094  0.9935  0.6041  0.2349
  136OSM   C17S14798   0.643   4.494   8.202 -0.6651 -0.4591 -0.1670
  136OSM   H17S14799   0.690   4.404   8.157  0.3458  0.0049 -0.0495
  136OSM   H17T14800   0.575   4.465   8.284 -3.1617 -1.0898 -2.3882
  136OSM   C18S14801   0.738   4.605   8.243  0.5646  0.1243 -0.1010
  136OSM   H18S14802   0.687   4.699   8.271  1.3834  0.7890 -0.8123
  136OSM   H18T14803   0.813   4.628   8.165  1.4810  2.1702  1.3408
  136OSM   H18U14804   0.801   4.584   8.332 -0.3779  2.4480  1.1549
  136OSM    C1F14805   0.913   4.505   6.643  0.5190  0.3992 -0.3071
  136OSM     OF14806   0.988   4.594   6.601  0.6293  0.4538 -0.5365
  136OSM    C2F14807   0.966   4.408   6.746  0.2750 -0.2493 -0.1902
  136OSM    H2F14808   1.025   4.334   6.687 -1.3592  0.2904 -2.5311
  136OSM    H2G14809   0.872   4.355   6.773 -0.5607  0.9521 -0.7440
  136OSM    C3F14810   1.044   4.464   6.867 -0.2825  0.2555 -0.7903
  136OSM    H3F14811   1.123   4.539   6.842  1.7016 -0.9565  1.6193
  136OSM    H3G14812   1.079   4.373   6.919 -1.9108 -0.1500 -0.3914
  136OSM    C4F14813   0.957   4.531   6.979 -0.1351  0.3516  0.3200
  136OSM    H4F14814   0.874   4.462   7.007  0.8488 -0.9164  0.1909
  136OSM    H4G14815   0.923   4.632   6.950 -1.7318 -0.1057  0.5695
  136OSM    C5F14816   1.023   4.552   7.112  0.1465  0.2472 -0.1162
  136OSM    H5F14817   1.095   4.636   7.103 -1.2836  1.7946  2.0489
  136OSM    H5G14818   1.081   4.462   7.142 -2.6609 -1.0808  1.5644
  136OSM    C6F14819   0.921   4.554   7.226  0.0198  0.7287  0.2373
  136OSM    H6F14820   0.880   4.451   7.224  0.8201  0.4048  0.3365
  136OSM    H6G14821   0.839   4.627   7.208 -3.1362 -2.4992  0.9280
  136OSM    C7F14822   0.970   4.580   7.367 -0.1084 -0.8200  0.4718
  136OSM    H7F14823   1.066   4.525   7.376  1.3230  1.2279 -1.6619
  136OSM    H7G14824   0.901   4.528   7.436 -0.3290  0.7280  1.4455
  136OSM    C8F14825   0.989   4.737   7.396  0.0676 -0.3453  0.4226
  136OSM    H8F14826   0.955   4.803   7.313 -0.3066 -0.1493  0.7333
  136OSM    H8G14827   1.098   4.760   7.399 -0.4789  2.8605 -1.4009
  136OSM    C9F14828   0.925   4.789   7.517  0.0969  0.3682  0.3895
  136OSM    H9F14829   0.848   4.867   7.506  0.4136  1.3063  4.1869
  136OSM   C10F14830   0.964   4.761   7.645 -0.9238  0.6354 -0.7614
  136OSM   H10F14831   0.904   4.809   7.724 -1.2795 -0.6630 -0.2283
  136OSM   C11F14832   1.062   4.653   7.689  0.3501  0.0200 -0.3092
  136OSM   H11F14833   1.167   4.687   7.693  0.7093 -0.6845 -3.1553
  136OSM   H11G14834   1.067   4.566   7.620 -1.6141 -2.0105  1.9749
  136OSM   C12F14835   1.008   4.590   7.822 -0.6966  0.2727  0.1179
  136OSM   H12F14836   0.900   4.568   7.813 -0.7782  0.2772  1.0292
  136OSM   H12G14837   1.028   4.669   7.898 -2.8920  0.6047  0.3817
  136OSM   C13F14838   1.079   4.472   7.869  0.5209  0.1243  0.0230
  136OSM   H13F14839   1.185   4.499   7.884  0.4633 -0.5609  1.8315
  136OSM   H13G14840   1.074   4.390   7.795 -0.7098 -0.5965  0.8819
  136OSM   C14F14841   1.026   4.425   8.004  0.5860  0.3036  0.3260
  136OSM   H14F14842   1.022   4.315   7.997 -1.3846  0.5582 -3.7322
  136OSM   H14G14843   0.923   4.464   8.023  0.9689  0.2017  2.8763
  136OSM   C15F14844   1.116   4.474   8.121 -0.2874 -0.3133 -0.3354
  136OSM   H15F14845   1.095   4.583   8.116 -1.0574 -0.5687 -4.1847
  136OSM   H15G14846   1.222   4.453   8.097  0.9080  1.5940  2.9370
  136OSM   C16F14847   1.075   4.412   8.255 -0.4917 -0.6264  0.4168
  136OSM   H16F14848   0.965   4.422   8.267 -0.3167  0.4653  1.2578
  136OSM   H16G14849   1.114   4.473   8.340  0.4163  0.3460 -0.6671
  136OSM   C17F14850   1.130   4.269   8.275 -0.1544  0.0238  0.2246
  136OSM   H17F14851   1.193   4.245   8.187  1.2129  2.5099  0.4778
  136OSM   H17G14852   1.046   4.197   8.282  1.6035 -2.2312 -1.3424
  136OSM   C18F14853   1.212   4.241   8.404  0.0259  0.1833 -0.0795
  136OSM   H18F14854   1.145   4.268   8.488  0.9415 -0.2727  0.8061
  136OSM   H18G14855   1.305   4.301   8.407  0.3114 -0.2781  0.4654
  136OSM   H18H14856   1.238   4.134   8.419 -2.1940 -0.5995 -1.5068
  137OSM      N14857   4.595   3.132   6.461  0.0684  0.3130 -0.0571
  137OSM    C1514858   4.488   3.055   6.385 -0.4794  0.4304 -0.1727
  137OSM   H15A14859   4.401   3.116   6.366  0.1257  1.2451 -0.3519
  137OSM   H15B14860   4.472   2.955   6.423 -1.1987  0.5427 -0.1637
  137OSM   H15C14861   4.530   3.034   6.288 -0.0207  0.0168  0.1137
  137OSM    C1414862   4.703   3.035   6.497 -0.0632 -0.2113 -1.0268
  137OSM   H14A14863   4.676   2.966   6.576  0.2198 -2.2897 -2.6879
  137OSM   H14B14864   4.795   3.082   6.530  0.4069 -1.6817 -0.1527
  137OSM   H14C14865   4.725   2.968   6.415  1.2171  0.8167 -1.5389
  137OSM    C1314866   4.645   3.249   6.376 -0.2101  0.1145  0.3740
  137OSM   H13A14867   4.717   3.307   6.433  0.1268 -1.0902  1.1999
  137OSM   H13B14868   4.558   3.312   6.366  0.3733  1.0134  0.9071
  137OSM   H13C14869   4.672   3.212   6.279 -0.5324 -0.2279  0.4118
  137OSM    C1214870   4.522   3.188   6.587 -0.4929 -0.2234  0.0122
  137OSM   H12A14871   4.452   3.264   6.556  0.8013  1.3696  0.9459
  137OSM   H12B14872   4.588   3.240   6.655 -0.2191 -0.8134  0.2085
  137OSM    C1114873   4.441   3.077   6.666  0.2985 -0.5075 -0.6611
  137OSM   H11A14874   4.431   3.101   6.774 -0.7340 -1.1903 -0.5933
  137OSM   H11B14875   4.497   2.981   6.673  0.4589 -0.5245 -2.0874
  137OSM      P14876   4.182   3.129   6.640 -0.3043  0.5301 -0.1951
  137OSM    O1314877   4.210   3.272   6.668 -0.5773  0.7978 -0.0971
  137OSM    O1414878   4.090   3.107   6.528  0.1011 -0.2534  0.0867
  137OSM    O1114879   4.119   3.060   6.774 -0.6337  0.2214 -0.0812
  137OSM    O1214880   4.315   3.054   6.603 -0.0865 -0.2745  0.5804
  137OSM    C1S14881   4.125   3.134   6.896  0.6892  0.0048 -0.1394
  137OSM    H1S14882   4.066   3.226   6.878  2.5022  0.7193 -2.7221
  137OSM    H1T14883   4.226   3.174   6.922 -0.3043  1.1374  2.1125
  137OSM     NF14884   4.064   3.158   7.140  0.2306  0.0059  0.0869
  137OSM    HNF14885   4.148   3.184   7.187 -0.4737  1.4849  0.5376
  137OSM    C2S14886   4.072   3.057   7.029 -0.8386 -0.2002  0.3053
  137OSM    H2S14887   3.971   3.018   7.003 -0.2247 -1.5230 -0.1171
  137OSM    C3S14888   4.167   2.936   7.054 -0.1035  0.6646  0.3530
  137OSM    H3S14889   4.263   2.975   7.094  1.0426  0.3875 -2.0292
  137OSM     O314890   4.189   2.851   6.941 -0.1075  0.0086 -0.5830
  137OSM    HO314891   4.141   2.896   6.871 -3.0823  0.9793  1.9353
  137OSM    C4S14892   4.115   2.838   7.164  0.5398  0.7384 -0.2999
  137OSM    H4S14893   4.166   2.847   7.261  0.2892  0.1132 -0.1097
  137OSM    C5S14894   4.010   2.756   7.144  0.5853 -0.4359 -0.6305
  137OSM    H5S14895   3.956   2.772   7.049 -1.5667  0.3604  0.7017
  137OSM    C6S14896   3.941   2.689   7.254  0.1966  0.1938  0.4334
  137OSM    H6S14897   3.935   2.582   7.226 -0.2691  0.1330  0.7632
  137OSM    H6T14898   3.839   2.732   7.261  0.0066  0.1452 -1.5927
  137OSM    C7S14899   4.022   2.687   7.388  0.0203 -0.1235  0.0592
  137OSM    H7S14900   4.129   2.670   7.361  0.5070 -1.9892  2.9725
  137OSM    H7T14901   3.980   2.599   7.441 -1.5356  1.1001  0.8895
  137OSM    C8S14902   4.003   2.810   7.477  0.3503  0.1300  0.0354
  137OSM    H8S14903   3.896   2.837   7.489  0.4865  2.7206 -3.8631
  137OSM    H8T14904   4.057   2.901   7.445  0.8846  0.0803  0.7932
  137OSM    C9S14905   4.087   2.780   7.599 -0.2335 -0.4422 -0.4025
  137OSM    H9S14906   4.188   2.746   7.569 -0.1156 -0.5859  0.1507
  137OSM    H9T14907   4.048   2.694   7.658 -1.4542 -0.3615 -1.0605
  137OSM   C10S14908   4.106   2.897   7.704  0.8678 -0.3244 -0.2515
  137OSM   H10S14909   4.004   2.939   7.715  1.4126  0.1228  3.8678
  137OSM   H10T14910   4.171   2.982   7.672  1.6364 -1.2802 -1.3016
  137OSM   C11S14911   4.144   2.832   7.830  0.2955  0.3029  0.0249
  137OSM   H11S14912   4.239   2.774   7.835  1.4116  1.7167 -3.3901
  137OSM   H11T14913   4.068   2.756   7.856  2.9974 -3.2533 -1.9930
  137OSM   C12S14914   4.152   2.932   7.944 -0.7176 -0.6749 -0.0740
  137OSM   H12S14915   4.061   2.993   7.961 -0.1640  0.1000  0.1379
  137OSM   H12T14916   4.230   3.003   7.910 -0.0477 -2.2650 -1.9653
  137OSM   C13S14917   4.202   2.880   8.080  0.2023 -0.1031 -0.1506
  137OSM   H13S14918   4.294   2.823   8.053  1.9202  2.4798  0.0260
  137OSM   H13T14919   4.136   2.802   8.124  0.6863  0.4204  1.5523
  137OSM   C14S14920   4.231   2.993   8.176  0.4640 -1.0150  0.7010
  137OSM   H14S14921   4.140   3.056   8.171  0.4205 -1.2082 -1.2309
  137OSM   H14T14922   4.309   3.056   8.129 -1.6679 -0.0932 -1.7149
  137OSM   C15S14923   4.247   2.949   8.321  0.6627 -0.1094  0.8166
  137OSM   H15S14924   4.161   2.889   8.358  0.2169 -1.3396 -2.1016
  137OSM   H15T14925   4.260   3.040   8.384  1.7202 -0.1061  0.5856
  137OSM   C16S14926   4.377   2.874   8.330 -0.4547 -0.6570  0.4487
  137OSM   H16S14927   4.459   2.938   8.290  0.9538  0.4364  4.8398
  137OSM   H16T14928   4.377   2.779   8.272 -1.8147  0.5994 -1.6864
  137OSM   C17S14929   4.430   2.831   8.463 -0.3509  0.4983 -0.3710
  137OSM   H17S14930   4.440   2.924   8.524  1.6407  0.2451 -0.2905
  137OSM   H17T14931   4.534   2.795   8.458  0.1189  1.5709  1.1477
  137OSM   C18S14932   4.351   2.727   8.533  0.9384  0.3094 -0.9938
  137OSM   H18S14933   4.257   2.785   8.548  1.9354  1.3781  1.4256
  137OSM   H18T14934   4.400   2.699   8.629 -1.6483 -0.9459  0.0054
  137OSM   H18U14935   4.330   2.632   8.480 -3.2502  1.7958 -2.2122
  137OSM    C1F14936   3.962   3.245   7.153 -0.3915 -0.3568  0.5351
  137OSM     OF14937   3.884   3.249   7.060  0.4478 -0.3641 -0.4965
  137OSM    C2F14938   3.968   3.343   7.267  1.0272 -0.2827  0.0285
  137OSM    H2F14939   3.968   3.285   7.363  1.7583 -0.8844 -0.3341
  137OSM    H2G14940   3.872   3.398   7.258  1.9542  1.2633 -0.6128
  137OSM    C3F14941   4.093   3.429   7.284  0.2478 -0.1714  0.1698
  137OSM    H3F14942   4.126   3.459   7.182 -0.7915  0.6310  0.0621
  137OSM    H3G14943   4.172   3.365   7.329  0.2122 -0.4986 -0.2277
  137OSM    C4F14944   4.071   3.553   7.373 -1.0314  0.0450  0.3573
  137OSM    H4F14945   4.002   3.621   7.318  0.2114  1.0488  0.0307
  137OSM    H4G14946   4.169   3.603   7.381 -0.4348 -1.3669  2.4755
  137OSM    C5F14947   4.013   3.524   7.512  0.2167 -0.0619 -0.0527
  137OSM    H5F14948   3.923   3.461   7.498  0.9826 -1.3382  0.6574
  137OSM    H5G14949   3.983   3.624   7.551  0.5500  0.0322 -0.0322
  137OSM    C6F14950   4.108   3.455   7.613  0.2209 -0.2007 -0.5825
  137OSM    H6F14951   4.188   3.531   7.626  0.4362 -0.3334 -1.1075
  137OSM    H6G14952   4.170   3.380   7.558  1.8606  1.4211 -0.9790
  137OSM    C7F14953   4.052   3.401   7.740  0.0010 -1.2156  0.0960
  137OSM    H7F14954   4.144   3.365   7.791 -0.2077 -0.1640  1.2624
  137OSM    H7G14955   3.985   3.317   7.712  1.2172 -1.7588 -1.2613
  137OSM    C8F14956   3.973   3.485   7.843  0.5380 -0.1873 -0.6903
  137OSM    H8F14957   3.890   3.539   7.793  0.9053  2.9581  1.9904
  137OSM    H8G14958   4.043   3.557   7.891  0.5092 -0.6080 -0.0121
  137OSM    C9F14959   3.900   3.395   7.949  0.4140 -0.1202 -0.2479
  137OSM    H9F14960   3.822   3.333   7.902  0.1940  0.9529 -1.3273
  137OSM   C10F14961   3.943   3.381   8.072 -0.1648 -0.2044 -0.6876
  137OSM   H10F14962   3.883   3.303   8.121  1.1024 -0.3202  0.7223
  137OSM   C11F14963   4.061   3.453   8.134 -0.1826 -0.5830 -0.0033
  137OSM   H11F14964   4.026   3.546   8.183 -0.4067 -0.0453 -1.1898
  137OSM   H11G14965   4.127   3.493   8.055  0.9496  0.1963  1.3204
  137OSM   C12F14966   4.142   3.387   8.239 -1.1318 -0.0421  0.2903
  137OSM   H12F14967   4.235   3.443   8.262  0.6585 -2.7392 -0.0495
  137OSM   H12G14968   4.172   3.284   8.207  0.7748  0.3594  0.6936
  137OSM   C13F14969   4.063   3.389   8.375  0.0520 -0.0883  0.2824
  137OSM   H13F14970   3.976   3.328   8.344  0.4250 -0.5756  0.1892
  137OSM   H13G14971   4.049   3.494   8.409 -0.9039 -0.1328  0.0247
  137OSM   C14F14972   4.127   3.326   8.494 -0.5874  0.6160 -0.2572
  137OSM   H14F14973   4.150   3.223   8.461 -0.2580  1.1197 -1.6461
  137OSM   H14G14974   4.049   3.327   8.573 -0.5638 -0.3727 -0.2146
  137OSM   C15F14975   4.261   3.394   8.538 -0.9530  0.5202  0.4166
  137OSM   H15F14976   4.234   3.487   8.592 -1.5308  1.3530 -1.2898
  137OSM   H15G14977   4.330   3.398   8.451  2.0319 -3.0420  2.4397
  137OSM   C16F14978   4.349   3.306   8.632  0.5674 -0.1826  0.2071
  137OSM   H16F14979   4.408   3.230   8.577  0.3750  0.0712 -0.3546
  137OSM   H16G14980   4.291   3.266   8.719 -0.1710 -1.0083 -0.6562
  137OSM   C17F14981   4.465   3.388   8.694  0.2387  0.0013  0.1189
  137OSM   H17F14982   4.524   3.431   8.610 -0.6967  0.0236 -0.5345
  137OSM   H17G14983   4.529   3.329   8.762  0.9466 -0.8211 -1.2357
  137OSM   C18F14984   4.423   3.498   8.788 -0.4514 -0.3495  0.8155
  137OSM   H18F14985   4.353   3.456   8.864  1.1696 -2.1113  1.3727
  137OSM   H18G14986   4.363   3.577   8.737 -0.3454 -1.0778 -0.4559
  137OSM   H18H14987   4.505   3.556   8.835  0.0571 -0.5359  0.1672
  138OSM      N14988   4.178   5.533   5.768 -0.1118  0.0126 -0.3552
  138OSM    C1514989   4.130   5.411   5.844  0.0167 -0.0856 -0.0137
  138OSM   H15A14990   4.103   5.328   5.780 -0.3822 -0.7228  0.9641
  138OSM   H15B14991   4.045   5.439   5.905 -0.8131 -2.6855  0.0802
  138OSM   H15C14992   4.212   5.385   5.909 -0.2552 -0.0400  0.3471
  138OSM    C1414993   4.297   5.487   5.688  0.1209  0.4475  0.2991
  138OSM   H14A14994   4.372   5.479   5.765  1.2763  0.0664 -0.8453
  138OSM   H14B14995   4.318   5.564   5.615  1.0424  0.0729  0.1683
  138OSM   H14C14996   4.283   5.394   5.635  2.8240  2.2014 -3.7186
  138OSM    C1314997   4.071   5.576   5.679 -0.3936  0.2515  0.2326
  138OSM   H13A14998   3.980   5.599   5.731 -1.3739 -2.6232 -0.0967
  138OSM   H13B14999   4.047   5.489   5.619  0.7389 -1.2382  1.8758
  138OSM   H13C15000   4.103   5.652   5.609  1.9187 -2.3515 -1.7140
  138OSM    C1215001   4.214   5.639   5.865 -0.0828  0.0433  0.7451
  138OSM   H12A15002   4.130   5.682   5.917 -0.5165 -0.3822  0.4046
  138OSM   H12B15003   4.255   5.719   5.805 -1.5863  0.5136  0.3282
  138OSM    C1115004   4.312   5.605   5.982 -0.8440 -0.0794 -0.1392
  138OSM   H11A15005   4.253   5.529   6.038 -0.4632  0.0946  0.5079
  138OSM   H11B15006   4.319   5.693   6.050 -1.6188  0.2020 -0.4139
  138OSM      P15007   4.575   5.630   5.972  0.4342  0.4870 -0.3525
  138OSM    O1315008   4.683   5.533   5.977  0.0837 -0.3479  0.0129
  138OSM    O1415009   4.579   5.727   5.862  0.7697  0.4942  0.3662
  138OSM    O1115010   4.560   5.694   6.114  0.1491  0.0178  0.2076
  138OSM    O1215011   4.439   5.545   5.947 -0.2994 -0.1673 -0.6452
  138OSM    C1S15012   4.538   5.605   6.228 -0.1841  0.0077  0.2491
  138OSM    H1S15013   4.621   5.532   6.237  0.6339  1.1178  1.9441
  138OSM    H1T15014   4.453   5.540   6.200  1.6289 -1.4393 -2.1922
  138OSM     NF15015   4.493   5.563   6.462 -0.4999 -0.7448 -0.3982
  138OSM    HNF15016   4.398   5.536   6.454 -0.5803 -0.7206  0.4617
  138OSM    C2S15017   4.523   5.672   6.368 -0.6599  0.5363  0.4665
  138OSM    H2S15018   4.616   5.719   6.405  1.0821 -3.2965  1.2489
  138OSM    C3S15019   4.417   5.786   6.372  0.6302  0.9511 -0.0032
  138OSM    H3S15020   4.319   5.734   6.372  0.4840  1.2127  1.4268
  138OSM     O315021   4.427   5.873   6.258  0.0197  0.0373  0.1145
  138OSM    HO315022   4.482   5.825   6.195  1.1767 -0.9831  1.8262
  138OSM    C4S15023   4.422   5.862   6.495  0.7099 -0.0895 -0.3033
  138OSM    H4S15024   4.525   5.897   6.512  0.6710  0.5303 -1.2753
  138OSM    C5S15025   4.321   5.893   6.581 -0.0349 -0.6382  0.8969
  138OSM    H5S15026   4.217   5.865   6.556 -0.3384 -2.8173  4.2678
  138OSM    C6S15027   4.346   5.968   6.711  0.5811  0.3601  0.5391
  138OSM    H6S15028   4.329   6.077   6.697 -0.4518  0.1406  0.0390
  138OSM    H6T15029   4.449   5.957   6.751  0.2861 -2.6202  0.5746
  138OSM    C7S15030   4.247   5.909   6.820 -0.7108 -0.5640  0.2662
  138OSM    H7S15031   4.271   5.802   6.837 -0.6963 -0.4597  0.9135
  138OSM    H7T15032   4.139   5.915   6.793 -1.0730 -0.8636  1.5982
  138OSM    C8S15033   4.251   5.980   6.959 -0.0244 -0.2395 -0.1588
  138OSM    H8S15034   4.146   5.985   6.996  0.2851 -1.7145  0.9803
  138OSM    H8T15035   4.277   6.083   6.927  2.4367 -1.2309 -1.5053
  138OSM    C9S15036   4.340   5.921   7.072  0.1622 -0.5933  0.5420
  138OSM    H9S15037   4.441   5.907   7.028  0.8989  0.7476  1.7712
  138OSM    H9T15038   4.284   5.826   7.087 -1.3511  0.0399 -0.9483
  138OSM   C10S15039   4.349   6.002   7.198 -0.0300  0.0240  0.1977
  138OSM   H10S15040   4.243   6.018   7.226  0.0439 -0.2330  0.6329
  138OSM   H10T15041   4.403   6.096   7.174  1.3976 -0.4422  1.4774
  138OSM   C11S15042   4.432   5.927   7.303  0.4066 -1.4722 -0.1825
  138OSM   H11S15043   4.526   5.890   7.257  0.1622 -0.6731 -1.3521
  138OSM   H11T15044   4.379   5.832   7.324  0.2143 -2.2497 -3.8846
  138OSM   C12S15045   4.443   5.999   7.441 -0.4815 -0.0975  0.2468
  138OSM   H12S15046   4.349   6.054   7.464  0.6735  3.1374 -2.3703
  138OSM   H12T15047   4.525   6.074   7.443 -0.9238  0.4144 -0.8464
  138OSM   C13S15048   4.464   5.894   7.553  0.3208 -0.1660 -0.6387
  138OSM   H13S15049   4.551   5.824   7.542  1.4747  0.9334  1.2345
  138OSM   H13T15050   4.369   5.837   7.555  0.8568 -1.0864  3.3267
  138OSM   C14S15051   4.507   5.955   7.688  0.4014 -0.4388  0.4520
  138OSM   H14S15052   4.435   6.039   7.702  2.1736  1.1535  0.1481
  138OSM   H14T15053   4.605   6.006   7.680 -0.7868  1.4978 -3.2241
  138OSM   C15S15054   4.484   5.864   7.807 -0.4825  0.0568  0.0788
  138OSM   H15S15055   4.546   5.773   7.792 -0.6948 -0.1755  0.5824
  138OSM   H15T15056   4.381   5.823   7.798 -0.0501 -0.7434 -1.4046
  138OSM   C16S15057   4.530   5.931   7.942  0.0710 -0.0137  0.6767
  138OSM   H16S15058   4.457   6.008   7.974  1.3863  0.9346  1.4336
  138OSM   H16T15059   4.613   6.000   7.918 -1.1901  0.8391 -1.3729
  138OSM   C17S15060   4.556   5.831   8.052 -0.5973  0.1760 -1.4243
  138OSM   H17S15061   4.647   5.773   8.024 -0.2738  0.9258 -1.9304
  138OSM   H17T15062   4.461   5.773   8.056 -0.0739 -0.6435 -0.3953
  138OSM   C18S15063   4.582   5.894   8.186 -0.2872 -0.2110 -0.5635
  138OSM   H18S15064   4.602   5.823   8.269  0.1520  0.1503 -0.3561
  138OSM   H18T15065   4.491   5.945   8.225 -1.7437 -1.1436 -2.6671
  138OSM   H18U15066   4.663   5.970   8.185 -0.5265  0.0964  1.0207
  138OSM    C1F15067   4.585   5.502   6.539 -0.7661 -0.1369  0.0468
  138OSM     OF15068   4.699   5.549   6.545 -1.2009  0.4731 -0.4362
  138OSM    C2F15069   4.551   5.366   6.601 -0.5587  0.2033 -0.5410
  138OSM    H2F15070   4.591   5.295   6.525 -1.3687 -1.5804  0.6630
  138OSM    H2G15071   4.442   5.345   6.601 -0.2195 -1.6472  0.1945
  138OSM    C3F15072   4.622   5.335   6.735 -0.2255 -0.5532 -0.0721
  138OSM    H3F15073   4.568   5.396   6.811 -1.0791 -1.0108 -0.3053
  138OSM    H3G15074   4.731   5.360   6.732 -0.7610  2.2618  1.7725
  138OSM    C4F15075   4.596   5.191   6.766 -0.0909 -0.5398 -0.4823
  138OSM    H4F15076   4.619   5.134   6.673 -0.6879 -1.6578  0.0398
  138OSM    H4G15077   4.487   5.188   6.787  0.2023 -1.0289  1.0150
  138OSM    C5F15078   4.664   5.145   6.898  1.0042 -0.4529 -0.2239
  138OSM    H5F15079   4.617   5.214   6.971 -0.6339 -1.9099  0.1297
  138OSM    H5G15080   4.775   5.149   6.887  1.1978 -0.2489  1.6982
  138OSM    C6F15081   4.627   5.003   6.925 -0.3178  0.1585  0.0805
  138OSM    H6F15082   4.640   4.948   6.829 -0.1461  1.4279 -0.6245
  138OSM    H6G15083   4.528   4.986   6.973 -0.8076  1.5026 -0.4472
  138OSM    C7F15084   4.730   4.948   7.027 -0.2341 -0.3668  0.0106
  138OSM    H7F15085   4.835   4.972   6.998 -0.0282 -2.4940 -1.0498
  138OSM    H7G15086   4.729   4.838   7.037  2.0452 -0.2192  2.4332
  138OSM    C8F15087   4.708   5.015   7.168 -0.2179 -0.1797  0.3537
  138OSM    H8F15088   4.710   5.126   7.156  4.3259  0.0739  2.4655
  138OSM    H8G15089   4.792   4.997   7.237  0.8989 -0.2609 -0.9991
  138OSM    C9F15090   4.578   4.965   7.231  0.3206 -0.0854 -0.4604
  138OSM    H9F15091   4.488   5.006   7.183 -0.1804 -1.6219 -0.8486
  138OSM   C10F15092   4.570   4.881   7.335 -0.2743 -0.7625 -0.1967
  138OSM   H10F15093   4.469   4.856   7.370 -0.2098 -0.3656  0.2802
  138OSM   C11F15094   4.681   4.818   7.416  0.3029  0.8436  0.5416
  138OSM   H11F15095   4.787   4.848   7.402  0.1919  1.4400  0.9701
  138OSM   H11G15096   4.667   4.711   7.392  0.5844  0.7912  0.6027
  138OSM   C12F15097   4.658   4.843   7.565  0.2522 -0.1852  0.5873
  138OSM   H12F15098   4.559   4.811   7.602  0.6440  0.2252  2.0332
  138OSM   H12G15099   4.671   4.952   7.583 -2.2313  0.1726  0.2796
  138OSM   C13F15100   4.758   4.766   7.658  0.1226 -0.1243 -0.4120
  138OSM   H13F15101   4.864   4.798   7.643 -0.1527  0.9018 -0.2153
  138OSM   H13G15102   4.756   4.658   7.633 -0.3840 -0.0093 -0.8865
  138OSM   C14F15103   4.725   4.800   7.809 -0.3846 -0.2098 -0.3993
  138OSM   H14F15104   4.791   4.736   7.872  0.8900  1.6568  0.2053
  138OSM   H14G15105   4.620   4.768   7.829 -0.8370  0.4991 -1.6152
  138OSM   C15F15106   4.738   4.941   7.855  0.2713  0.1278  0.3679
  138OSM   H15F15107   4.652   4.997   7.811  0.0085  1.2929  2.3251
  138OSM   H15G15108   4.836   4.972   7.815  1.8980 -1.7375  2.7490
  138OSM   C16F15109   4.729   4.948   8.006  0.5057  0.4757 -0.4147
  138OSM   H16F15110   4.792   5.028   8.052  1.2358  1.3734 -2.9267
  138OSM   H16G15111   4.750   4.848   8.050  0.3823 -0.4597 -2.4607
  138OSM   C17F15112   4.583   4.985   8.045 -0.2801 -0.4490  0.8378
  138OSM   H17F15113   4.514   4.913   7.995 -1.0846  0.3318  0.8036
  138OSM   H17G15114   4.575   5.090   8.008  2.0227 -0.6602 -0.3577
  138OSM   C18F15115   4.573   4.975   8.195  0.2987 -0.2336 -0.6543
  138OSM   H18F15116   4.631   5.054   8.247  1.3641 -1.2996 -0.2148
  138OSM   H18G15117   4.600   4.875   8.235  3.8408  1.0188  0.2585
  138OSM   H18H15118   4.468   4.986   8.229  0.3331  0.5521 -0.8013
  139OSM      N15119   3.832   6.153   6.102 -0.2028 -0.2819  0.0999
  139OSM    C1515120   3.863   6.116   5.958 -0.2416  0.4878  0.4062
  139OSM   H15A15121   3.947   6.049   5.949  0.0051  0.9114 -0.4831
  139OSM   H15B15122   3.895   6.203   5.902 -0.0015  1.8179  2.5420
  139OSM   H15C15123   3.783   6.070   5.902  2.2828  0.1820 -3.1100
  139OSM    C1415124   3.947   6.232   6.154 -0.5366 -0.4194 -0.0732
  139OSM   H14A15125   4.036   6.172   6.166  0.0512  0.4771  0.0630
  139OSM   H14B15126   3.930   6.265   6.256 -1.2162 -0.6940 -0.0932
  139OSM   H14C15127   3.978   6.315   6.093  1.0234 -1.9354 -1.3923
  139OSM    C1315128   3.704   6.239   6.104 -0.4241  0.1912  1.4127
  139OSM   H13A15129   3.615   6.184   6.076 -0.0384 -0.6561  1.8336
  139OSM   H13B15130   3.717   6.316   6.030 -1.9145 -0.0825  0.8391
  139OSM   H13C15131   3.695   6.287   6.200 -0.3513 -1.5386  2.3119
  139OSM    C1215132   3.814   6.020   6.177 -0.0674 -0.9995 -0.2465
  139OSM   H12A15133   3.808   6.033   6.284  1.6063  0.4636 -0.3102
  139OSM   H12B15134   3.911   5.975   6.166  0.4086  0.0290 -0.3573
  139OSM    C1115135   3.710   5.914   6.146  0.5272 -0.5676  0.0150
  139OSM   H11A15136   3.729   5.846   6.231  0.3373  2.2728  2.4101
  139OSM   H11B15137   3.733   5.858   6.053 -0.8727 -0.4986 -0.3875
  139OSM      P15138   3.457   5.860   6.164  0.0220 -0.2646  0.0183
  139OSM    O1315139   3.329   5.931   6.135  0.7897 -0.2996  0.5486
  139OSM    O1415140   3.482   5.732   6.097 -0.9686  0.6374  0.0017
  139OSM    O1115141   3.468   5.831   6.320  0.5185 -0.0656  0.0467
  139OSM    O1215142   3.573   5.964   6.138  0.1266 -0.4720  0.1204
  139OSM    C1S15143   3.484   5.921   6.438  0.0543  0.1749  0.3013
  139OSM    H1S15144   3.498   6.023   6.397  0.4361  0.5044  1.2533
  139OSM    H1T15145   3.568   5.878   6.496  0.1376  1.0390  0.8172
  139OSM     NF15146   3.381   6.014   6.639  0.6878  0.0903  0.5955
  139OSM    HNF15147   3.400   5.988   6.733  1.3461  1.6073  0.8901
  139OSM    C2S15148   3.362   5.917   6.530  0.6986 -0.5958 -0.4502
  139OSM    H2S15149   3.274   5.951   6.470  0.3214 -0.9703 -0.1153
  139OSM    C3S15150   3.321   5.781   6.577  0.2237  0.7317  0.1613
  139OSM    H3S15151   3.408   5.720   6.610 -1.3739 -0.8000  1.6740
  139OSM     O315152   3.276   5.701   6.470 -0.0229  0.3606  0.0856
  139OSM    HO315153   3.327   5.733   6.395 -0.7992 -0.4663 -0.8021
  139OSM    C4S15154   3.216   5.791   6.683  0.2400 -0.6174 -0.4387
  139OSM    H4S15155   3.250   5.774   6.786 -0.2375 -3.0106 -0.6519
  139OSM    C5S15156   3.087   5.829   6.661 -0.4968  0.4857  0.0208
  139OSM    H5S15157   3.050   5.860   6.562 -1.5156  0.5389  0.4121
  139OSM    C6S15158   2.980   5.842   6.768  0.4195  0.0242  0.0500
  139OSM    H6S15159   2.902   5.765   6.749  0.9498 -0.7754  1.0930
  139OSM    H6T15160   2.932   5.942   6.757  0.1458  0.0701  1.6109
  139OSM    C7S15161   3.020   5.847   6.918 -0.3544  0.3707 -0.2225
  139OSM    H7S15162   3.105   5.919   6.924 -1.5919  2.0680 -2.3542
  139OSM    H7T15163   3.058   5.748   6.951 -2.1532 -0.1066  0.4813
  139OSM    C8S15164   2.914   5.905   7.003 -0.6108 -0.2724 -0.5819
  139OSM    H8S15165   2.824   5.840   6.998 -0.9024 -0.0908  1.6101
  139OSM    H8T15166   2.891   6.009   6.971  0.0418  0.2926  0.7391
  139OSM    C9S15167   2.952   5.930   7.151 -0.1389  0.1995 -0.1775
  139OSM    H9S15168   3.040   5.997   7.163 -2.0025  2.9001 -1.1336
  139OSM    H9T15169   2.972   5.831   7.197  0.2626 -0.1463 -1.0866
  139OSM   C10S15170   2.843   6.008   7.233  0.0959 -0.6682  0.3500
  139OSM   H10S15171   2.744   5.957   7.238  0.3303 -1.4412 -2.1614
  139OSM   H10T15172   2.828   6.103   7.177 -5.7943 -0.4992  1.8433
  139OSM   C11S15173   2.891   6.044   7.377  0.2402 -0.0646  0.3621
  139OSM   H11S15174   2.975   6.116   7.367  0.0860 -0.4387 -4.7208
  139OSM   H11T15175   2.914   5.949   7.430  4.6163  0.2227 -0.8319
  139OSM   C12S15176   2.775   6.108   7.455 -0.0108  0.2339 -0.7125
  139OSM   H12S15177   2.682   6.048   7.443 -0.8462  1.0596  1.4106
  139OSM   H12T15178   2.763   6.210   7.414  0.7234  0.4180 -0.4726
  139OSM   C13S15179   2.798   6.138   7.605  0.4256  1.1848  0.4913
  139OSM   H13S15180   2.753   6.237   7.629  0.3158  1.3105 -0.2229
  139OSM   H13T15181   2.904   6.160   7.628  0.7584  1.3820 -1.1513
  139OSM   C14S15182   2.756   6.020   7.697 -0.5081  0.1909 -0.7364
  139OSM   H14S15183   2.798   5.923   7.661 -0.3910  0.3600 -1.0534
  139OSM   H14T15184   2.650   5.986   7.695 -0.7358  0.8596 -0.0006
  139OSM   C15S15185   2.826   6.033   7.840  0.0522  0.1480  0.6138
  139OSM   H15S15186   2.783   6.128   7.876  0.0753  1.4385 -2.6444
  139OSM   H15T15187   2.933   6.048   7.814 -0.6887  0.9738 -2.1226
  139OSM   C16S15188   2.799   5.920   7.938 -0.5866  0.5135  0.3138
  139OSM   H16S15189   2.825   5.824   7.888 -1.4525  1.3435 -1.7993
  139OSM   H16T15190   2.688   5.918   7.951 -0.7717 -0.3546 -1.2622
  139OSM   C17S15191   2.858   5.937   8.081  0.0118 -0.3018 -0.4827
  139OSM   H17S15192   2.874   5.845   8.142 -0.0704  0.9155  1.4086
  139OSM   H17T15193   2.789   6.003   8.137  0.2478 -1.1091  0.7723
  139OSM   C18S15194   2.990   6.004   8.105  0.2393 -0.5014  0.1795
  139OSM   H18S15195   3.016   6.025   8.211 -0.2953  0.7145  0.0724
  139OSM   H18T15196   2.991   6.103   8.054 -0.7668 -0.2721  0.5980
  139OSM   H18U15197   3.073   5.942   8.064  0.8006 -0.4739  1.2652
  139OSM    C1F15198   3.383   6.143   6.617 -0.1887  0.4631 -0.7215
  139OSM     OF15199   3.350   6.186   6.510 -0.5791  0.5807 -0.3220
  139OSM    C2F15200   3.423   6.227   6.731  0.3220  0.1209  0.1843
  139OSM    H2F15201   3.433   6.332   6.696  0.5201  0.7706  2.1577
  139OSM    H2G15202   3.525   6.197   6.763  0.6022 -0.2419 -0.9947
  139OSM    C3F15203   3.319   6.209   6.842 -1.0133  0.0475 -0.4955
  139OSM    H3F15204   3.332   6.110   6.892 -1.9980  0.3805  0.4354
  139OSM    H3G15205   3.218   6.222   6.799  0.2943  2.3467 -2.9821
  139OSM    C4F15206   3.344   6.304   6.965 -0.6518 -0.5306  0.9339
  139OSM    H4F15207   3.359   6.409   6.931  0.4203 -0.9959 -0.0633
  139OSM    H4G15208   3.431   6.267   7.023 -0.3459 -0.2803  0.6371
  139OSM    C5F15209   3.221   6.302   7.050  0.0558  0.1584  0.8112
  139OSM    H5F15210   3.204   6.195   7.074  2.3720 -0.5836 -0.6623
  139OSM    H5G15211   3.132   6.343   6.999  1.3029  0.6290 -1.0424
  139OSM    C6F15212   3.242   6.382   7.181  0.2180 -0.0897 -0.2882
  139OSM    H6F15213   3.259   6.491   7.165  2.0071 -0.1482  1.1268
  139OSM    H6G15214   3.330   6.342   7.236 -0.7600 -0.1625  1.2283
  139OSM    C7F15215   3.113   6.372   7.273 -0.5343 -0.0305  0.1451
  139OSM    H7F15216   3.073   6.270   7.257 -0.2211 -0.1247 -0.0395
  139OSM    H7G15217   3.037   6.447   7.240  0.7872  0.8914 -0.8420
  139OSM    C8F15218   3.156   6.381   7.426 -0.1526  0.2076 -0.1023
  139OSM    H8F15219   3.232   6.300   7.438  0.0729  0.8576  3.0869
  139OSM    H8G15220   3.068   6.367   7.492  1.5447  1.5831  2.5269
  139OSM    C9F15221   3.214   6.515   7.451 -0.5817 -0.4869 -0.2782
  139OSM    H9F15222   3.167   6.609   7.419  2.0561  0.4878 -1.4947
  139OSM   C10F15223   3.329   6.537   7.515 -0.5571  0.0833 -0.4118
  139OSM   H10F15224   3.361   6.638   7.544 -1.6975 -0.1635  1.7880
  139OSM   C11F15225   3.419   6.424   7.576  0.9364 -0.1586 -0.5686
  139OSM   H11F15226   3.523   6.451   7.547  0.1116  1.7250 -1.8696
  139OSM   H11G15227   3.396   6.327   7.528 -1.0293 -0.0718  0.1216
  139OSM   C12F15228   3.404   6.396   7.731  0.2816  0.2955  0.5421
  139OSM   H12F15229   3.479   6.319   7.760 -0.1329 -0.2912  0.0777
  139OSM   H12G15230   3.304   6.349   7.745 -0.7609  2.0457 -0.7072
  139OSM   C13F15231   3.425   6.513   7.821 -0.3579 -0.1606  0.9370
  139OSM   H13F15232   3.323   6.558   7.828 -0.8329 -0.9578 -0.5569
  139OSM   H13G15233   3.487   6.594   7.778 -0.0041 -1.3203 -0.7949
  139OSM   C14F15234   3.470   6.460   7.955  0.4520 -0.1524 -0.3039
  139OSM   H14F15235   3.578   6.433   7.946 -0.4976 -3.7326 -1.6306
  139OSM   H14G15236   3.410   6.372   7.985  1.2176 -0.2863  0.8760
  139OSM   C15F15237   3.464   6.565   8.063 -0.3686 -0.4424 -0.5098
  139OSM   H15F15238   3.355   6.579   8.074 -0.2452  0.3343 -0.2315
  139OSM   H15G15239   3.508   6.666   8.047  0.9137 -1.0446 -0.8277
  139OSM   C16F15240   3.519   6.515   8.196  0.0792 -0.4294 -0.1866
  139OSM   H16F15241   3.620   6.469   8.193  0.3683  0.2172 -0.4715
  139OSM   H16G15242   3.445   6.448   8.243  0.8224 -1.6699 -0.7583
  139OSM   C17F15243   3.532   6.628   8.302 -0.0162  0.2789 -0.6002
  139OSM   H17F15244   3.453   6.702   8.278  0.0974 -0.0253 -1.9466
  139OSM   H17G15245   3.625   6.682   8.275  0.0746  1.5401  2.0830
  139OSM   C18F15246   3.542   6.597   8.448  0.0798  0.3267 -0.2967
  139OSM   H18F15247   3.464   6.532   8.491  0.2042  0.5955  0.3326
  139OSM   H18G15248   3.547   6.686   8.514 -1.0469 -1.6810  2.5967
  139OSM   H18H15249   3.638   6.541   8.461 -0.8405 -1.2420 -0.1825
  140OSM      N15250   3.646   1.660   6.282  0.5361  0.0684  0.2353
  140OSM    C1515251   3.613   1.768   6.379  0.3837 -0.2080 -0.2066
  140OSM   H15A15252   3.516   1.807   6.352  0.2691  0.7758  1.5146
  140OSM   H15B15253   3.677   1.854   6.376 -1.5150  1.1991 -1.5050
  140OSM   H15C15254   3.629   1.730   6.480  3.8184 -2.4507 -1.5037
  140OSM    C1415255   3.569   1.537   6.326 -0.9836  0.5089 -1.0722
  140OSM   H14A15256   3.603   1.488   6.416  1.3805  1.6007 -1.3298
  140OSM   H14B15257   3.586   1.460   6.253  0.5651  0.2386 -0.4388
  140OSM   H14C15258   3.462   1.544   6.338 -0.7087  1.9590  0.9023
  140OSM    C1315259   3.598   1.702   6.147 -0.4025  0.5612  0.0912
  140OSM   H13A15260   3.643   1.628   6.083 -0.5467  2.2263 -1.9748
  140OSM   H13B15261   3.637   1.798   6.117  0.2613  0.5149  0.7979
  140OSM   H13C15262   3.491   1.689   6.141 -0.3903 -1.4821  3.0956
  140OSM    C1215263   3.798   1.645   6.278 -0.2921  0.6766 -0.1516
  140OSM   H12A15264   3.817   1.571   6.201  0.8149  0.4370  0.3420
  140OSM   H12B15265   3.845   1.611   6.369 -1.5458  2.0655  1.0378
  140OSM    C1115266   3.886   1.763   6.225  0.1808  0.1394 -0.1723
  140OSM   H11A15267   3.842   1.805   6.132 -0.7677  1.3308  0.8025
  140OSM   H11B15268   3.988   1.724   6.202  0.6247  1.2245 -0.0663
  140OSM      P15269   3.987   1.873   6.444 -0.3082 -0.5343  0.0751
  140OSM    O1315270   4.110   1.957   6.422 -0.5587  0.2538  0.7295
  140OSM    O1415271   3.905   1.924   6.549  0.0186  0.1240 -0.5528
  140OSM    O1115272   4.034   1.722   6.472 -0.0567  0.1023 -0.2972
  140OSM    O1215273   3.903   1.874   6.313 -0.4723  0.2092  0.1282
  140OSM    C1S15274   4.112   1.683   6.589 -0.5645  0.1999 -0.4361
  140OSM    H1S15275   4.177   1.768   6.620 -0.5151 -0.7716  2.2080
  140OSM    H1T15276   4.175   1.600   6.549  1.5434  1.7990 -0.5713
  140OSM     NF15277   4.114   1.636   6.834 -0.2162  0.1101  0.3452
  140OSM    HNF15278   4.168   1.560   6.869 -1.1102 -0.7397 -0.0860
  140OSM    C2S15279   4.025   1.635   6.715  0.4793 -0.0618  0.0660
  140OSM    H2S15280   3.941   1.706   6.728 -0.6228 -1.9253  3.7401
  140OSM    C3S15281   3.959   1.499   6.668  0.1317  0.0180  0.7996
  140OSM    H3S15282   4.037   1.423   6.642 -1.4803 -0.1812 -3.9007
  140OSM     O315283   3.882   1.515   6.546  0.4101 -0.7698  0.2167
  140OSM    HO315284   3.904   1.606   6.525  1.9007 -1.7307 -2.5692
  140OSM    C4S15285   3.872   1.438   6.774 -0.2229  0.6681  0.1330
  140OSM    H4S15286   3.924   1.367   6.840 -0.4251 -0.5814 -1.0337
  140OSM    C5S15287   3.737   1.469   6.802 -0.2863 -0.1976 -0.1668
  140OSM    H5S15288   3.690   1.548   6.740 -3.3370 -0.3991  1.7475
  140OSM    C6S15289   3.662   1.416   6.920  0.0390 -0.5207  0.2932
  140OSM    H6S15290   3.564   1.372   6.890  0.6525 -2.4372  1.0335
  140OSM    H6T15291   3.638   1.501   6.988  0.4835  0.0739 -0.2897
  140OSM    C7S15292   3.744   1.301   6.987 -1.0019  1.3379  0.3567
  140OSM    H7S15293   3.824   1.355   7.041  0.2724  0.5018 -0.6450
  140OSM    H7T15294   3.785   1.247   6.898 -1.8601 -0.6028  1.1147
  140OSM    C8S15295   3.679   1.205   7.086  0.2201 -0.0912 -0.0496
  140OSM    H8S15296   3.586   1.180   7.031  0.9986 -1.1575 -0.8934
  140OSM    H8T15297   3.645   1.251   7.181 -0.5799  0.6583 -0.6865
  140OSM    C9S15298   3.767   1.084   7.116 -0.0074  0.8146  0.2504
  140OSM    H9S15299   3.858   1.111   7.175  0.4112  0.2689 -0.1377
  140OSM    H9T15300   3.811   1.054   7.019  1.1988 -1.0558  1.3306
  140OSM   C10S15301   3.714   0.969   7.199 -0.0138 -0.3789 -0.7853
  140OSM   H10S15302   3.630   0.925   7.143 -0.3906  1.1203 -1.4299
  140OSM   H10T15303   3.656   1.013   7.283  1.2090 -0.8147  0.3033
  140OSM   C11S15304   3.819   0.865   7.242 -0.0601 -0.7227 -0.5249
  140OSM   H11S15305   3.908   0.912   7.289  2.7282 -6.4074  0.3058
  140OSM   H11T15306   3.861   0.808   7.156 -0.1401  1.1516 -1.8449
  140OSM   C12S15307   3.765   0.774   7.346 -0.4481  0.1054 -0.1959
  140OSM   H12S15308   3.832   0.685   7.355  0.5357  0.9468  0.8120
  140OSM   H12T15309   3.669   0.729   7.312 -0.1864 -0.3269 -0.3722
  140OSM   C13S15310   3.728   0.846   7.480  0.3163  0.3531 -0.7963
  140OSM   H13S15311   3.629   0.890   7.456  0.2863 -0.3572 -2.0129
  140OSM   H13T15312   3.801   0.915   7.526  0.8100 -0.5852 -0.1514
  140OSM   C14S15313   3.699   0.737   7.583  0.0258  0.2472 -0.5082
  140OSM   H14S15314   3.785   0.667   7.593 -0.9665 -0.6236  2.8592
  140OSM   H14T15315   3.602   0.687   7.559  0.3465 -1.0934  0.8691
  140OSM   C15S15316   3.680   0.799   7.724 -0.0925 -0.3873  0.1208
  140OSM   H15S15317   3.605   0.881   7.728  0.9097  0.5958 -1.0381
  140OSM   H15T15318   3.779   0.840   7.753  1.1644 -2.0454 -1.7763
  140OSM   C16S15319   3.639   0.699   7.833  0.1369  0.0724  0.0382
  140OSM   H16S15320   3.652   0.747   7.932 -0.6811 -0.1646  0.2679
  140OSM   H16T15321   3.712   0.615   7.826 -0.4599 -0.5796  1.4004
  140OSM   C17S15322   3.501   0.645   7.831  0.6484  0.3518  0.5045
  140OSM   H17S15323   3.507   0.556   7.766 -0.4232  0.5738  0.0985
  140OSM   H17T15324   3.437   0.721   7.781 -0.0571 -0.9466 -0.5839
  140OSM   C18S15325   3.424   0.618   7.961 -0.0122  0.3183 -0.5859
  140OSM   H18S15326   3.418   0.711   8.021 -0.1798 -2.0185  3.1631
  140OSM   H18T15327   3.475   0.540   8.022 -0.6151 -0.9676 -1.6891
  140OSM   H18U15328   3.326   0.573   7.935 -0.5756 -0.3142  2.4389
  140OSM    C1F15329   4.137   1.750   6.892 -0.3190 -0.0972  0.0196
  140OSM     OF15330   4.089   1.859   6.853  0.1877  0.1302  0.0606
  140OSM    C2F15331   4.251   1.753   6.988  0.0034  0.8278 -0.2547
  140OSM    H2F15332   4.220   1.832   7.059 -0.0800  1.5296 -1.0608
  140OSM    H2G15333   4.344   1.789   6.939  0.0004  1.1006 -0.0594
  140OSM    C3F15334   4.271   1.618   7.064 -0.0289 -0.2100 -0.7857
  140OSM    H3F15335   4.366   1.626   7.120 -1.2987  2.5191  1.1045
  140OSM    H3G15336   4.290   1.535   6.993  1.1478  0.9431 -1.8275
  140OSM    C4F15337   4.161   1.575   7.165 -0.3426 -1.0135  0.1639
  140OSM    H4F15338   4.070   1.553   7.105 -0.9447 -0.9777  1.0693
  140OSM    H4G15339   4.131   1.661   7.228  0.5297  0.6263 -1.6210
  140OSM    C5F15340   4.189   1.440   7.241  0.3169  0.2888  0.6961
  140OSM    H5F15341   4.257   1.472   7.323  0.1583  2.8279 -0.1300
  140OSM    H5G15342   4.249   1.378   7.171  1.9538  1.6107  0.8811
  140OSM    C6F15343   4.069   1.364   7.285  0.2679  0.2703  0.3652
  140OSM    H6F15344   4.104   1.283   7.353  2.6659  0.1153 -0.9843
  140OSM    H6G15345   4.019   1.310   7.202  0.1408  3.0188 -1.4099
  140OSM    C7F15346   3.966   1.442   7.361 -0.0776 -0.1356  0.0505
  140OSM    H7F15347   3.933   1.523   7.292  0.8260 -0.2634 -0.5360
  140OSM    H7G15348   4.003   1.486   7.455  1.4308 -3.6729  1.1978
  140OSM    C8F15349   3.846   1.357   7.400 -0.1623  0.1045 -0.0555
  140OSM    H8F15350   3.889   1.305   7.488  0.0077  1.3813  0.6331
  140OSM    H8G15351   3.818   1.278   7.327 -2.2256  1.1847 -0.4737
  140OSM    C9F15352   3.718   1.422   7.430  0.1397 -0.0820 -0.2252
  140OSM    H9F15353   3.675   1.462   7.338  1.6003 -0.3600 -1.0488
  140OSM   C10F15354   3.667   1.451   7.554  0.0711 -0.5246 -0.1372
  140OSM   H10F15355   3.573   1.508   7.549  1.2056  1.7252  2.6083
  140OSM   C11F15356   3.727   1.426   7.697  0.1734 -0.4464  0.4984
  140OSM   H11F15357   3.694   1.506   7.767 -0.9125  0.8445 -1.4672
  140OSM   H11G15358   3.838   1.430   7.690  0.0914  2.3708  0.1158
  140OSM   C12F15359   3.688   1.287   7.747  0.3101  0.2330  0.6707
  140OSM   H12F15360   3.680   1.219   7.659  3.9103  0.4514  0.0643
  140OSM   H12G15361   3.595   1.291   7.807  0.4364 -1.2557  0.9960
  140OSM   C13F15362   3.791   1.226   7.840  0.0735 -0.7237  1.2926
  140OSM   H13F15363   3.741   1.183   7.929  0.7204  3.4018  3.7775
  140OSM   H13G15364   3.853   1.310   7.877  1.2021 -1.7407  1.7544
  140OSM   C14F15365   3.877   1.127   7.766 -0.0794 -0.6929 -1.2165
  140OSM   H14F15366   3.909   1.174   7.670  1.8844 -2.2625 -1.3424
  140OSM   H14G15367   3.819   1.037   7.738 -0.7598 -0.6208 -0.0657
  140OSM   C15F15368   4.004   1.095   7.844  0.1526  1.0110 -0.2712
  140OSM   H15F15369   4.063   1.189   7.858  1.0001  0.5299 -0.5778
  140OSM   H15G15370   4.060   1.016   7.789 -2.2473 -0.9390  0.0199
  140OSM   C16F15371   3.972   1.053   7.988  0.7371  0.6275 -0.3840
  140OSM   H16F15372   3.906   1.130   8.034  0.8265 -0.2635  1.2819
  140OSM   H16G15373   4.066   1.045   8.048  1.9655  1.7567 -2.1166
  140OSM   C17F15374   3.889   0.921   7.992 -0.0289 -0.5213 -0.5827
  140OSM   H17F15375   3.938   0.851   7.922  0.7157  0.9611 -1.5603
  140OSM   H17G15376   3.794   0.953   7.944  1.0265  1.5489 -1.3300
  140OSM   C18F15377   3.868   0.858   8.131  0.2945 -0.2995 -0.0688
  140OSM   H18F15378   3.790   0.779   8.131 -0.1935  0.1181  2.8121
  140OSM   H18G15379   3.835   0.935   8.204  2.2599  0.5653 -0.0652
  140OSM   H18H15380   3.965   0.815   8.166 -0.2938 -0.6686  1.1417
  141OSM      N15381   3.475   3.398   6.369  1.0198 -0.9782 -0.1206
  141OSM    C1515382   3.586   3.345   6.285  0.2724 -0.3447 -0.1138
  141OSM   H15A15383   3.581   3.377   6.182  0.7202  0.2333  0.0422
  141OSM   H15B15384   3.579   3.238   6.295 -0.9328 -0.0788  2.2846
  141OSM   H15C15385   3.685   3.374   6.317  1.4781 -3.3673 -0.9154
  141OSM    C1415386   3.510   3.384   6.513 -0.1990 -0.0108  0.0197
  141OSM   H14A15387   3.517   3.278   6.533 -3.5113 -0.2882 -0.0098
  141OSM   H14B15388   3.430   3.427   6.572 -2.9802 -1.2556 -2.7066
  141OSM   H14C15389   3.602   3.431   6.544 -0.9307  2.4557 -1.4130
  141OSM    C1315390   3.458   3.543   6.343  0.0542  0.2805  0.8724
  141OSM   H13A15391   3.545   3.595   6.379  2.0842 -1.9487 -0.6629
  141OSM   H13B15392   3.374   3.589   6.393 -0.4541  0.4193 -0.0910
  141OSM   H13C15393   3.457   3.563   6.236 -1.7363 -0.2858  0.7666
  141OSM    C1215394   3.344   3.329   6.336  0.0404  0.0344  0.1770
  141OSM   H12A15395   3.314   3.334   6.232  0.2737 -0.9982  0.0524
  141OSM   H12B15396   3.263   3.379   6.387  0.6361 -0.2402  1.4170
  141OSM    C1115397   3.320   3.185   6.369  0.0529 -0.1941 -0.0147
  141OSM   H11A15398   3.218   3.156   6.335 -0.0236  0.4080 -0.2994
  141OSM   H11B15399   3.319   3.175   6.480 -0.8186 -1.1148 -0.0889
  141OSM      P15400   3.420   3.014   6.197  0.0192  0.5478 -0.0107
  141OSM    O1315401   3.359   3.084   6.081  0.0665 -0.5412 -0.1191
  141OSM    O1415402   3.548   2.946   6.175 -0.4600 -0.1971  0.2478
  141OSM    O1115403   3.323   2.901   6.248 -0.2585  0.1722  0.2280
  141OSM    O1215404   3.430   3.106   6.323 -0.3565  1.1124  0.1820
  141OSM    C1S15405   3.343   2.815   6.355  0.0167  0.9374 -0.2777
  141OSM    H1S15406   3.445   2.831   6.397  1.1258 -1.9241 -1.7200
  141OSM    H1T15407   3.339   2.710   6.319  1.7557 -0.2494  2.7266
  141OSM     NF15408   3.272   2.773   6.582 -0.2483 -0.8795 -0.2979
  141OSM    HNF15409   3.225   2.686   6.595 -0.9392 -0.8038 -2.0904
  141OSM    C2S15410   3.239   2.836   6.456 -0.0398 -0.6676  0.3478
  141OSM    H2S15411   3.245   2.946   6.469  1.9798 -0.5180 -1.5604
  141OSM    C3S15412   3.097   2.796   6.394 -0.1084 -0.0266 -0.1601
  141OSM    H3S15413   3.102   2.686   6.378  0.3879 -0.2021  1.1084
  141OSM     O315414   3.051   2.868   6.279  0.3562  0.0848  0.3386
  141OSM    HO315415   3.110   2.944   6.279  1.2304 -0.5589  3.0813
  141OSM    C4S15416   2.996   2.816   6.507  0.0839 -0.3248  0.4468
  141OSM    H4S15417   2.969   2.717   6.547 -2.9980 -1.4014 -3.9334
  141OSM    C5S15418   2.936   2.925   6.561 -0.3193 -0.5347  0.2119
  141OSM    H5S15419   2.958   3.026   6.523 -2.2577  0.3049  1.2465
  141OSM    C6S15420   2.831   2.923   6.677 -0.1144  0.1836 -0.2003
  141OSM    H6S15421   2.727   2.923   6.637 -0.1461  1.3651 -0.1537
  141OSM    H6T15422   2.844   3.003   6.753 -1.1429 -2.2718  2.6231
  141OSM    C7S15423   2.842   2.793   6.758  0.0510  0.3043  0.3280
  141OSM    H7S15424   2.944   2.759   6.785  0.1811 -0.7668 -1.4729
  141OSM    H7T15425   2.806   2.717   6.686 -0.6636  0.8275  0.1297
  141OSM    C8S15426   2.746   2.781   6.884  0.3934 -0.3537  0.3185
  141OSM    H8S15427   2.745   2.672   6.903 -0.1699 -0.3378  0.3838
  141OSM    H8T15428   2.639   2.805   6.864  0.8764  1.5601 -0.1036
  141OSM    C9S15429   2.818   2.854   6.996 -0.5134  0.5857  0.5820
  141OSM    H9S15430   2.830   2.965   6.990  0.0064  0.5392  0.7019
  141OSM    H9T15431   2.922   2.814   6.998 -0.4140  0.5581 -3.0391
  141OSM   C10S15432   2.759   2.832   7.143 -0.7073  0.0150  0.1149
  141OSM   H10S15433   2.759   2.722   7.158 -2.2180 -0.0029  0.0599
  141OSM   H10T15434   2.655   2.871   7.143  0.3486  2.9144  0.4951
  141OSM   C11S15435   2.838   2.896   7.256  0.7911 -0.5853  0.2312
  141OSM   H11S15436   2.832   3.005   7.237 -0.4009 -1.1271 -2.7993
  141OSM   H11T15437   2.943   2.860   7.267  0.3592 -2.9037 -2.6078
  141OSM   C12S15438   2.763   2.872   7.386 -0.1014 -0.3043  0.5650
  141OSM   H12S15439   2.768   2.767   7.419 -0.3245  0.0511  1.7435
  141OSM   H12T15440   2.654   2.878   7.364  0.3998 -1.3628 -2.4463
  141OSM   C13S15441   2.800   2.964   7.502 -0.6672 -0.2311  0.5956
  141OSM   H13S15442   2.807   3.069   7.466 -3.4352 -0.2488 -0.1001
  141OSM   H13T15443   2.897   2.935   7.548 -0.7696  0.8260  1.5094
  141OSM   C14S15444   2.717   2.951   7.626 -0.3328  0.3781 -0.6607
  141OSM   H14S15445   2.698   2.847   7.660  0.0349  0.5123 -0.0394
  141OSM   H14T15446   2.618   2.996   7.607 -0.6790  0.4850  1.2799
  141OSM   C15S15447   2.778   3.020   7.742 -0.4848 -0.2119  0.0113
  141OSM   H15S15448   2.776   3.123   7.701 -0.3837  0.6735  2.1854
  141OSM   H15T15449   2.878   2.975   7.763 -1.3187 -0.9816  2.4397
  141OSM   C16S15450   2.693   3.011   7.865  0.1932  1.0132  0.1242
  141OSM   H16S15451   2.678   2.904   7.890  3.4117  0.5286  0.2564
  141OSM   H16T15452   2.597   3.064   7.850 -1.9472 -2.4520  1.0097
  141OSM   C17S15453   2.764   3.068   7.985  0.2761  0.3469  0.3376
  141OSM   H17S15454   2.818   3.163   7.962  2.4039 -0.9736 -0.3262
  141OSM   H17T15455   2.854   3.007   8.009  0.8316  0.9864 -0.0621
  141OSM   C18S15456   2.666   3.074   8.103  0.3262  0.0537  0.3458
  141OSM   H18S15457   2.618   2.974   8.101  1.6237 -0.5815 -0.0967
  141OSM   H18T15458   2.589   3.150   8.082  0.4800  0.0015 -0.4167
  141OSM   H18U15459   2.721   3.091   8.199  0.4007  1.8137  0.0000
  141OSM    C1F15460   3.375   2.796   6.659  0.5146 -0.6491 -0.1351
  141OSM     OF15461   3.449   2.894   6.641  0.6448  0.6342 -0.7268
  141OSM    C2F15462   3.402   2.701   6.773  0.0365  0.5142  0.4026
  141OSM    H2F15463   3.393   2.599   6.730  1.7083  0.7657 -0.6160
  141OSM    H2G15464   3.320   2.702   6.848  0.6818 -0.4942  1.1358
  141OSM    C3F15465   3.541   2.731   6.844 -0.2565 -0.1278 -0.5105
  141OSM    H3F15466   3.618   2.770   6.773  0.0311  0.5173  0.1510
  141OSM    H3G15467   3.580   2.631   6.876  1.2482  1.2505  2.1620
  141OSM    C4F15468   3.538   2.822   6.965 -0.8675 -0.1186  0.2674
  141OSM    H4F15469   3.475   2.762   7.034  0.7630 -0.0551  1.8458
  141OSM    H4G15470   3.484   2.907   6.919 -2.4931 -1.6978 -0.8153
  141OSM    C5F15471   3.672   2.868   7.028 -0.1822  0.3049  0.7239
  141OSM    H5F15472   3.746   2.881   6.946 -2.2267  0.3998 -1.1786
  141OSM    H5G15473   3.718   2.782   7.082  1.1170  0.2477 -0.4318
  141OSM    C6F15474   3.661   2.989   7.121  0.6296  0.1585  0.0786
  141OSM    H6F15475   3.594   3.061   7.069 -1.1770 -1.6441 -0.1276
  141OSM    H6G15476   3.755   3.042   7.150  1.0749 -1.2903  1.3193
  141OSM    C7F15477   3.600   2.958   7.260  0.2178 -0.3676  0.6164
  141OSM    H7F15478   3.647   2.878   7.322  1.7858  0.5292  0.6064
  141OSM    H7G15479   3.499   2.922   7.233  1.7212 -1.4146 -4.3061
  141OSM    C8F15480   3.573   3.090   7.337 -0.4484  0.0834 -0.1380
  141OSM    H8F15481   3.493   3.067   7.411 -0.9056 -0.7155 -0.8694
  141OSM    H8G15482   3.534   3.165   7.265 -0.1319 -0.9184 -1.3625
  141OSM    C9F15483   3.692   3.140   7.409 -1.1955 -0.3056 -0.3993
  141OSM    H9F15484   3.780   3.149   7.344 -1.6991  0.0017 -1.0415
  141OSM   C10F15485   3.696   3.169   7.540 -1.0489  0.5370  0.1616
  141OSM   H10F15486   3.791   3.207   7.581 -1.9638 -0.4732  3.3362
  141OSM   C11F15487   3.585   3.154   7.643 -0.0334  0.2151  0.1428
  141OSM   H11F15488   3.497   3.091   7.616  1.1653 -2.4088  2.1352
  141OSM   H11G15489   3.549   3.255   7.674 -1.1945 -0.3665  0.7270
  141OSM   C12F15490   3.633   3.087   7.773 -0.6800 -0.4490  0.5011
  141OSM   H12F15491   3.734   3.124   7.803  0.6791 -1.4864 -2.5192
  141OSM   H12G15492   3.628   2.978   7.755 -1.6035 -0.0606 -1.7384
  141OSM   C13F15493   3.543   3.114   7.892  0.4276  0.0751  0.1811
  141OSM   H13F15494   3.444   3.065   7.873  0.0303  0.7500  0.4911
  141OSM   H13G15495   3.510   3.220   7.891  2.2197  0.6550 -2.8934
  141OSM   C14F15496   3.613   3.073   8.019 -0.3604  0.1070  0.1991
  141OSM   H14F15497   3.704   3.134   8.037 -0.2541  0.0127 -0.0198
  141OSM   H14G15498   3.655   2.972   8.002 -2.4500 -1.2650  2.7416
  141OSM   C15F15499   3.534   3.087   8.149  0.1615  0.6487  0.2546
  141OSM   H15F15500   3.440   3.029   8.134  0.1854  0.4195  0.9493
  141OSM   H15G15501   3.525   3.196   8.168 -0.0478  0.8610 -1.0115
  141OSM   C16F15502   3.614   3.020   8.260 -0.2918 -0.5004 -0.3616
  141OSM   H16F15503   3.650   2.917   8.240  1.4519  0.2240 -1.0743
  141OSM   H16G15504   3.558   3.019   8.355 -0.8628 -1.5759 -0.6990
  141OSM   C17F15505   3.750   3.097   8.304 -0.2811 -0.0809 -0.3214
  141OSM   H17F15506   3.710   3.198   8.323  3.0568  1.1182  0.7679
  141OSM   H17G15507   3.819   3.101   8.216  0.6032 -0.9760  0.3183
  141OSM   C18F15508   3.822   3.042   8.423  0.5797 -0.3827 -0.6648
  141OSM   H18F15509   3.851   2.937   8.403 -0.2919 -0.9861  1.1957
  141OSM   H18G15510   3.781   3.055   8.525 -0.6110  1.2697 -1.3297
  141OSM   H18H15511   3.916   3.102   8.434  0.0465  0.7474 -1.9981
  142OSM      N15512   3.799   4.542   6.154 -0.1380  0.1848 -0.0089
  142OSM    C1515513   3.821   4.689   6.132 -0.0891  0.0143  0.1921
  142OSM   H15A15514   3.911   4.727   6.177  0.0113  0.3780 -0.3078
  142OSM   H15B15515   3.738   4.741   6.178 -0.5367  0.6913 -1.3367
  142OSM   H15C15516   3.820   4.722   6.029  1.2374 -1.4299 -0.3057
  142OSM    C1415517   3.673   4.491   6.083 -0.2895  0.1744  0.0403
  142OSM   H14A15518   3.670   4.385   6.100 -0.4828 -0.0882 -1.5621
  142OSM   H14B15519   3.674   4.510   5.977 -0.7049  0.0011  0.0044
  142OSM   H14C15520   3.581   4.540   6.113  0.4723  0.4704  1.9649
  142OSM    C1315521   3.922   4.471   6.101 -0.1517 -0.0674  0.7430
  142OSM   H13A15522   4.003   4.494   6.168  0.9536  0.0730 -0.6193
  142OSM   H13B15523   3.950   4.505   6.002  1.1092  0.0192  1.1183
  142OSM   H13C15524   3.904   4.365   6.106 -0.8960  0.0035 -0.2271
  142OSM    C1215525   3.803   4.514   6.309 -0.2490  1.0518 -0.3043
  142OSM   H12A15526   3.888   4.551   6.363  0.8471 -1.6568 -0.1187
  142OSM   H12B15527   3.816   4.407   6.317 -0.7189  0.8564 -1.9231
  142OSM    C1115528   3.672   4.555   6.391 -0.1984 -0.5763  0.2663
  142OSM   H11A15529   3.688   4.514   6.493 -0.9132 -0.7308  0.3159
  142OSM   H11B15530   3.594   4.501   6.333 -0.0614 -0.9553  0.4343
  142OSM      P15531   3.509   4.740   6.458  0.6085  0.7231 -0.1636
  142OSM    O1315532   3.470   4.873   6.406 -0.0426  0.5637 -0.1639
  142OSM    O1415533   3.408   4.635   6.441  0.5421 -0.1726 -0.3894
  142OSM    O1115534   3.530   4.753   6.612  0.1799 -0.2422  0.1927
  142OSM    O1215535   3.652   4.697   6.399  0.2348  0.3553  0.6731
  142OSM    C1S15536   3.628   4.834   6.673 -0.5824  0.4730  0.1822
  142OSM    H1S15537   3.636   4.933   6.622 -1.8851 -0.1353 -1.2426
  142OSM    H1T15538   3.728   4.787   6.660  0.6403  3.4903 -2.0284
  142OSM     NF15539   3.686   4.940   6.888 -0.3419  0.3247  0.2399
  142OSM    HNF15540   3.735   4.893   6.961 -0.7507  1.3430  1.1777
  142OSM    C2S15541   3.589   4.861   6.820  0.9114 -0.3947  0.2838
  142OSM    H2S15542   3.492   4.914   6.825  1.9011  1.2793  2.5211
  142OSM    C3S15543   3.559   4.727   6.899  0.4780 -0.2197 -0.3801
  142OSM    H3S15544   3.647   4.663   6.879 -0.1047 -0.7105 -1.4214
  142OSM     O315545   3.455   4.644   6.856  0.0889  0.3503 -0.3286
  142OSM    HO315546   3.464   4.658   6.762  1.2178  1.4434 -0.0609
  142OSM    C4S15547   3.538   4.758   7.051 -0.6713  0.0311  0.3402
  142OSM    H4S15548   3.466   4.832   7.087 -0.8020 -0.0671  0.2798
  142OSM    C5S15549   3.624   4.718   7.147  0.2265  0.2445 -0.3425
  142OSM    H5S15550   3.706   4.650   7.120 -1.7697 -1.5162 -2.1162
  142OSM    C6S15551   3.614   4.762   7.292  0.1223 -0.2390  0.5323
  142OSM    H6S15552   3.519   4.813   7.317 -0.1068 -1.3194  1.9709
  142OSM    H6T15553   3.702   4.822   7.325  0.0737  0.0681  0.0995
  142OSM    C7S15554   3.621   4.637   7.386 -0.7148 -0.0663 -0.0684
  142OSM    H7S15555   3.694   4.562   7.350 -0.8209  0.1401 -0.7217
  142OSM    H7T15556   3.522   4.587   7.391 -0.2154 -1.2398 -1.5566
  142OSM    C8S15557   3.656   4.677   7.527  0.3431 -0.6480 -0.7988
  142OSM    H8S15558   3.615   4.602   7.597  0.4697  0.9413  1.0266
  142OSM    H8T15559   3.595   4.767   7.549 -1.5435 -1.7888 -1.2637
  142OSM    C9S15560   3.800   4.711   7.556  0.5898  0.1523  0.0486
  142OSM    H9S15561   3.822   4.812   7.515 -1.3408  0.9298  0.8500
  142OSM    H9T15562   3.875   4.643   7.511  0.1952  0.5316 -1.2099
  142OSM   C10S15563   3.834   4.713   7.710  0.0276 -0.6860 -0.1048
  142OSM   H10S15564   3.766   4.783   7.762  2.3230  0.3116  1.6634
  142OSM   H10T15565   3.938   4.748   7.731  0.2361 -0.3590 -1.6526
  142OSM   C11S15566   3.824   4.577   7.791  0.5041 -0.5798 -0.3305
  142OSM   H11S15567   3.897   4.505   7.747  1.1520 -0.1728  0.0664
  142OSM   H11T15568   3.721   4.536   7.796  0.0040  0.6720 -0.2281
  142OSM   C12S15569   3.848   4.602   7.938 -0.2656  0.1117  0.5357
  142OSM   H12S15570   3.761   4.627   8.002  0.1429  2.7646  0.1169
  142OSM   H12T15571   3.925   4.678   7.962 -0.9378  0.4152  1.7784
  142OSM   C13S15572   3.889   4.469   8.011  0.4288 -0.6458  0.0842
  142OSM   H13S15573   3.978   4.427   7.959  0.9875  0.1851  0.3408
  142OSM   H13T15574   3.812   4.391   7.997  0.4946 -0.6455 -0.2880
  142OSM   C14S15575   3.937   4.472   8.151 -0.6191  0.1310  0.7500
  142OSM   H14S15576   3.989   4.568   8.169 -0.4315  0.7375 -2.6345
  142OSM   H14T15577   4.005   4.389   8.178  0.1126  1.0065  1.6238
  142OSM   C15S15578   3.825   4.464   8.254  0.1484  0.1375 -0.0300
  142OSM   H15S15579   3.774   4.366   8.241 -1.6498  0.7570  2.1082
  142OSM   H15T15580   3.760   4.553   8.240  1.0355  0.3537 -3.4260
  142OSM   C16S15581   3.879   4.480   8.394  0.2148  0.2217  0.2077
  142OSM   H16S15582   3.932   4.574   8.419  0.1488  0.1352  0.6780
  142OSM   H16T15583   3.949   4.395   8.409 -1.0172 -1.0051 -0.8010
  142OSM   C17S15584   3.765   4.452   8.487  0.2383 -0.3528  0.3793
  142OSM   H17S15585   3.715   4.355   8.466 -0.7369  0.3569 -0.6685
  142OSM   H17T15586   3.697   4.537   8.464  1.8567  1.2186  1.2359
  142OSM   C18S15587   3.812   4.476   8.631 -0.2254  0.0124 -0.1779
  142OSM   H18S15588   3.728   4.505   8.697  0.5496  1.0808  0.3563
  142OSM   H18T15589   3.877   4.565   8.641  0.9993 -1.0970  2.0673
  142OSM   H18U15590   3.857   4.386   8.680 -1.8625  0.7532  2.7621
  142OSM    C1F15591   3.715   5.065   6.854  0.1543 -0.4672  0.6578
  142OSM     OF15592   3.662   5.120   6.754 -0.2029 -0.4187  0.1017
  142OSM    C2F15593   3.815   5.137   6.942 -0.1317 -0.4570 -0.1642
  142OSM    H2F15594   3.903   5.140   6.873 -1.2219  0.4770 -1.5383
  142OSM    H2G15595   3.838   5.068   7.026  1.4274 -0.3079 -0.4448
  142OSM    C3F15596   3.771   5.274   6.991 -0.1163 -0.0403  0.6288
  142OSM    H3F15597   3.745   5.343   6.908 -1.0694 -0.3761  0.6393
  142OSM    H3G15598   3.853   5.317   7.051 -0.6688  1.5761  0.2651
  142OSM    C4F15599   3.651   5.284   7.087  0.8039  0.0468 -0.3306
  142OSM    H4F15600   3.568   5.222   7.045  1.6089 -1.0189 -0.3609
  142OSM    H4G15601   3.624   5.391   7.096  2.0240  0.3310 -0.0430
  142OSM    C5F15602   3.684   5.236   7.220  0.6019  0.3400 -0.4219
  142OSM    H5F15603   3.778   5.284   7.256 -0.3573  1.5392  0.5424
  142OSM    H5G15604   3.702   5.127   7.213 -1.1793  0.0705 -0.9658
  142OSM    C6F15605   3.567   5.254   7.317 -0.3438 -0.3490 -0.4236
  142OSM    H6F15606   3.564   5.168   7.387 -2.7762 -0.6984 -0.9185
  142OSM    H6G15607   3.471   5.240   7.264 -1.0427  0.6434  0.5412
  142OSM    C7F15608   3.576   5.389   7.389 -0.3802 -0.3881 -0.5835
  142OSM    H7F15609   3.574   5.461   7.305  2.2732  1.8253  1.1513
  142OSM    H7G15610   3.674   5.391   7.442 -2.0450 -0.0499  2.6561
  142OSM    C8F15611   3.470   5.413   7.494 -0.2742  0.1843 -0.4758
  142OSM    H8F15612   3.481   5.345   7.581 -2.6797  1.2570  0.7226
  142OSM    H8G15613   3.368   5.394   7.455 -0.5152 -0.3885  0.4289
  142OSM    C9F15614   3.483   5.557   7.539  0.7576 -0.3559  0.0642
  142OSM    H9F15615   3.448   5.633   7.468 -1.1693 -1.1378  0.1254
  142OSM   C10F15616   3.523   5.587   7.658  0.2704  0.6276 -0.0396
  142OSM   H10F15617   3.516   5.692   7.691 -0.2710  0.4683  0.3421
  142OSM   C11F15618   3.569   5.498   7.770 -0.1013  0.5982 -0.1435
  142OSM   H11F15619   3.626   5.411   7.731 -0.7305  0.4616 -0.7735
  142OSM   H11G15620   3.488   5.463   7.837  0.6543 -0.8797  0.0247
  142OSM   C12F15621   3.655   5.579   7.872  0.1190  0.0794 -0.5713
  142OSM   H12F15622   3.615   5.682   7.888  1.1228  0.9866 -3.4547
  142OSM   H12G15623   3.759   5.604   7.840  0.0547 -0.0079 -0.8469
  142OSM   C13F15624   3.676   5.500   8.000 -0.1629 -0.2691  0.0180
  142OSM   H13F15625   3.742   5.414   7.976 -0.6141 -0.5340 -0.2793
  142OSM   H13G15626   3.577   5.457   8.026 -1.0123  1.5205 -0.1730
  142OSM   C14F15627   3.729   5.576   8.121 -0.8628 -0.0802  0.1417
  142OSM   H14F15628   3.643   5.629   8.167 -2.1038 -0.2599 -1.9195
  142OSM   H14G15629   3.802   5.646   8.077 -1.1743  0.4885  0.5220
  142OSM   C15F15630   3.806   5.494   8.234  0.1744  0.1477 -0.0077
  142OSM   H15F15631   3.822   5.571   8.313 -1.6937  0.0302  0.5049
  142OSM   H15G15632   3.899   5.455   8.187 -0.2615  0.7905 -1.4292
  142OSM   C16F15633   3.720   5.376   8.297  0.7937 -0.3248  0.5392
  142OSM   H16F15634   3.717   5.315   8.204 -0.4559  2.2551 -1.1671
  142OSM   H16G15635   3.620   5.413   8.329  0.9988 -0.3726  1.2580
  142OSM   C17F15636   3.783   5.297   8.413  0.1192 -0.8962  0.0978
  142OSM   H17F15637   3.866   5.241   8.366 -0.6943 -1.3291 -0.8430
  142OSM   H17G15638   3.714   5.232   8.470 -2.3799  2.8907  1.5843
  142OSM   C18F15639   3.855   5.376   8.527  0.2187  0.8232 -0.8126
  142OSM   H18F15640   3.908   5.307   8.596 -1.2970  0.7284  0.2899
  142OSM   H18G15641   3.788   5.443   8.586  0.3106 -0.3237  0.6190
  142OSM   H18H15642   3.927   5.440   8.471  0.9120  0.5766 -0.2053
  143OSM      N15643   3.947   0.138   5.933  0.0954 -0.2577 -0.2458
  143OSM    C1515644   3.865   0.053   5.843  0.3263 -0.0428  0.1229
  143OSM   H15A15645   3.921  -0.032   5.806 -0.6359 -1.7666  2.4782
  143OSM   H15B15646   3.827   0.109   5.760  0.7116  0.8531  0.5434
  143OSM   H15C15647   3.775   0.017   5.891 -1.1819  0.2806 -2.4229
  143OSM    C1415648   4.053   0.191   5.843  0.0849 -0.4249  0.0098
  143OSM   H14A15649   4.130   0.242   5.900 -1.5797  1.3693  0.7281
  143OSM   H14B15650   4.006   0.260   5.773  1.8422  0.7631 -0.0302
  143OSM   H14C15651   4.089   0.110   5.781 -1.8176 -0.8936 -0.5095
  143OSM    C1315652   3.865   0.259   5.968  0.4477 -1.1458 -0.1703
  143OSM   H13A15653   3.920   0.335   6.022  0.5689 -1.8633  0.7446
  143OSM   H13B15654   3.783   0.234   6.035  0.0413 -0.4488 -0.4039
  143OSM   H13C15655   3.830   0.302   5.876  0.5603  1.6506  1.0293
  143OSM    C1215656   4.007   0.065   6.053 -0.1088  0.3219 -0.1286
  143OSM   H12A15657   4.066  -0.013   6.006 -0.1521  1.0129 -1.3385
  143OSM   H12B15658   3.927   0.028   6.116 -0.1339  0.6231  0.0142
  143OSM    C1115659   4.095   0.151   6.138  0.0430 -0.6019 -0.2212
  143OSM   H11A15660   4.094   0.113   6.242  0.0108  2.4452  0.9606
  143OSM   H11B15661   4.057   0.254   6.157 -0.5614 -0.7973 -0.3613
  143OSM      P15662   4.325   0.047   6.074  0.1718  0.0403  0.4754
  143OSM    O1315663   4.254  -0.073   6.015  0.5120 -0.2440 -0.3867
  143OSM    O1415664   4.442   0.098   6.004 -0.0941 -0.5242 -0.2083
  143OSM    O1115665   4.365   0.008   6.220  0.2446  0.3635  0.2572
  143OSM    O1215666   4.223   0.166   6.085 -0.3589  0.4442 -0.6705
  143OSM    C1S15667   4.383   0.097   6.329 -0.0515 -0.7014  0.1386
  143OSM    H1S15668   4.342   0.198   6.310  2.1185  0.5080  1.7122
  143OSM    H1T15669   4.485   0.099   6.372 -1.2220  2.7672  2.9712
  143OSM     NF15670   4.298   0.159   6.553  0.7151  0.2673  0.1767
  143OSM    HNF15671   4.364   0.140   6.625 -0.4524 -0.8424  0.9774
  143OSM    C2S15672   4.296   0.049   6.452 -0.8896  0.8493 -0.0928
  143OSM    H2S15673   4.191   0.039   6.416 -0.4644 -1.8480 -0.6579
  143OSM    C3S15674   4.339  -0.090   6.510  0.8019 -0.0413 -0.8418
  143OSM    H3S15675   4.439  -0.088   6.559  1.1626 -3.0467 -1.3296
  143OSM     O315676   4.342  -0.191   6.410  0.1363 -0.2347  0.1183
  143OSM    HO315677   4.359  -0.133   6.335  2.3747  0.4413  1.1097
  143OSM    C4S15678   4.248  -0.121   6.627  0.1462 -0.4192  0.0916
  143OSM    H4S15679   4.143  -0.143   6.604  0.5149 -0.1523 -1.8889
  143OSM    C5S15680   4.279  -0.111   6.761 -0.0201 -0.1279  0.2479
  143OSM    H5S15681   4.378  -0.069   6.785  1.4104 -2.7022 -0.9335
  143OSM    C6S15682   4.187  -0.131   6.876 -0.0329  0.0642  0.1909
  143OSM    H6S15683   4.239  -0.101   6.969 -1.0313 -1.0603  1.1306
  143OSM    H6T15684   4.157  -0.237   6.885  0.3076 -0.2645 -2.1008
  143OSM    C7S15685   4.070  -0.035   6.866  0.3917 -0.2021 -0.1582
  143OSM    H7S15686   4.012  -0.048   6.773  2.1255 -0.3792 -1.2316
  143OSM    H7T15687   4.105   0.069   6.849 -0.8631  0.1239 -0.7468
  143OSM    C8S15688   3.973  -0.010   6.983  0.2533 -0.0100  0.3158
  143OSM    H8S15689   3.920  -0.102   7.018 -0.9721  1.7592  3.2433
  143OSM    H8T15690   3.895   0.056   6.940 -0.3425 -0.2407  1.0366
  143OSM    C9S15691   4.020   0.069   7.101 -0.4113 -0.1729  0.3400
  143OSM    H9S15692   3.926   0.110   7.143 -0.7968 -2.3810  1.7380
  143OSM    H9T15693   4.079   0.154   7.061 -0.9498  0.4540  0.8646
  143OSM   C10S15694   4.093  -0.007   7.220  1.1290  0.1284  0.5879
  143OSM   H10S15695   4.172  -0.070   7.174  0.0375 -0.7594 -0.0880
  143OSM   H10T15696   4.018  -0.077   7.261 -0.2328  0.2093 -1.7115
  143OSM   C11S15697   4.142   0.092   7.322 -0.1651 -0.0700 -0.3462
  143OSM   H11S15698   4.064   0.164   7.357  0.3602 -0.6563  2.1320
  143OSM   H11T15699   4.220   0.150   7.268  0.1043 -1.2307 -1.1995
  143OSM   C12S15700   4.205   0.028   7.453  0.5009  0.7861 -0.1436
  143OSM   H12S15701   4.305  -0.008   7.423 -0.3646  0.0353 -2.2413
  143OSM   H12T15702   4.143  -0.063   7.472  0.6425  0.1571 -2.4634
  143OSM   C13S15703   4.197   0.130   7.566  0.2633 -0.1672 -0.0801
  143OSM   H13S15704   4.087   0.128   7.581  0.3123  1.7211  0.6490
  143OSM   H13T15705   4.227   0.236   7.551 -0.1083 -0.0787 -0.1912
  143OSM   C14S15706   4.251   0.079   7.687  0.4753 -0.8004  0.9203
  143OSM   H14S15707   4.361   0.064   7.684  0.4986 -0.6561  1.0627
  143OSM   H14T15708   4.210  -0.024   7.692  3.6801 -2.0855  1.5316
  143OSM   C15S15709   4.202   0.145   7.817 -0.7493  0.3545  0.4205
  143OSM   H15S15710   4.104   0.103   7.849  0.0816 -2.6450 -0.7806
  143OSM   H15T15711   4.183   0.253   7.799 -0.2925  0.3970  0.1998
  143OSM   C16S15712   4.304   0.134   7.926 -0.6605  0.5959  0.6971
  143OSM   H16S15713   4.403   0.173   7.893 -0.0389 -1.3811  0.1352
  143OSM   H16T15714   4.322   0.026   7.948 -4.3370 -0.5246 -1.2610
  143OSM   C17S15715   4.263   0.208   8.052  0.4418 -0.3979  0.1958
  143OSM   H17S15716   4.159   0.186   8.083  0.4811 -1.2249 -0.2583
  143OSM   H17T15717   4.267   0.316   8.025  0.4842 -0.6406 -0.7894
  143OSM   C18S15718   4.359   0.185   8.169  0.3682 -0.3682 -0.2480
  143OSM   H18S15719   4.363   0.077   8.193 -4.4857  0.1060  3.3204
  143OSM   H18T15720   4.321   0.230   8.263  0.2923  1.0101 -0.9217
  143OSM   H18U15721   4.460   0.219   8.138 -0.6854  1.0127 -2.2783
  143OSM    C1F15722   4.239   0.277   6.539  0.0462  1.1096 -0.7644
  143OSM     OF15723   4.155   0.296   6.453  0.0004 -0.6689 -0.1935
  143OSM    C2F15724   4.261   0.374   6.650 -0.4567  0.3342  0.1160
  143OSM    H2F15725   4.346   0.439   6.620 -0.1029 -0.5399 -0.8444
  143OSM    H2G15726   4.282   0.318   6.743  1.0176 -2.8985 -2.0410
  143OSM    C3F15727   4.126   0.451   6.672 -0.8408 -0.8182 -0.0108
  143OSM    H3F15728   4.035   0.387   6.680 -0.9931 -0.5399  0.5000
  143OSM    H3G15729   4.112   0.515   6.583  0.3942  0.1487  0.4736
  143OSM    C4F15730   4.138   0.541   6.795  0.0727  1.2712 -0.9480
  143OSM    H4F15731   4.042   0.597   6.806 -1.3712 -1.1546 -0.8714
  143OSM    H4G15732   4.222   0.612   6.779  2.5003 -1.5411 -1.0287
  143OSM    C5F15733   4.158   0.460   6.928  0.3473  0.0980  0.1738
  143OSM    H5F15734   4.258   0.413   6.936 -0.0280 -0.6578  0.5323
  143OSM    H5G15735   4.082   0.379   6.925  0.1194  0.3469 -0.9919
  143OSM    C6F15736   4.149   0.546   7.064  0.6352 -0.0501 -0.1085
  143OSM    H6F15737   4.056   0.605   7.056  1.4607  0.9371 -2.9915
  143OSM    H6G15738   4.245   0.601   7.064 -0.6456  2.2782  1.8190
  143OSM    C7F15739   4.134   0.451   7.175  0.0965  0.0071 -0.7417
  143OSM    H7F15740   4.221   0.383   7.183 -0.8883 -1.0425  1.5506
  143OSM    H7G15741   4.042   0.394   7.151 -0.2911  0.2507  0.1164
  143OSM    C8F15742   4.106   0.521   7.314 -0.2694 -0.2607 -0.2692
  143OSM    H8F15743   4.061   0.439   7.374 -0.3549 -2.1277 -2.8126
  143OSM    H8G15744   4.032   0.603   7.298 -1.1778 -1.0228  0.0174
  143OSM    C9F15745   4.219   0.580   7.387  0.2418 -0.5926 -0.0219
  143OSM    H9F15746   4.282   0.642   7.322  1.0698 -0.7843  0.5825
  143OSM   C10F15747   4.246   0.566   7.519  0.7084 -0.6243  0.2401
  143OSM   H10F15748   4.328   0.620   7.568 -1.7874  3.1441  0.4502
  143OSM   C11F15749   4.170   0.495   7.628 -0.4214  0.0772 -1.1016
  143OSM   H11F15750   4.238   0.421   7.674 -3.0127 -0.0479  2.8414
  143OSM   H11G15751   4.095   0.431   7.578 -1.6387  0.4308  0.2253
  143OSM   C12F15752   4.118   0.565   7.762 -0.0305 -0.6575  0.1958
  143OSM   H12F15753   4.032   0.516   7.812 -2.2222  0.6059 -2.1606
  143OSM   H12G15754   4.084   0.666   7.730 -2.8967 -1.2850  1.0769
  143OSM   C13F15755   4.228   0.586   7.858  0.4490 -0.2222 -0.7077
  143OSM   H13F15756   4.291   0.668   7.818 -2.0343  2.1555  0.1134
  143OSM   H13G15757   4.295   0.497   7.861  0.6075 -0.0827 -0.2097
  143OSM   C14F15758   4.186   0.633   7.997  1.0453 -0.0874  0.2893
  143OSM   H14F15759   4.115   0.558   8.038  1.2997  0.0777  1.0390
  143OSM   H14G15760   4.143   0.735   8.004 -1.8956 -1.2449 -0.1616
  143OSM   C15F15761   4.307   0.624   8.097  0.0316  0.0618  0.1213
  143OSM   H15F15762   4.385   0.701   8.077 -0.7197  0.1902 -2.5403
  143OSM   H15G15763   4.354   0.524   8.085  1.2463  0.7436 -0.9986
  143OSM   C16F15764   4.258   0.630   8.239 -0.1339  0.1495 -0.5650
  143OSM   H16F15765   4.193   0.542   8.256  1.4575 -0.8409  0.6153
  143OSM   H16G15766   4.204   0.724   8.261  0.3257  0.3324 -0.1863
  143OSM   C17F15767   4.379   0.613   8.338  0.2244  0.7022 -0.4851
  143OSM   H17F15768   4.456   0.691   8.317  0.3858  0.9224  0.8473
  143OSM   H17G15769   4.410   0.508   8.319 -0.9868  0.5862 -1.8130
  143OSM   C18F15770   4.338   0.643   8.487 -0.3839 -0.1635  0.5792
  143OSM   H18F15771   4.313   0.751   8.492 -1.5081 -0.4438  1.1966
  143OSM   H18G15772   4.425   0.623   8.553  0.2432 -0.2964 -0.2823
  143OSM   H18H15773   4.251   0.582   8.517 -1.6096  1.3705  0.1902
  144OSM      N15774   2.701   0.056   6.067 -0.3711  0.1897  0.3089
  144OSM    C1515775   2.671  -0.061   6.150 -0.2726 -0.4562  0.5428
  144OSM   H15A15776   2.573  -0.103   6.132 -0.6418  0.7852 -0.5094
  144OSM   H15B15777   2.675  -0.043   6.256  1.3030 -0.7753  0.5516
  144OSM   H15C15778   2.733  -0.143   6.119  1.0243  0.6683  0.1080
  144OSM    C1415779   2.648   0.041   5.927 -0.0381 -0.4973 -0.6766
  144OSM   H14A15780   2.540   0.036   5.915 -0.0539 -1.3748 -0.2018
  144OSM   H14B15781   2.689  -0.048   5.884  1.4530 -0.6968  1.0966
  144OSM   H14C15782   2.672   0.127   5.866  0.1229  0.1448  0.2715
  144OSM    C1315783   2.627   0.177   6.125 -0.1439 -0.2957  0.1660
  144OSM   H13A15784   2.672   0.271   6.099 -0.5957  0.0899  0.7732
  144OSM   H13B15785   2.616   0.174   6.233  1.3101  0.0827  0.3241
  144OSM   H13C15786   2.525   0.183   6.090 -0.8336 -0.5255  2.0822
  144OSM    C1215787   2.848   0.081   6.053  0.1949  0.1616 -0.2253
  144OSM   H12A15788   2.869   0.181   6.018  1.0027  0.6552  1.6037
  144OSM   H12B15789   2.891   0.016   5.979 -1.4082 -1.6155  0.3443
  144OSM    C1115790   2.933   0.069   6.186  0.6757  0.4259  0.4222
  144OSM   H11A15791   2.869   0.121   6.260  3.2068 -0.3925  3.2725
  144OSM   H11B15792   3.028   0.127   6.175  0.0247  1.1612 -1.4714
  144OSM      P15793   3.056  -0.157   6.145 -0.0535 -0.2255  0.4180
  144OSM    O1315794   3.042  -0.297   6.193  0.0697 -0.1860  0.5257
  144OSM    O1415795   3.045  -0.124   6.001  0.2881 -0.3509 -0.3458
  144OSM    O1115796   3.196  -0.096   6.189  0.1426 -0.4252 -0.5633
  144OSM    O1215797   2.949  -0.067   6.223  0.4742  0.1886  0.5718
  144OSM    C1S15798   3.231  -0.069   6.327  0.1412  0.3981  0.6728
  144OSM    H1S15799   3.139  -0.056   6.388 -0.8795 -1.6351 -0.3675
  144OSM    H1T15800   3.296   0.020   6.337  0.9466  0.0323 -1.0983
  144OSM     NF15801   3.303  -0.171   6.545  0.4339 -0.2797  0.0632
  144OSM    HNF15802   3.389  -0.169   6.596 -0.3400  3.1591  1.3666
  144OSM    C2S15803   3.315  -0.186   6.402 -0.2728 -0.1502  0.3931
  144OSM    H2S15804   3.262  -0.278   6.368  3.4647 -1.9391 -0.9490
  144OSM    C3S15805   3.462  -0.195   6.344 -0.9671  0.3731 -0.0475
  144OSM    H3S15806   3.526  -0.108   6.368 -2.4220  0.7484  2.6893
  144OSM     O315807   3.467  -0.207   6.204  0.1661 -0.6602 -0.0680
  144OSM    HO315808   3.376  -0.210   6.175  0.7273  0.7388 -2.0975
  144OSM    C4S15809   3.528  -0.312   6.414  0.1340 -1.2321 -0.6146
  144OSM    H4S15810   3.479  -0.410   6.406 -0.2880 -1.1477  0.7455
  144OSM    C5S15811   3.646  -0.296   6.477 -0.0952  0.3697 -0.3787
  144OSM    H5S15812   3.686  -0.195   6.493 -0.4004  0.7269 -1.8529
  144OSM    C6S15813   3.732  -0.403   6.543 -0.0363  0.2994  0.0522
  144OSM    H6S15814   3.832  -0.398   6.494 -0.7059 -0.2325 -1.3970
  144OSM    H6T15815   3.699  -0.508   6.530  0.2520  0.4340 -1.8655
  144OSM    C7S15816   3.751  -0.376   6.691 -0.0635  0.6230 -0.0703
  144OSM    H7S15817   3.661  -0.386   6.755  0.7027  0.6626  1.0274
  144OSM    H7T15818   3.790  -0.272   6.703 -2.1429  1.5261 -0.9084
  144OSM    C8S15819   3.867  -0.469   6.750  0.5959  0.7085  0.0147
  144OSM    H8S15820   3.962  -0.448   6.696  0.8312 -0.2020  0.0704
  144OSM    H8T15821   3.840  -0.575   6.730  1.1611  0.8154 -1.4256
  144OSM    C9S15822   3.889  -0.438   6.891  0.5967  0.3871 -0.3213
  144OSM    H9S15823   3.791  -0.443   6.942  1.8884 -2.9265  1.9837
  144OSM    H9T15824   3.920  -0.332   6.903  2.3822 -0.2600  1.0715
  144OSM   C10S15825   3.996  -0.530   6.947 -0.7400  0.3435  0.1317
  144OSM   H10S15826   4.084  -0.516   6.881 -1.0970  2.2262  0.0435
  144OSM   H10T15827   3.977  -0.639   6.939 -0.0447  0.3484 -1.6962
  144OSM   C11S15828   4.047  -0.489   7.088  0.6621 -0.2996 -0.0948
  144OSM   H11S15829   4.032  -0.379   7.084 -0.2472 -0.4011  0.3569
  144OSM   H11T15830   4.153  -0.518   7.100  0.8345  0.9214  1.5627
  144OSM   C12S15831   3.960  -0.546   7.196  0.2884  0.6985  0.1460
  144OSM   H12S15832   3.944  -0.655   7.178  0.0087  0.3869  2.1652
  144OSM   H12T15833   3.857  -0.504   7.187 -0.7007 -0.9172  3.0849
  144OSM   C13S15834   4.026  -0.507   7.331  0.0784 -0.5488 -0.3378
  144OSM   H13S15835   4.022  -0.396   7.340  0.8279 -0.5166 -0.3338
  144OSM   H13T15836   4.133  -0.539   7.335  0.3229 -0.0509 -2.2223
  144OSM   C14S15837   3.953  -0.574   7.450 -0.6567  0.3043  0.5484
  144OSM   H14S15838   3.978  -0.681   7.431  3.0017  1.4740 -1.6764
  144OSM   H14T15839   3.845  -0.552   7.438 -0.3675  1.6425  0.3141
  144OSM   C15S15840   3.994  -0.532   7.594 -0.8849  0.0503  0.5324
  144OSM   H15S15841   3.928  -0.585   7.665  1.0318 -3.1555  0.0282
  144OSM   H15T15842   3.976  -0.423   7.584 -1.2659 -0.0168  0.4651
  144OSM   C16S15843   4.140  -0.566   7.624 -0.2296  0.2853 -0.4465
  144OSM   H16S15844   4.209  -0.542   7.541 -2.4694  2.1329 -1.8293
  144OSM   H16T15845   4.143  -0.673   7.653 -0.9907  0.3212 -0.2150
  144OSM   C17S15846   4.205  -0.489   7.745  0.0458 -0.3961 -0.2900
  144OSM   H17S15847   4.216  -0.387   7.702  2.6462 -1.9724 -3.5575
  144OSM   H17T15848   4.306  -0.524   7.772  0.8658  1.8465 -0.3168
  144OSM   C18S15849   4.119  -0.489   7.870 -0.5309 -0.2619 -0.2244
  144OSM   H18S15850   4.012  -0.475   7.842 -0.7601  1.7712  1.5706
  144OSM   H18T15851   4.151  -0.408   7.938 -0.3815 -0.0933 -0.4936
  144OSM   H18U15852   4.118  -0.579   7.934 -5.2522 -0.4916 -0.4124
  144OSM    C1F15853   3.186  -0.177   6.613 -0.1054 -0.4284 -0.6384
  144OSM     OF15854   3.090  -0.243   6.571  0.5876  0.2512  0.5211
  144OSM    C2F15855   3.182  -0.098   6.735 -0.0193  0.4255 -0.2696
  144OSM    H2F15856   3.142   0.003   6.711 -0.1444  0.6552  0.8737
  144OSM    H2G15857   3.283  -0.086   6.779  0.4426  1.0242 -1.4692
  144OSM    C3F15858   3.088  -0.161   6.846 -0.1715  0.4976 -0.0324
  144OSM    H3F15859   3.092  -0.272   6.842  1.7396  0.5891 -1.8512
  144OSM    H3G15860   2.986  -0.136   6.811 -0.3104 -1.5843 -1.2253
  144OSM    C4F15861   3.119  -0.111   6.993 -0.2829 -0.0716 -0.0425
  144OSM    H4F15862   3.225  -0.130   7.020 -0.4437  0.5436  1.0510
  144OSM    H4G15863   3.046  -0.165   7.058  0.4934 -0.8785  0.1673
  144OSM    C5F15864   3.112   0.044   7.007  0.1748  0.8345 -0.3516
  144OSM    H5F15865   3.020   0.070   6.950 -0.2458  2.1036  0.8856
  144OSM    H5G15866   3.194   0.088   6.946 -0.8541  0.3538 -2.1135
  144OSM    C6F15867   3.100   0.098   7.146 -0.1932  0.0174 -0.2133
  144OSM    H6F15868   3.039   0.045   7.223 -0.9601  0.9429 -0.1654
  144OSM    H6G15869   3.056   0.199   7.131 -0.8007  0.0558  1.6305
  144OSM    C7F15870   3.241   0.120   7.219  0.7639  0.3752  0.2076
  144OSM    H7F15871   3.306   0.165   7.142  2.3363 -0.1657  1.1804
  144OSM    H7G15872   3.288   0.025   7.254 -2.3621 -1.1280  0.5341
  144OSM    C8F15873   3.226   0.219   7.334 -0.3351 -0.4751  0.9054
  144OSM    H8F15874   3.134   0.200   7.393 -1.4476  0.0402 -0.6359
  144OSM    H8G15875   3.216   0.320   7.288  0.4928 -0.7859  0.0458
  144OSM    C9F15876   3.343   0.227   7.427 -0.1209  0.5122 -0.5552
  144OSM    H9F15877   3.437   0.267   7.387  0.4724 -0.1784  0.1326
  144OSM   C10F15878   3.340   0.190   7.556 -0.4305  0.0422 -0.2342
  144OSM   H10F15879   3.426   0.217   7.619 -0.9519 -0.0835  0.5506
  144OSM   C11F15880   3.218   0.150   7.631  0.6517  0.2512 -0.2892
  144OSM   H11F15881   3.166   0.075   7.569  0.0941  0.9363 -0.6675
  144OSM   H11G15882   3.156   0.242   7.645  1.8550  1.0313  0.0022
  144OSM   C12F15883   3.241   0.113   7.779  0.2110 -0.1776 -0.0039
  144OSM   H12F15884   3.327   0.043   7.788  0.2822 -0.2654 -1.2677
  144OSM   H12G15885   3.153   0.055   7.813  0.8833 -1.8950 -1.1204
  144OSM   C13F15886   3.269   0.225   7.879 -0.7531 -0.3857  0.1508
  144OSM   H13F15887   3.190   0.302   7.864 -0.8660 -0.7175 -1.0854
  144OSM   H13G15888   3.367   0.269   7.849  0.1233 -2.0744  0.4704
  144OSM   C14F15889   3.279   0.190   8.027  0.0542  0.4091 -0.0656
  144OSM   H14F15890   3.349   0.107   8.050  0.2509  0.2870 -1.0945
  144OSM   H14G15891   3.185   0.135   8.048  0.8936  0.0385  2.8972
  144OSM   C15F15892   3.294   0.316   8.118 -0.7225 -0.2757  0.7789
  144OSM   H15F15893   3.213   0.379   8.075 -1.8850 -1.5567  1.0477
  144OSM   H15G15894   3.393   0.365   8.110 -1.2845  0.8135  0.4141
  144OSM   C16F15895   3.271   0.285   8.267  0.6565 -0.1975 -0.0810
  144OSM   H16F15896   3.183   0.218   8.276  1.2936 -1.5305 -3.1033
  144OSM   H16G15897   3.255   0.374   8.331 -2.0518 -0.4779 -0.3385
  144OSM   C17F15898   3.399   0.219   8.334  0.1352  0.3511 -1.0208
  144OSM   H17F15899   3.478   0.296   8.323  3.6458 -3.2148 -1.6902
  144OSM   H17G15900   3.425   0.128   8.276  1.2355  0.1865 -0.2847
  144OSM   C18F15901   3.389   0.183   8.488  0.0486 -0.1880 -0.4346
  144OSM   H18F15902   3.369   0.277   8.544 -0.0110 -1.0494  0.9874
  144OSM   H18G15903   3.492   0.150   8.515  0.8494  1.3553 -1.4350
  144OSM   H18H15904   3.318   0.099   8.503 -1.2145  1.1178  0.9653
  145SAPE     N15905   2.755   0.437  10.890  0.6104  0.5997 -0.1613
  145SAPE   HN115906   2.812   0.457  10.974 -0.4083 -0.9196  0.9158
  145SAPE   HN215907   2.782   0.339  10.865 -1.9333  0.4940 -2.6807
  145SAPE   HN315908   2.784   0.487  10.803  0.4827  0.6654 -0.1657
  145SAPE   C1215909   2.609   0.452  10.927  0.3736 -0.6798 -0.5128
  145SAPE  H12A15910   2.584   0.561  10.934  2.7308 -0.2177  1.0049
  145SAPE  H12B15911   2.582   0.414  11.028  1.7565 -3.2137 -1.0660
  145SAPE   C1115912   2.520   0.408  10.811  0.6117  0.0902 -0.3824
  145SAPE  H11A15913   2.553   0.464  10.721 -0.0706  1.6919  0.3352
  145SAPE  H11B15914   2.419   0.442  10.841  0.1507 -0.3498 -1.4364
  145SAPE     P15915   2.447   0.198  10.671 -0.2037 -0.3161  0.2305
  145SAPE   O1315916   2.517   0.067  10.646  0.2126  0.0242  0.0034
  145SAPE   O1415917   2.303   0.194  10.680 -0.5576  0.2880  0.0292
  145SAPE   O1215918   2.512   0.272  10.802 -0.2733 -0.3080 -0.0196
  145SAPE   O1115919   2.473   0.303  10.554  0.1770 -0.1742 -0.3600
  145SAPE    C115920   2.606   0.334  10.511  0.1070 -0.6260  0.1231
  145SAPE    HA15921   2.626   0.442  10.528  0.0542 -0.6960  0.6351
  145SAPE    HB15922   2.687   0.285  10.567 -0.9416 -0.7373  1.5726
  145SAPE    C215923   2.633   0.314  10.358  0.2981 -0.1244  0.0712
  145SAPE    HS15924   2.740   0.337  10.340 -0.1510  0.9540 -1.2844
  145SAPE   O2115925   2.546   0.391  10.269 -0.2550 -0.0921 -0.4794
  145SAPE   C2115926   2.556   0.528  10.281  0.0987 -0.1663  0.2853
  145SAPE   O2215927   2.650   0.581  10.343  0.7879 -0.4071 -0.2434
  145SAPE   C2215928   2.457   0.599  10.185  0.2108 -0.0918  0.6124
  145SAPE   H2R15929   2.447   0.543  10.089  2.1456 -2.2183  1.5931
  145SAPE   H2S15930   2.360   0.602  10.239 -0.1970  0.0275 -0.1334
  145SAPE    C315931   2.616   0.157  10.323 -0.1400  0.2400 -0.2723
  145SAPE    HX15932   2.522   0.140  10.380  0.1043 -0.9616 -0.2126
  145SAPE    HY15933   2.686   0.085  10.371 -0.2504  0.6068  0.4432
  145SAPE   O3115934   2.593   0.120  10.188 -0.1231  0.3349 -0.1947
  145SAPE   C3115935   2.684   0.145  10.099  0.5740 -0.2272 -0.4013
  145SAPE   O3215936   2.794   0.199  10.125 -0.8056  0.1988  0.1707
  145SAPE   C3215937   2.632   0.102   9.956  0.6729 -0.3739  0.3512
  145SAPE   H2X15938   2.538   0.153   9.927 -0.1061 -1.3116  1.1934
  145SAPE   H2Y15939   2.605  -0.005   9.953 -2.2874  0.2874  1.7016
  145SAPE   C2315940   2.500   0.742  10.159 -0.6317 -0.6063 -0.0327
  145SAPE   H3R15941   2.527   0.791  10.255  1.6966 -1.7720 -0.0689
  145SAPE   H3S15942   2.401   0.786  10.133  0.9798  2.2856 -1.6206
  145SAPE   C2415943   2.595   0.768  10.039 -0.5090  0.3914  0.0008
  145SAPE   H4R15944   2.551   0.730   9.944 -2.3716  2.3082  0.0713
  145SAPE   H4S15945   2.687   0.710  10.063 -0.9181 -1.1475 -1.9835
  145SAPE   C2515946   2.640   0.908  10.036 -0.1053 -0.1238 -0.5765
  145SAPE   H5R15947   2.700   0.932  10.125 -1.9807  2.5480  0.0540
  145SAPE   C2615948   2.616   0.997   9.937  0.7953 -0.2386  0.2155
  145SAPE   H6R15949   2.657   1.099   9.944  1.3199 -0.2473 -2.3252
  145SAPE   C2715950   2.544   0.960   9.809 -0.8410 -0.6216 -0.9455
  145SAPE   H7R15951   2.576   0.856   9.786  1.3756 -0.2318  0.2245
  145SAPE   H7S15952   2.585   1.009   9.718  0.0324 -2.2525 -1.4545
  145SAPE   C2815953   2.396   0.978   9.818  0.0159  0.0546  0.5245
  145SAPE   H8R15954   2.345   0.911   9.889 -0.7187  1.4132  1.3012
  145SAPE   C2915955   2.322   1.077   9.758 -0.1148  0.1469  0.1943
  145SAPE   H9R15956   2.214   1.085   9.777 -0.0657 -0.6426  0.8478
  145SAPE  C21015957   2.370   1.191   9.677  0.2629  0.5327  0.3451
  145SAPE  H10R15958   2.474   1.176   9.641  0.0867  0.2800 -0.0605
  145SAPE  H10S15959   2.380   1.279   9.745  0.8436  0.3986  0.4411
  145SAPE  C21115960   2.290   1.202   9.550  0.2493  0.0666  0.0572
  145SAPE  H11R15961   2.186   1.236   9.562 -0.0809 -1.6374  2.3308
  145SAPE  C21215962   2.336   1.164   9.424  0.7153 -0.7041  0.3623
  145SAPE  H12R15963   2.265   1.172   9.341  0.6683  0.8389  0.5324
  145SAPE  C21315964   2.474   1.099   9.390 -0.1158 -0.4585 -0.3378
  145SAPE  H13R15965   2.516   1.047   9.479 -0.4863  0.8321  0.6099
  145SAPE  H13S15966   2.544   1.182   9.367 -0.1026  0.0067  1.2952
  145SAPE  C21415967   2.457   1.004   9.271  0.0862  0.1982  0.2886
  145SAPE  H14R15968   2.386   0.922   9.291  1.8085 -1.5263 -0.5246
  145SAPE  C21515969   2.510   1.020   9.145 -0.6598  0.1161  1.0982
  145SAPE  H15R15970   2.493   0.938   9.073  1.9111  1.4669 -1.1312
  145SAPE  C21615971   2.605   1.121   9.092  0.5927 -0.6051  0.3433
  145SAPE  H16R15972   2.687   1.078   9.031  2.1073 -1.2776  2.7744
  145SAPE  H16S15973   2.659   1.163   9.180 -0.5948  0.1518  0.7391
  145SAPE  C21715974   2.544   1.243   9.022 -0.0094  0.5017 -0.0007
  145SAPE  H17R15975   2.625   1.316   9.002 -0.0362  0.5208 -0.0417
  145SAPE  H17S15976   2.465   1.298   9.078 -3.1419 -2.3413 -1.4704
  145SAPE  C21815977   2.484   1.209   8.877  0.1575  0.0735  0.0321
  145SAPE  H18R15978   2.391   1.151   8.896  0.2470  0.9041  3.2809
  145SAPE  H18S15979   2.554   1.139   8.827  0.1598  0.0419  0.0776
  145SAPE  C21915980   2.454   1.327   8.787 -0.4741 -0.5820 -1.0405
  145SAPE  H19R15981   2.408   1.279   8.698  1.4524  0.5477 -2.6831
  145SAPE  H19S15982   2.546   1.375   8.746 -0.9835  3.2005  1.9571
  145SAPE  C22015983   2.360   1.423   8.860  0.5710  0.1733 -0.0078
  145SAPE  H20R15984   2.285   1.365   8.918  0.5050  0.3793  0.1160
  145SAPE  H20S15985   2.305   1.483   8.785  0.1561 -2.0133 -1.4745
  145SAPE  H20T15986   2.411   1.497   8.925  1.8787 -0.0446 -0.7688
  145SAPE   C3315987   2.731   0.135   9.849 -0.0144 -0.3339 -0.5497
  145SAPE   H3X15988   2.818   0.066   9.844 -1.1935 -1.9232  0.1599
  145SAPE   H3Y15989   2.766   0.240   9.852 -2.0399  0.3871 -1.5692
  145SAPE   C3415990   2.674   0.135   9.708 -0.3512  0.0922  0.4848
  145SAPE   H4X15991   2.573   0.181   9.706 -0.3876 -0.0309 -1.0016
  145SAPE   H4Y15992   2.657   0.030   9.677  0.9986  0.4050 -1.3824
  145SAPE   C3515993   2.759   0.211   9.601 -0.1759 -0.7666  0.3067
  145SAPE   H5X15994   2.852   0.161   9.567 -0.8690 -0.6228 -1.9095
  145SAPE   H5Y15995   2.785   0.312   9.641  0.1724 -0.8706  0.3428
  145SAPE   C3615996   2.675   0.226   9.475 -0.1455 -0.0802  0.0296
  145SAPE   H6X15997   2.600   0.145   9.475 -0.9906  0.6875  1.0982
  145SAPE   H6Y15998   2.739   0.213   9.385  2.7293  0.9232  1.8550
  145SAPE   C3715999   2.603   0.360   9.471  0.3346  0.4274 -0.0004
  145SAPE   H7X16000   2.673   0.446   9.477 -1.4193  2.0189 -1.5382
  145SAPE   H7Y16001   2.521   0.365   9.546 -1.0588  1.4706 -1.5479
  145SAPE   C3816002   2.540   0.393   9.331  0.6013 -0.1054 -0.0716
  145SAPE   H8X16003   2.465   0.460   9.378 -0.0680 -1.1206  0.3210
  145SAPE   H8Y16004   2.488   0.309   9.281  1.0214 -0.6459  0.4053
  145SAPE   C3916005   2.634   0.473   9.237 -0.1964  0.6437 -0.3796
  145SAPE   H9X16006   2.685   0.390   9.185 -2.4133  0.6345 -2.6571
  145SAPE   H9Y16007   2.704   0.542   9.288  0.4116  1.9297 -2.8564
  145SAPE  C31016008   2.564   0.558   9.128 -0.1719  1.1793  0.5892
  145SAPE  H10X16009   2.646   0.616   9.080 -0.0819 -0.0026 -0.7270
  145SAPE  H10Y16010   2.490   0.623   9.179 -2.6356  0.3643 -1.7911
  145SAPE  C31116011   2.495   0.464   9.034 -0.5013 -0.1176 -0.0429
  145SAPE  H11X16012   2.405   0.427   9.087  1.3630 -1.9735  1.9387
  145SAPE  H11Y16013   2.560   0.374   9.019 -1.2179 -1.0915  2.5113
  145SAPE  C31216014   2.462   0.530   8.903 -0.1169  0.3027  0.2542
  145SAPE  H12X16015   2.452   0.446   8.831  0.4836  1.0749 -0.7387
  145SAPE  H12Y16016   2.549   0.590   8.869 -0.4542  1.5404  1.5181
  145SAPE  C31316017   2.344   0.630   8.919  0.2275  0.3117  0.9601
  145SAPE  H13X16018   2.378   0.700   8.998 -1.9416  2.1425  0.3199
  145SAPE  H13Y16019   2.256   0.576   8.959  0.0645 -0.3392 -0.2501
  145SAPE  C31416020   2.309   0.716   8.805 -0.5673  0.2649 -0.5243
  145SAPE  H14X16021   2.267   0.660   8.718 -0.9368 -0.2408 -0.0264
  145SAPE  H14Y16022   2.409   0.748   8.769 -0.1204  0.8278  1.1794
  145SAPE  C31516023   2.212   0.832   8.854 -0.3354 -0.0879  0.3613
  145SAPE  H15X16024   2.271   0.882   8.933  0.2612  0.0023 -0.1323
  145SAPE  H15Y16025   2.123   0.778   8.891  0.3660 -0.9095  0.8601
  145SAPE  C31616026   2.188   0.939   8.744  0.1134  0.0672 -0.5962
  145SAPE  H16X16027   2.142   0.887   8.657 -0.6683 -3.2659  1.7155
  145SAPE  H16Y16028   2.286   0.980   8.712  0.0757  0.9065  0.3380
  145SAPE  C31716029   2.110   1.061   8.793  0.6710 -0.1408  0.5711
  145SAPE  H17X16030   2.189   1.107   8.856  0.7129 -1.1630  1.2821
  145SAPE  H17Y16031   2.020   1.016   8.841 -0.4418 -0.4418 -1.7444
  145SAPE  C31816032   2.068   1.157   8.681  0.6651 -0.1494 -0.7388
  145SAPE  H18X16033   1.987   1.104   8.627 -0.1300 -2.0316  2.1444
  145SAPE  H18Y16034   2.160   1.169   8.619  1.2453  1.1101  0.3471
  145SAPE  H18Z16035   2.046   1.261   8.712  0.2998  0.2664 -2.3914
  146SAPE     N16036   1.663   1.674  10.760 -0.4894  0.8779 -0.2536
  146SAPE   HN116037   1.767   1.666  10.756 -0.4232  2.0393 -1.2704
  146SAPE   HN216038   1.640   1.740  10.837 -0.5584  0.5662 -0.0081
  146SAPE   HN316039   1.616   1.581  10.759 -0.6718  0.9701 -0.1859
  146SAPE   C1216040   1.628   1.766  10.641 -0.5435  0.1044 -0.2182
  146SAPE  H12A16041   1.661   1.719  10.545  0.9541  1.4134 -0.3662
  146SAPE  H12B16042   1.691   1.857  10.645  1.2107 -1.0673 -0.5653
  146SAPE   C1116043   1.477   1.807  10.631 -0.1067 -0.1705  0.3148
  146SAPE  H11A16044   1.458   1.840  10.527  0.3030  2.1578  0.9599
  146SAPE  H11B16045   1.464   1.898  10.693  0.2522  2.1748 -2.9103
  146SAPE     P16046   1.244   1.738  10.690 -0.1041 -0.2928 -0.1323
  146SAPE   O1316047   1.159   1.618  10.694  0.2284 -0.0703  0.1709
  146SAPE   O1416048   1.244   1.822  10.809 -0.5414 -0.5115  0.7901
  146SAPE   O1216049   1.390   1.703  10.654 -0.4272  0.6551  0.3652
  146SAPE   O1116050   1.188   1.833  10.580 -0.3647  0.1410 -0.0810
  146SAPE    C116051   1.190   1.801  10.443 -0.1435 -0.3001  0.1840
  146SAPE    HA16052   1.285   1.749  10.417  0.1713  0.5652 -0.4017
  146SAPE    HB16053   1.104   1.737  10.413  2.0166 -2.1705 -2.2789
  146SAPE    C216054   1.180   1.929  10.356  0.0324  0.3436 -0.4437
  146SAPE    HS16055   1.263   1.998  10.385 -0.4385  0.0125  1.8396
  146SAPE   O2116056   1.048   1.982  10.386  0.4000  0.2776 -0.1981
  146SAPE   C2116057   1.019   2.098  10.331 -0.0504  0.5979  0.1671
  146SAPE   O2216058   1.104   2.163  10.270  0.7462 -0.4557 -0.4760
  146SAPE   C2216059   0.875   2.121  10.356  0.3078 -0.6716  0.2977
  146SAPE   H2R16060   0.815   2.028  10.350 -1.1809  0.3188 -0.2361
  146SAPE   H2S16061   0.876   2.154  10.462 -0.7180 -2.3459  0.8359
  146SAPE    C316062   1.198   1.907  10.200  0.0169  0.2573 -0.7096
  146SAPE    HX16063   1.221   2.004  10.149  0.2566 -0.2154 -1.5043
  146SAPE    HY16064   1.103   1.874  10.154 -0.2771  1.3889 -0.9310
  146SAPE   O3116065   1.300   1.811  10.166 -0.2602  0.0997 -0.6552
  146SAPE   C3116066   1.426   1.856  10.190  1.1290 -0.2243  0.1256
  146SAPE   O3216067   1.449   1.957  10.257 -0.4709  0.2105 -0.4299
  146SAPE   C3216068   1.535   1.769  10.131  0.5140  0.6624  0.2067
  146SAPE   H2X16069   1.518   1.760  10.022 -1.7400  2.1492  0.4140
  146SAPE   H2Y16070   1.521   1.672  10.184  3.1639 -0.3929 -0.9426
  146SAPE   C2316071   0.807   2.231  10.257  0.7011 -0.1234 -0.4576
  146SAPE   H3R16072   0.867   2.324  10.261  0.3356  0.0486  1.4960
  146SAPE   H3S16073   0.712   2.259  10.308  0.0413 -2.4744 -0.3524
  146SAPE   C2416074   0.783   2.188  10.117 -0.2316  0.5361  0.3489
  146SAPE   H4R16075   0.877   2.146  10.076 -1.3544 -1.6317 -0.0639
  146SAPE   H4S16076   0.759   2.280  10.058  1.1176  1.7178  1.6122
  146SAPE   C2516077   0.666   2.086  10.102 -1.4703 -0.4371  0.1861
  146SAPE   H5R16078   0.611   2.058  10.194 -1.3242 -1.2955  0.0126
  146SAPE   C2616079   0.634   2.033   9.984 -0.2230 -0.0380  0.6844
  146SAPE   H6R16080   0.543   1.972   9.973 -1.7751  2.5428 -1.3129
  146SAPE   C2716081   0.700   2.068   9.856  0.6406  0.2362 -0.1728
  146SAPE   H7R16082   0.809   2.075   9.875  0.8228  0.2612 -1.2028
  146SAPE   H7S16083   0.653   2.158   9.812  0.4511 -1.1573 -2.8968
  146SAPE   C2816084   0.679   1.963   9.747  0.0624  0.0058 -1.0368
  146SAPE   H8R16085   0.695   1.862   9.789 -0.2356  0.0649 -0.7832
  146SAPE   C2916086   0.631   1.971   9.620  0.8992 -0.1788 -0.8397
  146SAPE   H9R16087   0.630   1.878   9.561  0.2192 -0.0920 -0.9618
  146SAPE  C21016088   0.578   2.086   9.542 -0.8863 -0.3441  0.7967
  146SAPE  H10R16089   0.569   2.175   9.609 -3.5629  0.5389 -0.6352
  146SAPE  H10S16090   0.471   2.076   9.515 -0.6519  1.1888 -0.7591
  146SAPE  C21116091   0.661   2.125   9.419  0.0512 -0.1210  0.5160
  146SAPE  H11R16092   0.769   2.124   9.436  0.5763  3.4406 -1.9962
  146SAPE  C21216093   0.611   2.142   9.295 -0.2964 -0.0888  0.8394
  146SAPE  H12R16094   0.688   2.162   9.219 -0.4991 -0.5131  0.5210
  146SAPE  C21316095   0.470   2.123   9.246  0.4674 -0.5933 -0.2213
  146SAPE  H13R16096   0.400   2.137   9.331 -1.0968  2.5762 -1.8848
  146SAPE  H13S16097   0.455   2.015   9.225  1.6353 -0.5074 -1.5599
  146SAPE  C21416098   0.430   2.212   9.132  0.4633 -0.5009  0.1715
  146SAPE  H14R16099   0.417   2.320   9.151 -0.7772 -0.1610 -2.4513
  146SAPE  C21516100   0.392   2.167   9.009  0.0638 -0.3226  0.2730
  146SAPE  H15R16101   0.355   2.244   8.940  0.8025  0.4634  0.7417
  146SAPE  C21616102   0.387   2.023   8.964  0.1516  0.2973  0.1330
  146SAPE  H16R16103   0.309   2.009   8.887  0.1475 -0.5242  0.2803
  146SAPE  H16S16104   0.364   1.952   9.046 -2.6019 -1.1696 -1.8297
  146SAPE  C21716105   0.515   1.996   8.885 -0.0213  0.4435  0.1741
  146SAPE  H17R16106   0.603   2.059   8.912 -0.1752  0.6870  0.1134
  146SAPE  H17S16107   0.491   2.015   8.779  1.1518 -1.7106 -0.5051
  146SAPE  C21816108   0.549   1.843   8.898  0.1562 -0.0821 -1.0584
  146SAPE  H18R16109   0.607   1.805   8.812  0.3837 -0.5715 -0.6967
  146SAPE  H18S16110   0.450   1.792   8.901 -1.2951  2.6442 -1.4633
  146SAPE  C21916111   0.641   1.812   9.018  0.8777 -0.3042  0.6241
  146SAPE  H19R16112   0.669   1.706   9.005  0.9204 -0.1099 -0.9000
  146SAPE  H19S16113   0.592   1.819   9.118 -1.2186 -1.2828 -0.2942
  146SAPE  C22016114   0.783   1.885   9.019 -0.0568  0.0936 -0.0072
  146SAPE  H20R16115   0.830   1.856   8.923  0.0325  1.2849 -0.3331
  146SAPE  H20S16116   0.832   1.845   9.110 -2.1616 -0.7266  0.7943
  146SAPE  H20T16117   0.778   1.995   9.030 -0.2616 -0.0770  1.7290
  146SAPE   C3316118   1.685   1.817  10.138 -0.7738 -0.1489  0.1312
  146SAPE   H3X16119   1.741   1.733  10.092 -0.8459  0.1571 -0.5213
  146SAPE   H3Y16120   1.713   1.840  10.242 -0.4690 -0.6933  0.1738
  146SAPE   C3416121   1.708   1.943  10.052  0.1478 -0.3996  0.1324
  146SAPE   H4X16122   1.646   2.023  10.096 -0.7064 -0.5137 -0.8474
  146SAPE   H4Y16123   1.669   1.929   9.949  0.0456 -0.9574  0.2438
  146SAPE   C3516124   1.852   1.976  10.033 -0.2108 -0.3214 -0.2692
  146SAPE   H5X16125   1.918   1.892  10.003  0.9322  0.0842  1.0909
  146SAPE   H5Y16126   1.903   2.001  10.128  0.0965 -0.9170 -0.2758
  146SAPE   C3616127   1.871   2.094   9.940  0.0980  0.1513  0.4283
  146SAPE   H6X16128   1.977   2.127   9.942  0.3889 -0.6681 -0.7150
  146SAPE   H6Y16129   1.806   2.175   9.980  3.0593  3.1739 -0.6462
  146SAPE   C3716130   1.843   2.068   9.794 -0.4297  0.1354 -0.3023
  146SAPE   H7X16131   1.736   2.055   9.767 -0.4545  1.4677 -0.8821
  146SAPE   H7Y16132   1.894   1.975   9.761 -2.1977 -0.3515 -1.7347
  146SAPE   C3816133   1.906   2.188   9.719  0.5677 -0.1375  0.1762
  146SAPE   H8X16134   2.016   2.189   9.736  1.0227 -1.0391 -2.4122
  146SAPE   H8Y16135   1.872   2.280   9.769  1.9224  0.8548 -0.6709
  146SAPE   C3916136   1.891   2.186   9.567 -0.2503  0.4023  0.2823
  146SAPE   H9X16137   1.781   2.190   9.550 -0.0016  1.7994 -1.1168
  146SAPE   H9Y16138   1.911   2.088   9.518 -0.5801  0.2193  0.5078
  146SAPE  C31016139   1.951   2.304   9.490  0.0341  0.1642 -0.2521
  146SAPE  H10X16140   2.061   2.292   9.495  0.1925  0.8308 -1.8879
  146SAPE  H10Y16141   1.940   2.397   9.551 -0.0610 -0.6701  1.0213
  146SAPE  C31116142   1.888   2.303   9.346  0.2412 -0.2391  0.4744
  146SAPE  H11X16143   1.777   2.312   9.355  0.1764  1.2179 -1.3722
  146SAPE  H11Y16144   1.911   2.199   9.317 -0.5087 -0.9075  2.2048
  146SAPE  C31216145   1.943   2.411   9.250 -0.5526 -0.9510 -0.2005
  146SAPE  H12X16146   2.052   2.405   9.272 -0.0429 -1.8855 -2.8052
  146SAPE  H12Y16147   1.901   2.510   9.275  1.1194 -0.1871 -0.3766
  146SAPE  C31316148   1.916   2.376   9.101  0.2723  0.0379 -0.6166
  146SAPE  H13X16149   1.809   2.347   9.099  0.3842 -0.3753 -0.6622
  146SAPE  H13Y16150   1.984   2.293   9.070  2.0095  0.8043  1.0220
  146SAPE  C31416151   1.928   2.504   9.019  0.4579 -0.5956  0.6547
  146SAPE  H14X16152   2.032   2.539   9.036  1.3883 -3.0158  0.0221
  146SAPE  H14Y16153   1.856   2.578   9.062 -1.0377 -1.1764 -0.8029
  146SAPE  C31516154   1.879   2.499   8.872 -0.6975  0.0043 -0.9349
  146SAPE  H15X16155   1.826   2.589   8.835  0.3656  0.5848 -1.0522
  146SAPE  H15Y16156   1.813   2.410   8.860 -1.3669  0.1459  1.4949
  146SAPE  C31616157   1.984   2.453   8.763  0.3155  0.2597  0.2088
  146SAPE  H16X16158   2.061   2.386   8.806  1.6539  1.6935  0.0685
  146SAPE  H16Y16159   2.037   2.543   8.727 -0.7979  0.5947 -0.6156
  146SAPE  C31716160   1.916   2.394   8.634  0.7058  0.1731 -0.1375
  146SAPE  H17X16161   1.839   2.462   8.593 -1.5786 -2.3021 -0.1048
  146SAPE  H17Y16162   1.868   2.301   8.671  0.0112  1.5471  2.5880
  146SAPE  C31816163   2.023   2.367   8.530  0.4955 -0.0708 -1.1280
  146SAPE  H18X16164   2.070   2.449   8.472  2.4135 -0.2056  0.1673
  146SAPE  H18Y16165   1.987   2.316   8.438  1.1160 -2.0644 -0.3058
  146SAPE  H18Z16166   2.112   2.314   8.570 -0.3584 -0.7724 -0.1229
  147SAPE     N16167   2.704   4.199  11.164 -0.1167 -0.8615 -0.0007
  147SAPE   HN116168   2.653   4.114  11.133  0.3436 -1.7482  1.6082
  147SAPE   HN216169   2.730   4.185  11.264  2.7990 -1.3110 -0.7736
  147SAPE   HN316170   2.635   4.276  11.157 -0.2063 -0.9759 -0.3616
  147SAPE   C1216171   2.824   4.219  11.083 -0.2005 -0.2336 -0.3901
  147SAPE  H12A16172   2.896   4.136  11.099  1.3094  1.1784  0.2182
  147SAPE  H12B16173   2.869   4.309  11.130  0.4924 -0.1023 -1.3124
  147SAPE   C1116174   2.796   4.250  10.934  0.1311 -0.6889 -0.6867
  147SAPE  H11A16175   2.756   4.153  10.895  1.0130 -0.4523 -2.2096
  147SAPE  H11B16176   2.897   4.274  10.895 -0.7893  0.7503 -2.2797
  147SAPE     P16177   2.625   4.394  10.787 -0.5559  0.0558 -0.0180
  147SAPE   O1316178   2.504   4.313  10.777  0.6537 -0.2905  0.2445
  147SAPE   O1416179   2.603   4.542  10.784  1.0752  0.1617  0.1639
  147SAPE   O1216180   2.705   4.361  10.915 -0.0676  0.4581 -0.2941
  147SAPE   O1116181   2.716   4.353  10.671 -0.4784 -0.0727  0.3860
  147SAPE    C116182   2.731   4.221  10.623  0.8859 -0.5394  0.3752
  147SAPE    HA16183   2.836   4.191  10.643  1.6672  2.2024  0.6086
  147SAPE    HB16184   2.663   4.151  10.677 -0.2185 -0.7159 -1.2271
  147SAPE    C216185   2.710   4.208  10.467 -0.1861  0.0551  0.4613
  147SAPE    HS16186   2.755   4.113  10.433 -0.3076 -0.3491  1.4166
  147SAPE   O2116187   2.763   4.318  10.392 -0.1485  0.3364  0.2460
  147SAPE   C2116188   2.896   4.326  10.392 -0.0506 -0.7394  0.6353
  147SAPE   O2216189   2.977   4.247  10.439 -0.2061 -0.5386 -0.0680
  147SAPE   C2216190   2.939   4.459  10.321 -0.1654 -0.5976  0.2324
  147SAPE   H2R16191   2.875   4.486  10.234 -0.6393  0.3349  0.8666
  147SAPE   H2S16192   2.919   4.539  10.395 -0.6331  2.1241 -2.7107
  147SAPE    C316193   2.558   4.190  10.438 -0.0282 -0.6122 -0.1375
  147SAPE    HX16194   2.503   4.277  10.479 -0.0556 -0.2882 -0.8554
  147SAPE    HY16195   2.527   4.102  10.499  0.7385  0.1201  1.3463
  147SAPE   O3116196   2.518   4.161  10.299 -0.3051 -0.2823 -0.1622
  147SAPE   C3116197   2.402   4.091  10.281 -0.4737 -0.0572  0.0730
  147SAPE   O3216198   2.322   4.063  10.370 -0.5289  0.6759 -0.2993
  147SAPE   C3216199   2.392   4.047  10.131  0.7401 -0.0070 -0.7985
  147SAPE   H2X16200   2.456   3.960  10.107  1.6871  1.6054 -4.5539
  147SAPE   H2Y16201   2.411   4.126  10.055  1.1901 -1.0861 -1.8343
  147SAPE   C2316202   3.084   4.458  10.288  0.4187  0.4986  0.8078
  147SAPE   H3R16203   3.147   4.432  10.375  0.4552  0.1732  0.6884
  147SAPE   H3S16204   3.115   4.560  10.257  1.6670  0.3534  1.5623
  147SAPE   C2416205   3.102   4.349  10.176 -0.0534  0.4271 -0.1274
  147SAPE   H4R16206   3.036   4.379  10.093 -0.4336 -1.6323 -0.5948
  147SAPE   H4S16207   3.074   4.245  10.204  1.6129 -0.2159 -0.7643
  147SAPE   C2516208   3.242   4.365  10.118  0.1174  0.0408  0.7906
  147SAPE   H5R16209   3.318   4.372  10.197 -0.8084  3.2456  1.4719
  147SAPE   C2616210   3.277   4.388   9.988  0.7707 -0.1585 -0.0023
  147SAPE   H6R16211   3.383   4.399   9.964  1.0884 -0.5731  1.1932
  147SAPE   C2716212   3.178   4.403   9.869 -0.8170  0.0414  0.5472
  147SAPE   H7R16213   3.077   4.430   9.908 -1.0142  1.9039 -1.2188
  147SAPE   H7S16214   3.157   4.310   9.812 -2.4085 -0.7054  2.2563
  147SAPE   C2816215   3.231   4.509   9.777  0.3737 -0.0762  0.2364
  147SAPE   H8R16216   3.227   4.608   9.826 -2.4283  0.5157 -1.0847
  147SAPE   C2916217   3.248   4.506   9.645 -0.1818  0.1681 -0.0751
  147SAPE   H9R16218   3.294   4.589   9.591  0.8640 -0.7297 -0.5805
  147SAPE  C21016219   3.214   4.390   9.556 -0.3904 -0.0622 -0.2039
  147SAPE  H10R16220   3.153   4.426   9.470 -0.0362 -0.6478 -0.7087
  147SAPE  H10S16221   3.143   4.320   9.604 -0.8414  0.6651  0.2114
  147SAPE  C21116222   3.334   4.329   9.490 -0.0211 -0.0674 -0.5391
  147SAPE  H11R16223   3.367   4.239   9.544  0.8385  1.1584  1.0011
  147SAPE  C21216224   3.389   4.363   9.368  0.2961 -0.4738 -0.2160
  147SAPE  H12R16225   3.474   4.308   9.326 -1.6392 -2.7975 -1.2293
  147SAPE  C21316226   3.345   4.481   9.284 -0.6578  0.4216 -0.1941
  147SAPE  H13R16227   3.432   4.533   9.240 -0.3256  0.8997  0.9917
  147SAPE  H13S16228   3.296   4.559   9.346  0.3633 -1.4699  3.1513
  147SAPE  C21416229   3.230   4.440   9.186  0.3700 -0.4434 -0.5865
  147SAPE  H14R16230   3.142   4.397   9.236  1.3738 -1.4322  0.3563
  147SAPE  C21516231   3.227   4.446   9.053  1.1553  0.7008  0.3168
  147SAPE  H15R16232   3.143   4.393   9.005  1.4619 -1.5752  2.1800
  147SAPE  C21616233   3.322   4.519   8.962 -0.1600 -0.9538 -0.4718
  147SAPE  H16R16234   3.353   4.443   8.887  0.1560 -2.2138  0.8908
  147SAPE  H16S16235   3.411   4.559   9.014 -1.3361 -0.1158  0.9353
  147SAPE  C21716236   3.256   4.631   8.877  0.1814  0.3186  0.2323
  147SAPE  H17R16237   3.215   4.706   8.947 -3.7232 -3.2402  1.9371
  147SAPE  H17S16238   3.173   4.584   8.819  1.8365 -1.4401 -0.7921
  147SAPE  C21816239   3.347   4.693   8.766  0.0847  1.0174  0.3427
  147SAPE  H18R16240   3.381   4.618   8.691  0.9290  1.5116  0.2239
  147SAPE  H18S16241   3.440   4.744   8.801  1.5492 -0.9430 -0.6094
  147SAPE  C21916242   3.276   4.794   8.671  0.4228 -0.1017 -0.4717
  147SAPE  H19R16243   3.188   4.748   8.621  0.2629 -1.2635  0.8638
  147SAPE  H19S16244   3.351   4.826   8.595  2.0072  2.1680  1.9728
  147SAPE  C22016245   3.225   4.911   8.751 -0.8036  0.7922  0.1700
  147SAPE  H20R16246   3.305   4.945   8.820 -1.0181  2.6427 -0.4732
  147SAPE  H20S16247   3.132   4.900   8.810 -1.1133 -0.5696 -0.5559
  147SAPE  H20T16248   3.208   5.003   8.692  1.2350  1.8186  1.1250
  147SAPE   C3316249   2.252   3.994  10.093  0.1348 -0.8173  0.1801
  147SAPE   H3X16250   2.176   4.076  10.093  0.4274 -0.5408  0.3458
  147SAPE   H3Y16251   2.222   3.928  10.177  0.8865 -0.6448  0.5846
  147SAPE   C3416252   2.242   3.917   9.968 -0.0972 -0.7607  0.0479
  147SAPE   H4X16253   2.146   3.863   9.954 -1.1327  0.3267  2.5649
  147SAPE   H4Y16254   2.327   3.846   9.962  0.2762 -0.1917 -1.6764
  147SAPE   C3516255   2.260   4.010   9.853  0.3649 -0.1414  0.5696
  147SAPE   H5X16256   2.343   4.083   9.863  0.4987  0.0235 -1.5065
  147SAPE   H5Y16257   2.174   4.081   9.848  1.5863  1.4190  1.1238
  147SAPE   C3616258   2.288   3.942   9.725 -0.0711 -0.1086 -0.6810
  147SAPE   H6X16259   2.276   4.028   9.656 -0.4572  1.7334  1.6220
  147SAPE   H6Y16260   2.205   3.877   9.688 -1.0153  0.7685 -0.1294
  147SAPE   C3716261   2.428   3.882   9.695 -0.5495 -0.5543  0.2532
  147SAPE   H7X16262   2.447   3.796   9.762 -0.6532  0.0810  1.1091
  147SAPE   H7Y16263   2.515   3.950   9.704  1.2713 -2.7905  0.0876
  147SAPE   C3816264   2.416   3.817   9.551 -0.0897 -0.1232 -0.0395
  147SAPE   H8X16265   2.309   3.790   9.532 -0.1443  0.6754 -0.8684
  147SAPE   H8Y16266   2.480   3.726   9.551  0.6289  0.3714 -1.5500
  147SAPE   C3916267   2.470   3.906   9.436 -0.6955 -0.1298 -0.3518
  147SAPE   H9X16268   2.581   3.914   9.444 -0.8282  1.0478  0.5189
  147SAPE   H9Y16269   2.450   4.014   9.449  1.3214  0.3314 -0.8398
  147SAPE  C31016270   2.422   3.871   9.291  0.6093  0.2293  0.6808
  147SAPE  H10X16271   2.311   3.863   9.297  0.5523  1.1572  0.8903
  147SAPE  H10Y16272   2.458   3.768   9.269 -1.9596 -0.7259  0.8395
  147SAPE  C31116273   2.457   3.966   9.179  0.1214  0.9689 -0.0687
  147SAPE  H11X16274   2.566   3.955   9.159  0.0544  1.5246 -0.7284
  147SAPE  H11Y16275   2.445   4.071   9.212  1.8496  1.1230  0.0982
  147SAPE  C31216276   2.386   3.937   9.050 -0.6541 -0.1694  0.5454
  147SAPE  H12X16277   2.276   3.950   9.052 -0.4973  1.1811  0.5779
  147SAPE  H12Y16278   2.397   3.828   9.029  0.5063  0.0221  0.0841
  147SAPE  C31316279   2.458   4.000   8.920  0.1105  0.5047 -0.0645
  147SAPE  H13X16280   2.421   3.948   8.829  2.0662 -1.0609 -0.0120
  147SAPE  H13Y16281   2.563   3.971   8.941  0.5780  1.8619 -0.4790
  147SAPE  C31416282   2.436   4.148   8.897 -0.1002 -0.1369  0.1753
  147SAPE  H14X16283   2.497   4.199   8.975 -2.2387  0.0621  1.7613
  147SAPE  H14Y16284   2.331   4.183   8.896  0.7019  2.3520 -0.6976
  147SAPE  C31516285   2.476   4.191   8.752  0.6379  0.9035  0.0118
  147SAPE  H15X16286   2.406   4.125   8.697  0.9426 -0.2714  1.0067
  147SAPE  H15Y16287   2.579   4.161   8.723  1.1596  0.6946  1.9674
  147SAPE  C31616288   2.451   4.339   8.727 -0.0061  0.6287 -0.0180
  147SAPE  H16X16289   2.533   4.398   8.772 -0.6610  1.0432  0.6454
  147SAPE  H16Y16290   2.352   4.367   8.769 -0.0305 -0.0878  0.4197
  147SAPE  C31716291   2.437   4.374   8.575 -0.3846 -0.1205  0.1261
  147SAPE  H17X16292   2.377   4.290   8.533 -0.0544 -0.2125 -0.1673
  147SAPE  H17Y16293   2.531   4.386   8.516 -0.1394  3.1899  1.1030
  147SAPE  C31816294   2.374   4.509   8.551  0.7406 -0.1123 -0.7648
  147SAPE  H18X16295   2.290   4.524   8.623  1.3955 -0.1394  0.0051
  147SAPE  H18Y16296   2.318   4.513   8.455 -0.7999 -1.1345  0.0658
  147SAPE  H18Z16297   2.450   4.589   8.565  1.0272 -0.1937 -1.7908
  148SAPE     N16298   4.159   6.205  10.878  0.2794 -0.0924 -0.6314
  148SAPE   HN116299   4.104   6.284  10.918  0.0678 -1.1329  1.1835
  148SAPE   HN216300   4.095   6.154  10.814  1.1669 -0.2234 -1.4222
  148SAPE   HN316301   4.189   6.138  10.951  0.1579  0.3983 -0.1306
  148SAPE   C1216302   4.272   6.260  10.802 -0.1152 -0.2321  0.0171
  148SAPE  H12A16303   4.353   6.184  10.812  1.7679  1.6159 -0.8732
  148SAPE  H12B16304   4.303   6.349  10.862  0.0875 -0.4438  0.2263
  148SAPE   C1116305   4.256   6.297  10.661 -0.3302 -0.0225  0.0543
  148SAPE  H11A16306   4.341   6.361  10.629  0.8949 -0.5040  2.2267
  148SAPE  H11B16307   4.161   6.350  10.643 -1.0101 -1.3031 -0.1671
  148SAPE     P16308   4.114   6.120  10.527 -0.4184  0.3149  0.0879
  148SAPE   O1316309   4.140   6.012  10.427  0.4683 -0.4473 -0.1067
  148SAPE   O1416310   4.025   6.091  10.642 -0.4201 -0.3631  0.4629
  148SAPE   O1216311   4.257   6.183  10.576 -0.3643 -0.7031  0.5821
  148SAPE   O1116312   4.059   6.251  10.458 -0.0096  0.1901  0.1444
  148SAPE    C116313   4.133   6.326  10.358  0.0475 -0.3506 -0.3042
  148SAPE    HA16314   4.102   6.432  10.371  0.9364  0.1865 -2.4648
  148SAPE    HB16315   4.240   6.329  10.387  0.1625  1.8499 -0.9162
  148SAPE    C216316   4.099   6.289  10.212 -0.3047  0.6904 -0.2660
  148SAPE    HS16317   4.171   6.208  10.186  1.5868  2.1327  0.3299
  148SAPE   O2116318   4.121   6.403  10.129 -0.3940 -0.2741  1.2261
  148SAPE   C2116319   4.241   6.413  10.080 -0.7678 -0.9477 -0.4709
  148SAPE   O2216320   4.338   6.339  10.113 -0.3191 -0.0720  0.6163
  148SAPE   C2216321   4.247   6.542  10.005 -0.4230  0.3058  0.2633
  148SAPE   H2R16322   4.172   6.548   9.923 -0.2788  4.5878  0.3012
  148SAPE   H2S16323   4.235   6.628  10.075 -2.5139 -0.1277  0.4539
  148SAPE    C316324   3.957   6.237  10.200  0.3417  0.0179  0.4225
  148SAPE    HX16325   3.895   6.306  10.261 -0.8792 -1.9180  1.4282
  148SAPE    HY16326   3.945   6.140  10.253 -0.9539 -0.2299 -0.3004
  148SAPE   O3116327   3.909   6.232  10.065  0.0707 -0.0520 -0.0824
  148SAPE   C3116328   3.966   6.133  10.001 -0.4593  0.2525  0.8229
  148SAPE   O3216329   4.040   6.048  10.046  0.4223  0.7480  0.1723
  148SAPE   C3216330   3.927   6.141   9.853  0.6715  0.0700  0.0301
  148SAPE   H2X16331   3.821   6.168   9.839  0.9365  1.8275  1.2336
  148SAPE   H2Y16332   3.947   6.037   9.821  1.2990  0.3780 -0.5822
  148SAPE   C2316333   4.387   6.558   9.932  0.6586  0.0026  0.0054
  148SAPE   H3R16334   4.470   6.540  10.004  1.0487 -2.9644 -1.0961
  148SAPE   H3S16335   4.387   6.658   9.884 -0.2869 -0.1977 -0.4310
  148SAPE   C2416336   4.413   6.461   9.811 -0.1387  0.2746 -0.2640
  148SAPE   H4R16337   4.441   6.365   9.859  0.5057  1.1464  1.1210
  148SAPE   H4S16338   4.505   6.502   9.764  0.5892  0.0775  0.9758
  148SAPE   C2516339   4.302   6.457   9.704  0.2938 -0.0311 -0.7048
  148SAPE   H5R16340   4.201   6.424   9.733 -0.2953  0.6719 -1.9230
  148SAPE   C2616341   4.307   6.475   9.572 -0.1673  0.1379 -0.2585
  148SAPE   H6R16342   4.219   6.469   9.507 -0.7549 -1.0165  0.6205
  148SAPE   C2716343   4.439   6.508   9.502 -0.4859  0.0281  0.3596
  148SAPE   H7R16344   4.483   6.411   9.473 -0.7711 -0.5111  1.7013
  148SAPE   H7S16345   4.517   6.550   9.569  0.4355 -0.2226 -0.5474
  148SAPE   C2816346   4.431   6.607   9.384  0.6463 -0.0866 -0.9853
  148SAPE   H8R16347   4.381   6.703   9.404  0.5195  0.0515 -1.9698
  148SAPE   C2916348   4.462   6.583   9.258 -0.3566  0.8332 -0.2925
  148SAPE   H9R16349   4.452   6.670   9.191 -2.8240  0.0689 -0.9843
  148SAPE  C21016350   4.527   6.457   9.195 -0.5586  0.3278  0.0549
  148SAPE  H10R16351   4.541   6.380   9.274 -0.4815 -0.6772 -0.9273
  148SAPE  H10S16352   4.625   6.487   9.152 -0.5450  0.1066 -0.0724
  148SAPE  C21116353   4.424   6.403   9.096 -0.5483 -0.1469  0.6929
  148SAPE  H11R16354   4.320   6.403   9.132 -0.7711 -0.7075  0.0537
  148SAPE  C21216355   4.448   6.363   8.966  0.4101 -0.4120  0.2910
  148SAPE  H12R16356   4.365   6.344   8.896  1.7701 -1.6210 -1.0302
  148SAPE  C21316357   4.584   6.373   8.900  0.2003 -0.1224 -0.1525
  148SAPE  H13R16358   4.659   6.432   8.958  1.6274 -2.7430  0.7681
  148SAPE  H13S16359   4.564   6.438   8.812  1.2042  0.9003  0.3590
  148SAPE  C21416360   4.641   6.238   8.864 -0.1154  0.5550  0.5322
  148SAPE  H14R16361   4.709   6.190   8.935  0.0925  0.4389  0.2590
  148SAPE  C21516362   4.635   6.184   8.742  1.0104 -0.5436 -0.5677
  148SAPE  H15R16363   4.691   6.091   8.724 -1.0344 -1.9555  0.1628
  148SAPE  C21616364   4.563   6.244   8.628 -0.3070  0.0042  0.0284
  148SAPE  H16R16365   4.604   6.210   8.531 -1.3880  0.1379 -0.4795
  148SAPE  H16S16366   4.566   6.354   8.613 -0.3742  0.0065  0.0325
  148SAPE  C21716367   4.418   6.185   8.616  0.3174  0.0902 -0.0061
  148SAPE  H17R16368   4.363   6.199   8.712 -1.5537 -2.4849 -0.6354
  148SAPE  H17S16369   4.431   6.075   8.610  1.8070  0.3071 -0.8592
  148SAPE  C21816370   4.337   6.258   8.506  0.1345 -0.1368 -0.0963
  148SAPE  H18R16371   4.310   6.361   8.537 -1.5389  0.2227 -2.5924
  148SAPE  H18S16372   4.237   6.208   8.503  0.4601 -0.8233  0.5286
  148SAPE  C21916373   4.391   6.261   8.368 -0.0968 -0.6185  0.1271
  148SAPE  H19R16374   4.397   6.158   8.326 -0.3202 -1.1136  1.3069
  148SAPE  H19S16375   4.497   6.293   8.355  0.0610 -1.9853 -2.3438
  148SAPE  C22016376   4.301   6.350   8.285  0.6747  0.0002 -0.0349
  148SAPE  H20R16377   4.332   6.355   8.178  0.9286  0.9681  0.0783
  148SAPE  H20S16378   4.310   6.447   8.339 -0.7015  0.4317 -0.5599
  148SAPE  H20T16379   4.197   6.313   8.293 -0.2671  2.3970 -0.8556
  148SAPE   C3316380   4.022   6.235   9.780 -0.4816 -0.0551 -0.3189
  148SAPE   H3X16381   4.126   6.218   9.818 -1.1146 -1.8670  0.6698
  148SAPE   H3Y16382   3.989   6.341   9.788 -3.2970 -0.6727 -3.1373
  148SAPE   C3416383   4.012   6.203   9.624 -0.5352  0.7171 -0.8935
  148SAPE   H4X16384   4.016   6.092   9.620  1.8620  0.7968 -1.8297
  148SAPE   H4Y16385   4.107   6.235   9.575  2.3288 -0.8932  3.2929
  148SAPE   C3516386   3.888   6.271   9.563 -0.9144  0.2147 -0.1250
  148SAPE   H5X16387   3.829   6.323   9.641  0.0979  0.8575  0.2221
  148SAPE   H5Y16388   3.818   6.191   9.532 -0.2326 -0.7434  0.7267
  148SAPE   C3616389   3.922   6.380   9.461  0.3336  0.1567  0.2685
  148SAPE   H6X16390   3.979   6.466   9.503  1.1177  0.0459 -0.5577
  148SAPE   H6Y16391   3.825   6.413   9.417 -0.3347 -0.2706  1.3871
  148SAPE   C3716392   3.998   6.331   9.338 -0.0034  0.3773  0.5749
  148SAPE   H7X16393   4.106   6.315   9.359 -0.2989 -1.4482  0.8236
  148SAPE   H7Y16394   3.986   6.417   9.270  0.0191  0.8401  1.1483
  148SAPE   C3816395   3.940   6.200   9.276  0.1122  0.2325  0.2775
  148SAPE   H8X16396   3.904   6.230   9.175 -1.4012  3.1706  1.6219
  148SAPE   H8Y16397   3.844   6.167   9.320  1.4349 -0.3983  2.7376
  148SAPE   C3916398   4.035   6.075   9.263  0.1508  0.6558  0.4213
  148SAPE   H9X16399   4.009   6.005   9.345  0.4972 -0.0570 -0.0761
  148SAPE   H9Y16400   4.140   6.111   9.264 -0.3167  2.0757 -0.0810
  148SAPE  C31016401   4.012   5.998   9.127 -0.0572  0.1485  0.8960
  148SAPE  H10X16402   3.904   5.996   9.104 -0.0663 -0.5322  1.0051
  148SAPE  H10Y16403   4.055   5.896   9.134 -1.5295 -0.3338  4.0319
  148SAPE  C31116404   4.085   6.079   9.015 -0.3778  0.4531 -0.1567
  148SAPE  H11X16405   4.193   6.078   9.040 -0.0138  0.8448 -1.6788
  148SAPE  H11Y16406   4.054   6.185   9.014 -0.8300  0.3145 -1.6718
  148SAPE  C31216407   4.054   6.025   8.871 -0.2882  0.0907  0.5047
  148SAPE  H12X16408   4.084   6.094   8.790 -0.6717 -0.0842  0.2144
  148SAPE  H12Y16409   3.946   6.009   8.855  0.3414 -1.6037 -2.3270
  148SAPE  C31316410   4.100   5.884   8.854 -0.0976 -0.2848 -0.0177
  148SAPE  H13X16411   4.075   5.823   8.943 -1.4955  1.0085  0.4903
  148SAPE  H13Y16412   4.211   5.881   8.841 -0.2233  2.2892 -2.2280
  148SAPE  C31416413   4.034   5.815   8.726  0.3202 -1.1034 -0.3945
  148SAPE  H14X16414   3.925   5.798   8.729 -0.0646  1.3290  2.2928
  148SAPE  H14Y16415   4.085   5.716   8.731 -1.2070 -1.8530  0.8266
  148SAPE  C31516416   4.082   5.895   8.603  0.1253 -0.0098 -0.6839
  148SAPE  H15X16417   4.192   5.910   8.612  0.2460 -1.6751  0.7127
  148SAPE  H15Y16418   4.029   5.992   8.598  1.4448  0.6586 -2.2503
  148SAPE  C31616419   4.072   5.829   8.466 -0.1546 -0.5589  0.5248
  148SAPE  H16X16420   3.964   5.814   8.445 -0.1821  0.0777  0.2015
  148SAPE  H16Y16421   4.127   5.733   8.450 -1.5219 -0.6933 -3.9934
  148SAPE  C31716422   4.123   5.926   8.351 -0.4342 -0.0443  0.2776
  148SAPE  H17X16423   4.231   5.946   8.369 -0.9276  1.2126  1.9573
  148SAPE  H17Y16424   4.069   6.021   8.370  1.1896  0.8555  0.4700
  148SAPE  C31816425   4.096   5.888   8.206  0.9232  0.4139  0.5357
  148SAPE  H18X16426   4.088   5.977   8.140  0.7113 -0.9520 -1.3136
  148SAPE  H18Y16427   4.011   5.817   8.206  1.8112 -0.7260  3.5825
  148SAPE  H18Z16428   4.184   5.835   8.163 -0.4450 -0.7565 -0.8704
  149SAPE     N16429   6.680   1.544  10.966 -0.5820 -0.2198  0.4518
  149SAPE   HN116430   6.722   1.484  11.040 -3.7964 -0.9226  1.7667
  149SAPE   HN216431   6.630   1.623  11.012 -1.5691 -0.6285  0.0690
  149SAPE   HN316432   6.616   1.490  10.905  1.3052 -0.6617 -1.1934
  149SAPE   C1216433   6.784   1.597  10.876  0.6176  0.0208 -0.3032
  149SAPE  H12A16434   6.795   1.517  10.800  1.9321 -3.2974  3.1923
  149SAPE  H12B16435   6.883   1.596  10.927 -0.2663 -3.4964  1.5840
  149SAPE   C1116436   6.734   1.745  10.828  0.3849  0.3800 -0.3564
  149SAPE  H11A16437   6.647   1.741  10.759 -1.1531  3.2143  1.3320
  149SAPE  H11B16438   6.820   1.787  10.770  1.7342  0.3658  1.5937
  149SAPE     P16439   6.583   1.876  10.995 -0.2581  0.0492  0.3274
  149SAPE   O1316440   6.525   1.752  11.045 -0.2320 -0.0887  0.3530
  149SAPE   O1416441   6.599   1.989  11.096 -0.3712  0.5721  0.0725
  149SAPE   O1216442   6.723   1.840  10.940  0.2977 -0.2040 -0.4011
  149SAPE   O1116443   6.507   1.930  10.871 -0.2778  0.5223  0.3508
  149SAPE    C116444   6.376   1.887  10.846 -0.1102  1.2762  0.7632
  149SAPE    HA16445   6.309   1.889  10.934  0.0177  0.5639  0.8789
  149SAPE    HB16446   6.335   1.970  10.785  0.3604  0.2906 -0.9299
  149SAPE    C216447   6.381   1.765  10.750 -0.0340  0.5890 -0.5872
  149SAPE    HS16448   6.452   1.687  10.784 -1.0659  0.5781  1.6740
  149SAPE   O2116449   6.428   1.815  10.625 -0.0728  0.0107 -0.1911
  149SAPE   C2116450   6.468   1.726  10.536  0.3350 -0.1630  0.0621
  149SAPE   O2216451   6.486   1.610  10.564 -0.0369 -0.3135 -0.5488
  149SAPE   C2216452   6.488   1.793  10.404  0.2256  0.2277 -0.5343
  149SAPE   H2R16453   6.469   1.726  10.316  1.0167 -1.2721  0.4106
  149SAPE   H2S16454   6.410   1.872  10.397 -1.4271 -1.3170 -0.0995
  149SAPE    C316455   6.237   1.705  10.741  0.6532  0.5854 -0.1070
  149SAPE    HX16456   6.173   1.795  10.730 -1.2454 -0.5622  1.1725
  149SAPE    HY16457   6.205   1.664  10.839  0.2217  1.1551 -0.0091
  149SAPE   O3116458   6.211   1.626  10.623 -0.1766 -0.4303  0.8112
  149SAPE   C3116459   6.232   1.498  10.645  0.5650  0.0544  0.1992
  149SAPE   O3216460   6.286   1.447  10.743  0.1939 -0.0870 -1.0723
  149SAPE   C3216461   6.177   1.415  10.529  0.0569  0.0407 -0.8841
  149SAPE   H2X16462   6.082   1.468  10.507  0.3787  1.1487  0.3206
  149SAPE   H2Y16463   6.172   1.311  10.569  0.4953  1.1734  2.1944
  149SAPE   C2316464   6.625   1.859  10.388  0.2401 -0.2623  0.1527
  149SAPE   H3R16465   6.712   1.790  10.397  0.8159  0.3122 -0.9855
  149SAPE   H3S16466   6.630   1.936  10.468  0.4719  0.2607 -0.3655
  149SAPE   C2416467   6.639   1.934  10.252  0.2702 -0.7284  0.5531
  149SAPE   H4R16468   6.717   2.013  10.265 -1.1686  0.4945  1.9028
  149SAPE   H4S16469   6.547   1.991  10.231  1.2409  1.3877  1.8635
  149SAPE   C2516470   6.682   1.840  10.145 -0.3033 -0.7436  0.5931
  149SAPE   H5R16471   6.779   1.789  10.149 -0.6274 -1.4388 -0.1148
  149SAPE   C2616472   6.607   1.801  10.038 -0.2346  0.7149  0.4684
  149SAPE   H6R16473   6.640   1.719   9.971 -1.7850 -0.8640  1.6128
  149SAPE   C2716474   6.466   1.852  10.013  0.1744 -0.0487 -0.5706
  149SAPE   H7R16475   6.426   1.914  10.096  1.2893  0.7943 -0.6419
  149SAPE   H7S16476   6.404   1.760  10.010 -2.4384  1.6824 -1.0173
  149SAPE   C2816477   6.459   1.912   9.879  0.2062  0.2665  0.7757
  149SAPE   H8R16478   6.494   2.016   9.876 -1.9487  1.0243  0.9671
  149SAPE   C2916479   6.415   1.858   9.762 -0.1598  0.1149 -0.2368
  149SAPE   H9R16480   6.428   1.923   9.675 -1.4642  2.5971  1.3808
  149SAPE  C21016481   6.367   1.713   9.756  0.1331  0.5249  0.1124
  149SAPE  H10R16482   6.266   1.705   9.802 -0.1738  1.8101 -0.3146
  149SAPE  H10S16483   6.425   1.640   9.816 -1.1362 -2.0350 -1.6669
  149SAPE  C21116484   6.345   1.660   9.614 -0.2578 -0.5861  0.7185
  149SAPE  H11R16485   6.269   1.711   9.553  0.7610  0.1213  0.0303
  149SAPE  C21216486   6.425   1.574   9.548  0.2328 -0.8748  0.0620
  149SAPE  H12R16487   6.405   1.553   9.442 -2.1489  0.2083  0.2700
  149SAPE  C21316488   6.543   1.501   9.596  0.4999 -0.1485  1.0483
  149SAPE  H13R16489   6.557   1.402   9.547  1.3250  0.1919  0.5775
  149SAPE  H13S16490   6.543   1.489   9.707  0.2159  2.4697  1.3696
  149SAPE  C21416491   6.673   1.572   9.564  0.4536  1.3769 -0.4053
  149SAPE  H14R16492   6.725   1.618   9.649 -0.0968  0.0906  0.6382
  149SAPE  C21516493   6.729   1.554   9.443 -0.5805 -0.2792 -0.1480
  149SAPE  H15R16494   6.819   1.613   9.419 -0.2214 -1.5112 -1.8739
  149SAPE  C21616495   6.661   1.495   9.314  0.2728 -0.1006 -0.5786
  149SAPE  H16R16496   6.640   1.587   9.255 -0.6690 -0.9432 -1.5650
  149SAPE  H16S16497   6.560   1.452   9.331 -0.7129  1.8727 -1.2558
  149SAPE  C21716498   6.762   1.391   9.254  0.4581  0.2055  0.5133
  149SAPE  H17R16499   6.773   1.300   9.317  0.3240  0.9057  1.5659
  149SAPE  H17S16500   6.858   1.446   9.253  0.1559  0.7590  1.1363
  149SAPE  C21816501   6.706   1.344   9.116 -0.1307  0.3536  0.5947
  149SAPE  H18R16502   6.599   1.317   9.126 -0.8341  2.1186 -1.8390
  149SAPE  H18S16503   6.754   1.253   9.072 -1.1211 -1.2969  2.8282
  149SAPE  C21916504   6.718   1.450   9.009  0.0141  0.0344 -0.4095
  149SAPE  H19R16505   6.815   1.503   8.998 -1.2442  2.2712 -0.9754
  149SAPE  H19S16506   6.658   1.535   9.049  1.6465  0.4131  1.3240
  149SAPE  C22016507   6.682   1.393   8.873 -0.1849  0.0424 -0.7029
  149SAPE  H20R16508   6.767   1.341   8.823 -0.2064  1.1464 -1.9038
  149SAPE  H20S16509   6.680   1.483   8.807 -1.5381 -0.1262 -0.9003
  149SAPE  H20T16510   6.586   1.341   8.855  0.0032 -1.2302  1.8685
  149SAPE   C3316511   6.277   1.419  10.409  0.0113 -0.7883  0.7242
  149SAPE   H3X16512   6.371   1.364  10.430  0.0232 -0.2916  2.0170
  149SAPE   H3Y16513   6.299   1.522  10.377  1.6843 -1.2723  0.2985
  149SAPE   C3416514   6.211   1.350  10.284 -0.1626 -0.4706 -0.0376
  149SAPE   H4X16515   6.124   1.411  10.253 -0.9472  0.2196  3.3668
  149SAPE   H4Y16516   6.176   1.252  10.325  0.2485  0.1476  1.8395
  149SAPE   C3516517   6.311   1.340  10.162  0.0258 -0.0020  0.1660
  149SAPE   H5X16518   6.376   1.251  10.173  0.5140  0.2228 -0.8453
  149SAPE   H5Y16519   6.373   1.429  10.138 -1.0676  0.5495 -0.6876
  149SAPE   C3616520   6.230   1.328  10.035 -0.2155 -0.2594 -0.6784
  149SAPE   H6X16521   6.158   1.413  10.033 -0.4066 -0.3522  1.4687
  149SAPE   H6Y16522   6.159   1.244  10.052  1.8055 -1.9496 -0.3334
  149SAPE   C3716523   6.304   1.301   9.908 -0.2629 -0.2662  0.2599
  149SAPE   H7X16524   6.378   1.219   9.919 -1.0092 -1.5256 -3.3097
  149SAPE   H7Y16525   6.365   1.392   9.895 -3.0061  1.4507 -1.0546
  149SAPE   C3816526   6.212   1.287   9.788  0.2660  0.2338 -0.5706
  149SAPE   H8X16527   6.158   1.383   9.770 -0.3637 -0.2227 -1.1911
  149SAPE   H8Y16528   6.128   1.217   9.813  0.9244 -0.1211  0.6788
  149SAPE   C3916529   6.278   1.246   9.649  0.9113 -0.1320  0.1733
  149SAPE   H9X16530   6.272   1.135   9.651 -2.9518 -0.0151  0.2965
  149SAPE   H9Y16531   6.383   1.279   9.657  2.0307 -2.7196 -2.9236
  149SAPE  C31016532   6.201   1.299   9.534  0.2584  0.3084  0.3199
  149SAPE  H10X16533   6.187   1.408   9.553  0.5226 -0.1547  3.4655
  149SAPE  H10Y16534   6.098   1.259   9.535  0.3301  0.1077  1.6798
  149SAPE  C31116535   6.277   1.288   9.394 -0.9340 -0.0979 -0.2785
  149SAPE  H11X16536   6.275   1.180   9.370 -0.3933 -0.5790  1.6998
  149SAPE  H11Y16537   6.386   1.307   9.407 -1.3727  2.7307 -0.4825
  149SAPE  C31216538   6.204   1.363   9.289  0.1107 -1.1753  0.0393
  149SAPE  H12X16539   6.223   1.472   9.295 -3.0817 -0.6030  0.9426
  149SAPE  H12Y16540   6.096   1.341   9.306 -1.1461  3.4312 -1.1135
  149SAPE  C31316541   6.253   1.316   9.148  0.5669  1.1100 -0.3098
  149SAPE  H13X16542   6.247   1.206   9.135 -0.7079  1.6201 -5.1618
  149SAPE  H13Y16543   6.358   1.351   9.134 -0.3047  3.4782 -1.2979
  149SAPE  C31416544   6.170   1.385   9.038 -0.4213 -0.0428 -0.2600
  149SAPE  H14X16545   6.156   1.495   9.045  0.1243  0.0833 -0.9710
  149SAPE  H14Y16546   6.066   1.349   9.051  0.4758 -2.9477 -0.5971
  149SAPE  C31516547   6.223   1.362   8.900  0.1688 -0.4026  0.5121
  149SAPE  H15X16548   6.326   1.401   8.888 -0.5036  1.0454 -0.7454
  149SAPE  H15Y16549   6.160   1.415   8.825  1.0700 -0.0530  0.0007
  149SAPE  C31616550   6.227   1.217   8.849 -0.3521  0.0211  0.5533
  149SAPE  H16X16551   6.125   1.180   8.828 -0.1651 -0.4219  0.4075
  149SAPE  H16Y16552   6.257   1.140   8.924  1.1019  0.6645  0.6498
  149SAPE  C31716553   6.318   1.187   8.735  0.5049 -0.3808 -0.2273
  149SAPE  H17X16554   6.421   1.218   8.760  0.3703 -0.3238  0.2574
  149SAPE  H17Y16555   6.283   1.245   8.647 -1.7155 -1.4186 -0.0747
  149SAPE  C31816556   6.318   1.041   8.692 -0.3357 -0.6138 -0.6352
  149SAPE  H18X16557   6.394   1.024   8.613 -1.7132 -1.8916 -1.7164
  149SAPE  H18Y16558   6.217   1.007   8.660 -1.5874  2.3055  0.1004
  149SAPE  H18Z16559   6.344   0.984   8.784  0.4277 -2.1595 -1.7759
  150SAPE     N16560   1.107   1.376  10.797 -0.4740 -0.9818 -0.1261
  150SAPE   HN116561   1.005   1.363  10.811 -0.5723 -0.4272 -0.2969
  150SAPE   HN216562   1.157   1.395  10.887 -0.9300 -0.0920 -0.0531
  150SAPE   HN316563   1.108   1.460  10.735 -1.9903 -1.6106 -1.0268
  150SAPE   C1216564   1.179   1.258  10.739  0.1507 -0.5252 -0.2512
  150SAPE  H12A16565   1.137   1.234  10.639 -1.6099 -1.4569  0.6752
  150SAPE  H12B16566   1.139   1.174  10.801  0.1799  0.1452  0.6944
  150SAPE   C1116567   1.331   1.279  10.739  0.2627  0.0819 -0.4664
  150SAPE  H11A16568   1.360   1.376  10.694 -1.0341  2.0870  2.8770
  150SAPE  H11B16569   1.375   1.191  10.687 -0.8560  0.0286 -1.3220
  150SAPE     P16570   1.524   1.330  10.907 -0.2637 -0.0265 -0.0573
  150SAPE   O1316571   1.528   1.471  10.851  0.0012 -0.5793 -0.4381
  150SAPE   O1416572   1.550   1.319  11.054 -0.6119 -0.2086 -0.0951
  150SAPE   O1216573   1.381   1.276  10.875  0.3574 -0.2783 -0.1569
  150SAPE   O1116574   1.617   1.243  10.824 -0.7781  0.0929 -0.0468
  150SAPE    C116575   1.625   1.096  10.840  0.1781  0.5371 -0.3252
  150SAPE    HA16576   1.702   1.056  10.910 -0.7227 -1.6685 -0.5593
  150SAPE    HB16577   1.529   1.053  10.875  1.4761 -2.3455 -0.1689
  150SAPE    C216578   1.651   1.016  10.707 -0.1620  0.5133  0.0214
  150SAPE    HS16579   1.731   1.065  10.647  0.0972  0.0502 -0.0131
  150SAPE   O2116580   1.525   1.027  10.628 -0.2333 -0.0206  0.1773
  150SAPE   C2116581   1.528   0.999  10.499  0.0171 -0.3044  0.5326
  150SAPE   O2216582   1.632   0.981  10.439  0.9729 -0.5027 -0.4725
  150SAPE   C2216583   1.380   1.001  10.451 -0.0747 -0.0755  0.7799
  150SAPE   H2R16584   1.334   0.912  10.501 -1.3874  1.5386  2.5313
  150SAPE   H2S16585   1.325   1.089  10.491 -0.3619 -0.3226  0.9327
  150SAPE    C316586   1.691   0.865  10.735  0.2911 -0.0790  0.8160
  150SAPE    HX16587   1.612   0.809  10.790 -0.5733 -0.0516 -0.3925
  150SAPE    HY16588   1.770   0.874  10.812 -0.0409  2.5299  0.8989
  150SAPE   O3116589   1.721   0.793  10.612  0.2669 -0.0067  0.4278
  150SAPE   C3116590   1.849   0.799  10.570 -1.0063  0.3641 -0.4430
  150SAPE   O3216591   1.937   0.853  10.636  0.2970 -0.0961  0.0220
  150SAPE   C3216592   1.867   0.705  10.448 -0.3396 -0.2713  0.1768
  150SAPE   H2X16593   1.778   0.711  10.382  0.0662 -0.0812 -0.3579
  150SAPE   H2Y16594   1.875   0.598  10.478 -2.6927 -0.4569  0.1889
  150SAPE   C2316595   1.364   1.007  10.288 -0.4897 -0.3528  0.9988
  150SAPE   H3R16596   1.412   0.911  10.257 -2.9222 -0.5874 -2.2016
  150SAPE   H3S16597   1.429   1.085  10.244 -1.5495  0.5139  0.9653
  150SAPE   C2416598   1.221   1.011  10.232 -1.0752  0.2878 -0.6574
  150SAPE   H4R16599   1.166   0.917  10.249 -2.1158  0.7921 -1.2199
  150SAPE   H4S16600   1.222   1.019  10.122  0.6494  1.3394 -0.5932
  150SAPE   C2516601   1.133   1.126  10.283 -0.1234  0.8674  0.2269
  150SAPE   H5R16602   1.109   1.109  10.389 -0.1342  2.2554  0.4577
  150SAPE   C2616603   1.075   1.225  10.215 -0.2482 -0.2826 -0.3816
  150SAPE   H6R16604   1.014   1.295  10.274  0.8451  1.0115 -0.7597
  150SAPE   C2716605   1.085   1.247  10.063  0.2767  0.3708  0.6263
  150SAPE   H7R16606   1.189   1.222  10.032 -0.1950 -0.5504 -0.2175
  150SAPE   H7S16607   1.093   1.355  10.039  0.3320  0.4580  1.0245
  150SAPE   C2816608   0.982   1.176   9.976  0.0674  0.2096  0.8066
  150SAPE   H8R16609   0.907   1.125  10.038  1.6494 -2.7208  0.4189
  150SAPE   C2916610   0.997   1.152   9.845 -0.0229 -0.0847  0.7538
  150SAPE   H9R16611   0.914   1.112   9.784  0.9546 -1.6058  0.4010
  150SAPE  C21016612   1.111   1.168   9.746  0.1236 -0.1916  0.7477
  150SAPE  H10R16613   1.101   1.078   9.681 -0.3407 -0.1532  0.7627
  150SAPE  H10S16614   1.215   1.162   9.784 -0.2516 -1.0838  1.6384
  150SAPE  C21116615   1.103   1.292   9.660 -0.0512 -0.4949 -0.4471
  150SAPE  H11R16616   1.057   1.375   9.715  0.7213 -1.8113  2.2628
  150SAPE  C21216617   1.125   1.300   9.529  0.3102  0.0184 -0.0040
  150SAPE  H12R16618   1.118   1.400   9.483 -0.8056 -0.1282 -0.1679
  150SAPE  C21316619   1.170   1.192   9.440 -0.3869 -0.0564 -0.4705
  150SAPE  H13R16620   1.094   1.180   9.361 -0.5494 -0.6407 -0.2280
  150SAPE  H13S16621   1.193   1.099   9.496 -1.7925 -1.1890 -1.7419
  150SAPE  C21416622   1.299   1.239   9.386 -1.0820 -0.2282 -0.0722
  150SAPE  H14R16623   1.381   1.218   9.457 -0.9845  0.9705  0.1789
  150SAPE  C21516624   1.334   1.254   9.253  0.0680  0.9227 -0.4730
  150SAPE  H15R16625   1.438   1.281   9.229  1.2437 -3.7073 -1.2000
  150SAPE  C21616626   1.266   1.221   9.123 -0.4870 -1.0082 -0.4483
  150SAPE  H16R16627   1.162   1.186   9.142 -1.7623  1.9128 -1.7214
  150SAPE  H16S16628   1.316   1.140   9.067  1.7870  0.9360 -1.3205
  150SAPE  C21716629   1.272   1.343   9.026 -0.0229 -0.4799  0.6243
  150SAPE  H17R16630   1.376   1.382   9.029 -0.5400  0.8624  1.3847
  150SAPE  H17S16631   1.213   1.429   9.063 -0.8536  0.2050 -2.1614
  150SAPE  C21816632   1.234   1.309   8.878  0.2570 -0.2661  0.4899
  150SAPE  H18R16633   1.301   1.224   8.851 -0.5997 -1.7912  2.9438
  150SAPE  H18S16634   1.267   1.395   8.816  0.4229 -0.1284  0.7704
  150SAPE  C21916635   1.085   1.274   8.853 -0.3222  0.0556 -0.1429
  150SAPE  H19R16636   1.015   1.355   8.884 -1.0739 -0.1329 -1.3024
  150SAPE  H19S16637   1.062   1.179   8.906 -0.5586  0.6178  0.7648
  150SAPE  C22016638   1.070   1.249   8.704 -0.6662 -0.3262 -0.0228
  150SAPE  H20R16639   0.962   1.225   8.688 -0.5828 -1.0457  0.4861
  150SAPE  H20S16640   1.117   1.153   8.673  1.2262  0.8416 -0.8473
  150SAPE  H20T16641   1.108   1.336   8.646  0.6742  1.0494  2.7963
  150SAPE   C3316642   1.987   0.750  10.360 -0.5492 -0.5730  0.1712
  150SAPE   H3X16643   2.029   0.664  10.304 -0.3900 -0.9844  0.9220
  150SAPE   H3Y16644   2.071   0.789  10.421  0.7405 -0.8674 -1.3884
  150SAPE   C3416645   1.949   0.853  10.253  0.0099 -0.3149  0.4696
  150SAPE   H4X16646   1.919   0.951  10.294  1.2497  0.2778 -0.0276
  150SAPE   H4Y16647   1.858   0.810  10.205  0.7550 -1.8645  0.4113
  150SAPE   C3516648   2.050   0.863  10.141 -0.6901  0.8753 -0.6165
  150SAPE   H5X16649   2.073   0.766  10.092 -2.2386  0.0231  0.3150
  150SAPE   H5Y16650   2.148   0.891  10.186 -0.8261 -0.4836  0.5508
  150SAPE   C3616651   2.034   0.967  10.032  0.1676  0.2285  0.1884
  150SAPE   H6X16652   2.120   0.987   9.965  0.5122 -3.4915 -0.6070
  150SAPE   H6Y16653   2.014   1.069  10.073 -1.5001 -0.1642  0.3823
  150SAPE   C3716654   1.910   0.940   9.937 -1.0403  0.0745  0.0053
  150SAPE   H7X16655   1.818   0.923   9.998 -1.1976  0.3045 -0.1676
  150SAPE   H7Y16656   1.940   0.844   9.890  1.3149  0.9194 -0.2464
  150SAPE   C3816657   1.889   1.047   9.828  0.2885  0.2152 -0.0125
  150SAPE   H8X16658   1.992   1.064   9.790 -0.7831  1.9702 -2.2175
  150SAPE   H8Y16659   1.849   1.140   9.873 -1.7738 -0.6753  0.0278
  150SAPE   C3916660   1.803   0.997   9.710 -0.6179  0.0204  0.7188
  150SAPE   H9X16661   1.708   0.963   9.755 -0.3418 -0.7002  0.7698
  150SAPE   H9Y16662   1.851   0.907   9.665 -3.4362 -1.7895  1.1979
  150SAPE  C31016663   1.761   1.096   9.604  0.4651 -0.6688 -0.1194
  150SAPE  H10X16664   1.847   1.113   9.535 -1.8124 -0.9567 -3.1123
  150SAPE  H10Y16665   1.741   1.194   9.652 -2.7938 -2.1646  1.6905
  150SAPE  C31116666   1.633   1.056   9.529  0.3237 -0.1757  0.2592
  150SAPE  H11X16667   1.605   1.143   9.465  0.4296 -1.2004 -1.2144
  150SAPE  H11Y16668   1.552   1.032   9.601 -0.6177  3.1128  0.3680
  150SAPE  C31216669   1.650   0.933   9.442 -0.6150 -0.1317 -0.5414
  150SAPE  H12X16670   1.659   0.862   9.526  1.4167  1.5264  0.6694
  150SAPE  H12Y16671   1.749   0.923   9.394 -0.6557  0.0771 -0.6703
  150SAPE  C31316672   1.527   0.877   9.365 -0.0442  0.4626  0.6216
  150SAPE  H13X16673   1.427   0.903   9.408  0.1439 -1.3365  2.1753
  150SAPE  H13Y16674   1.534   0.767   9.376 -1.5146  0.4774  1.9599
  150SAPE  C31416675   1.538   0.916   9.214 -0.5390 -0.8217 -0.3408
  150SAPE  H14X16676   1.632   0.867   9.180 -0.4795 -1.8836  1.3109
  150SAPE  H14Y16677   1.552   1.025   9.197 -0.6351 -0.7238  0.2134
  150SAPE  C31516678   1.428   0.869   9.129  0.4373  0.5943 -0.7627
  150SAPE  H15X16679   1.343   0.937   9.153  0.6821  0.2677  1.1454
  150SAPE  H15Y16680   1.400   0.766   9.157 -0.5113  0.4356 -2.2630
  150SAPE  C31616681   1.451   0.870   8.980  0.0761  0.4990 -0.3192
  150SAPE  H16X16682   1.549   0.821   8.959  0.7806  1.9201 -0.4575
  150SAPE  H16Y16683   1.466   0.968   8.929 -2.8324  1.5074  0.6638
  150SAPE  C31716684   1.344   0.805   8.888  0.5085 -0.4851  0.3695
  150SAPE  H17X16685   1.314   0.701   8.912 -0.5516 -0.6020 -1.4279
  150SAPE  H17Y16686   1.396   0.814   8.791  0.1180 -1.1042  0.1001
  150SAPE  C31816687   1.218   0.892   8.874  0.4230  0.5448  0.3217
  150SAPE  H18X16688   1.182   0.904   8.979 -0.7708 -0.7642  0.0760
  150SAPE  H18Y16689   1.137   0.837   8.823 -1.4732  2.0580  1.6000
  150SAPE  H18Z16690   1.244   0.985   8.819 -3.7855  0.0408 -2.7350
  151SAPE     N16691   5.715   4.383  10.435 -0.1483 -0.5855  0.2087
  151SAPE   HN116692   5.722   4.301  10.499 -2.5212 -1.4789 -0.5941
  151SAPE   HN216693   5.769   4.359  10.350  0.3237 -1.2360  0.6847
  151SAPE   HN316694   5.754   4.469  10.477 -2.6844  1.0261 -0.5809
  151SAPE   C1216695   5.573   4.420  10.397  0.0032  0.2204  0.8151
  151SAPE  H12A16696   5.512   4.412  10.490 -0.5690  0.6097  0.4740
  151SAPE  H12B16697   5.534   4.332  10.342 -1.3680 -0.6407  3.0910
  151SAPE   C1116698   5.559   4.552  10.318 -0.0367  0.1435  0.3896
  151SAPE  H11A16699   5.451   4.575  10.305  0.2622  0.8548 -0.9616
  151SAPE  H11B16700   5.615   4.551  10.222 -1.4170  1.9222 -0.4782
  151SAPE     P16701   5.599   4.795  10.423  0.1323 -0.0131 -0.1216
  151SAPE   O1316702   5.521   4.819  10.548 -0.0494  0.4021  0.5321
  151SAPE   O1416703   5.730   4.862  10.409 -0.0774 -0.0519  0.5594
  151SAPE   O1216704   5.624   4.642  10.401 -0.1653 -0.4239 -0.8244
  151SAPE   O1116705   5.514   4.839  10.295 -0.7678 -0.0618  0.4487
  151SAPE    C116706   5.462   4.968  10.281  0.1174 -0.5240  0.1008
  151SAPE    HA16707   5.373   4.966  10.214 -0.4140  2.0251  0.6832
  151SAPE    HB16708   5.422   5.013  10.374 -2.0521  2.2622 -2.0849
  151SAPE    C216709   5.573   5.067  10.231 -0.1985  0.3857  0.4879
  151SAPE    HS16710   5.652   5.078  10.309  0.0173 -1.0044  0.4738
  151SAPE   O2116711   5.493   5.185  10.208 -0.1510 -0.1806 -0.2706
  151SAPE   C2116712   5.566   5.292  10.190  0.1906 -0.5727  0.8275
  151SAPE   O2216713   5.687   5.297  10.199 -0.6997 -0.6072 -0.5672
  151SAPE   C2216714   5.478   5.410  10.144  0.1443  0.6052  0.3288
  151SAPE   H2R16715   5.388   5.358  10.104 -0.2029  1.8062 -0.4805
  151SAPE   H2S16716   5.466   5.469  10.238  0.4867 -0.5305  1.1036
  151SAPE    C316717   5.637   5.005  10.103 -0.0471  0.1370 -0.5906
  151SAPE    HX16718   5.553   4.988  10.032 -0.9451  0.3043  0.4276
  151SAPE    HY16719   5.676   4.903  10.128  0.1992 -0.4384 -3.1998
  151SAPE   O3116720   5.734   5.091  10.038  0.0346 -0.3521  0.0177
  151SAPE   C3116721   5.851   5.100  10.090 -0.4137  0.2120  0.0719
  151SAPE   O3216722   5.886   5.041  10.190  0.3590  0.3870  0.0002
  151SAPE   C3216723   5.945   5.189   9.996  0.6262 -0.3255  0.7339
  151SAPE   H2X16724   6.053   5.179  10.019  1.2211 -1.5991 -2.2795
  151SAPE   H2Y16725   5.917   5.293  10.021  0.2924 -0.2127 -0.1080
  151SAPE   C2316726   5.543   5.485  10.027  0.2596  0.1101  0.5183
  151SAPE   H3R16727   5.558   5.430   9.932 -1.6564  2.5284 -1.2449
  151SAPE   H3S16728   5.645   5.522  10.054  0.8514 -0.1122 -1.3742
  151SAPE   C2416729   5.455   5.607   9.986  0.8411 -0.3047 -0.1758
  151SAPE   H4R16730   5.507   5.679   9.919 -1.4824  1.6616  0.0754
  151SAPE   H4S16731   5.457   5.662  10.083  2.5054 -1.5693  0.5201
  151SAPE   C2516732   5.312   5.584   9.940 -0.2093  0.2240 -0.1247
  151SAPE   H5R16733   5.245   5.568  10.026 -0.8433  1.9670 -0.2739
  151SAPE   C2616734   5.259   5.587   9.813 -0.1587 -0.0152 -0.3284
  151SAPE   H6R16735   5.154   5.559   9.797  0.3003 -2.1620  0.2431
  151SAPE   C2716736   5.349   5.612   9.688 -0.3544  0.3811 -0.0817
  151SAPE   H7R16737   5.373   5.510   9.651 -2.6863 -0.5138  0.7630
  151SAPE   H7S16738   5.453   5.643   9.714 -0.5302  1.5307 -0.7290
  151SAPE   C2816739   5.291   5.714   9.606  0.0788  0.8926  0.1828
  151SAPE   H8R16740   5.246   5.798   9.662 -0.3403  0.9886 -0.2898
  151SAPE   C2916741   5.315   5.732   9.475  0.4080 -0.3188 -0.0236
  151SAPE   H9R16742   5.266   5.816   9.426  0.0943 -0.0178  0.7890
  151SAPE  C21016743   5.400   5.640   9.396 -0.8387  0.2091 -1.1057
  151SAPE  H10R16744   5.477   5.580   9.448  0.3138 -0.1093 -3.1510
  151SAPE  H10S16745   5.462   5.708   9.334  0.2395 -0.0743 -0.3472
  151SAPE  C21116746   5.318   5.531   9.322 -0.5955  0.2010 -0.8286
  151SAPE  H11R16747   5.255   5.456   9.373 -0.3798  0.9428  0.5504
  151SAPE  C21216748   5.317   5.538   9.185 -0.6268  0.3890 -0.3803
  151SAPE  H12R16749   5.273   5.461   9.120  0.4084  0.3962 -1.1046
  151SAPE  C21316750   5.390   5.644   9.107 -0.4218 -0.1945 -0.0624
  151SAPE  H13R16751   5.484   5.666   9.161  0.2890 -1.1377 -0.9032
  151SAPE  H13S16752   5.327   5.734   9.122  1.1408  0.4884  2.6677
  151SAPE  C21416753   5.428   5.610   8.968 -0.1192  0.2358  0.3686
  151SAPE  H14R16754   5.410   5.507   8.934 -0.2091  0.6291 -0.7749
  151SAPE  C21516755   5.478   5.701   8.881  0.5629  0.3204  0.6279
  151SAPE  H15R16756   5.516   5.663   8.785 -0.3090 -1.0467  0.8265
  151SAPE  C21616757   5.497   5.847   8.911  0.6690  0.4100  0.5663
  151SAPE  H16R16758   5.592   5.875   8.861  0.3759  0.5999  0.1139
  151SAPE  H16S16759   5.517   5.875   9.016  1.1455  0.9055  0.3460
  151SAPE  C21716760   5.378   5.926   8.851  0.1217 -0.1747  0.2218
  151SAPE  H17R16761   5.386   6.029   8.890 -2.6410 -0.7371  2.4264
  151SAPE  H17S16762   5.278   5.888   8.879 -0.0111 -0.9264 -1.2150
  151SAPE  C21816763   5.383   5.945   8.696  0.5582 -0.5492 -0.2899
  151SAPE  H18R16764   5.380   5.854   8.632  1.5462  0.7758 -2.2729
  151SAPE  H18S16765   5.478   5.994   8.667  0.3332 -0.4145 -0.8106
  151SAPE  C21916766   5.264   6.039   8.648  0.2329 -0.1058 -0.3736
  151SAPE  H19R16767   5.304   6.081   8.553 -0.4314  2.0168  0.2682
  151SAPE  H19S16768   5.261   6.133   8.708 -2.6323 -0.8575  0.7065
  151SAPE  C22016769   5.129   5.980   8.631 -0.2857  0.4355  0.5972
  151SAPE  H20R16770   5.054   6.051   8.588  0.3834  2.5310  2.8044
  151SAPE  H20S16771   5.077   5.961   8.727 -1.1030 -0.1719  0.0495
  151SAPE  H20T16772   5.135   5.890   8.566  0.2196  0.7307  0.2307
  151SAPE   C3316773   5.932   5.178   9.844  0.4218  0.2360  0.1588
  151SAPE   H3X16774   5.831   5.216   9.819  1.3815  2.6058 -0.2195
  151SAPE   H3Y16775   5.936   5.071   9.812 -2.8043  0.4344 -1.0784
  151SAPE   C3416776   6.049   5.240   9.759 -0.2735 -0.8622 -0.2723
  151SAPE   H4X16777   6.140   5.178   9.772 -0.7083 -1.6420 -0.9338
  151SAPE   H4Y16778   6.071   5.344   9.791 -1.3314 -0.7165  0.0054
  151SAPE   C3516779   6.004   5.230   9.612  0.5015 -0.0141  0.1381
  151SAPE   H5X16780   5.928   5.309   9.594  1.0014  0.7692  1.4203
  151SAPE   H5Y16781   5.973   5.125   9.592  0.4403  0.0306 -0.0011
  151SAPE   C3616782   6.124   5.264   9.524  0.4313  0.4193  0.2896
  151SAPE   H6X16783   6.200   5.185   9.545  0.4226  0.3943  0.2306
  151SAPE   H6Y16784   6.166   5.364   9.546  2.3519 -0.7116  1.8849
  151SAPE   C3716785   6.096   5.262   9.372  0.7469 -0.2532 -0.5276
  151SAPE   H7X16786   6.006   5.325   9.351  0.6800  0.0350  0.6146
  151SAPE   H7Y16787   6.063   5.158   9.349 -2.2676  0.1983  1.4789
  151SAPE   C3816788   6.212   5.313   9.285  0.0863  0.0588 -0.1547
  151SAPE   H8X16789   6.285   5.229   9.286 -0.3038 -0.2757  0.1256
  151SAPE   H8Y16790   6.259   5.402   9.332  0.9878 -1.3903  1.7333
  151SAPE   C3916791   6.179   5.333   9.136 -0.5012 -0.0492 -0.1789
  151SAPE   H9X16792   6.114   5.423   9.130  0.3396  0.6372  0.6867
  151SAPE   H9Y16793   6.126   5.252   9.082 -3.0162 -0.3670  2.6407
  151SAPE  C31016794   6.318   5.365   9.062 -0.1188  0.0328  0.0979
  151SAPE  H10X16795   6.379   5.272   9.073 -1.0218 -0.4518  1.1052
  151SAPE  H10Y16796   6.373   5.449   9.108 -1.6211 -0.4993  3.0453
  151SAPE  C31116797   6.299   5.418   8.918 -0.5696  0.0122  0.0325
  151SAPE  H11X16798   6.285   5.528   8.926  2.1401  0.7222 -3.8115
  151SAPE  H11Y16799   6.216   5.372   8.860  0.4365  0.2044 -1.6060
  151SAPE  C31216800   6.430   5.418   8.833 -0.2541  0.5186  0.2285
  151SAPE  H12X16801   6.385   5.442   8.734  1.0696  3.1711  0.2321
  151SAPE  H12Y16802   6.471   5.315   8.836 -0.6151  0.3135 -1.5040
  151SAPE  C31316803   6.536   5.523   8.855 -0.1987  0.3714 -0.8639
  151SAPE  H13X16804   6.585   5.520   8.954 -1.1846 -1.8784 -0.4069
  151SAPE  H13Y16805   6.495   5.626   8.846  0.9187  0.7011 -2.4331
  151SAPE  C31416806   6.658   5.502   8.760 -0.4197  0.3129 -0.2689
  151SAPE  H14X16807   6.689   5.396   8.772  1.8231  1.0404  0.6806
  151SAPE  H14Y16808   6.741   5.543   8.821  1.5188 -3.0090 -0.5866
  151SAPE  C31516809   6.642   5.557   8.618 -0.2350  0.2320 -0.2676
  151SAPE  H15X16810   6.606   5.662   8.617  1.3834  0.9103  3.5038
  151SAPE  H15Y16811   6.568   5.496   8.563  0.3611 -0.7647  0.0176
  151SAPE  C31616812   6.788   5.564   8.557 -0.2917  0.0399 -0.1637
  151SAPE  H16X16813   6.771   5.588   8.450 -1.9368  0.9331  0.2778
  151SAPE  H16Y16814   6.840   5.466   8.560 -1.9544 -0.8328  0.5365
  151SAPE  C31716815   6.866   5.676   8.629 -0.4991  0.4579 -0.3039
  151SAPE  H17X16816   6.912   5.648   8.726  1.9962 -0.1745 -1.6093
  151SAPE  H17Y16817   6.799   5.764   8.634 -0.3139  0.8214 -3.1635
  151SAPE  C31816818   6.990   5.720   8.549  0.2178  0.0131  0.3287
  151SAPE  H18X16819   7.059   5.786   8.606  2.0818 -1.3487 -0.3063
  151SAPE  H18Y16820   6.952   5.766   8.455 -0.6928 -2.1139 -0.3663
  151SAPE  H18Z16821   7.050   5.632   8.519  3.0630  1.3461  1.8853
  152SAPE     N16822   0.639   4.591  10.825  0.1371  0.2145  0.2699
  152SAPE   HN116823   0.552   4.643  10.850 -0.6093 -0.8087 -0.1392
  152SAPE   HN216824   0.689   4.559  10.911 -1.8575 -4.6137 -0.1811
  152SAPE   HN316825   0.703   4.656  10.776  0.6604  0.1636  0.8819
  152SAPE   C1216826   0.596   4.475  10.747 -0.1600 -0.2834 -0.3729
  152SAPE  H12A16827   0.568   4.396  10.820  1.8716 -1.3756 -0.7358
  152SAPE  H12B16828   0.692   4.438  10.705  0.9294  0.6509  1.2618
  152SAPE   C1116829   0.481   4.511  10.640  0.1841  0.0282  0.2987
  152SAPE  H11A16830   0.450   4.413  10.599  0.2083 -0.4738  1.4577
  152SAPE  H11B16831   0.520   4.578  10.560 -0.0256  2.6592  2.3215
  152SAPE     P16832   0.313   4.708  10.708  0.1999  0.2907  0.4230
  152SAPE   O1316833   0.210   4.721  10.814  0.0392  0.3884 -0.6196
  152SAPE   O1416834   0.426   4.807  10.718  0.1979  0.3004 -0.2965
  152SAPE   O1216835   0.361   4.563  10.696 -0.2306  0.1201  0.2428
  152SAPE   O1116836   0.249   4.733  10.566 -1.2316 -0.1640 -0.2472
  152SAPE    C116837   0.128   4.653  10.528  0.1610 -0.8551 -0.0034
  152SAPE    HA16838   0.076   4.601  10.611  1.0893  1.1527  1.8841
  152SAPE    HB16839   0.060   4.733  10.492  2.2336  0.5305 -0.9343
  152SAPE    C216840   0.164   4.550  10.419  0.6214  0.4028  0.0623
  152SAPE    HS16841   0.244   4.482  10.455  0.7017  1.4376  1.8973
  152SAPE   O2116842   0.190   4.615  10.294  0.6458 -0.3289  0.0763
  152SAPE   C2116843   0.283   4.559  10.223  0.7921 -0.3168 -0.3480
  152SAPE   O2216844   0.351   4.461  10.255  0.7376 -0.4654  0.1829
  152SAPE   C2216845   0.294   4.620  10.094  0.1130  0.8283 -0.7900
  152SAPE   H2R16846   0.217   4.557  10.044 -1.1741  0.7300  1.2536
  152SAPE   H2S16847   0.261   4.724  10.116  0.3709  0.6681  0.4084
  152SAPE    C316848   0.035   4.463  10.406  0.1492 -0.2726  0.1019
  152SAPE    HX16849  -0.048   4.534  10.385 -2.8425 -4.1461 -1.9056
  152SAPE    HY16850   0.024   4.415  10.505  2.1154  1.7598  1.3451
  152SAPE   O3116851   0.048   4.363  10.309 -0.4997  0.2086  0.3537
  152SAPE   C3116852  -0.053   4.273  10.316  0.3706 -0.2151  0.0686
  152SAPE   O3216853  -0.150   4.277  10.393  0.3048  0.1724  0.0729
  152SAPE   C3216854  -0.017   4.161  10.214  0.2970 -0.1362 -0.2950
  152SAPE   H2X16855  -0.097   4.090  10.242 -0.6465  1.1156  0.2549
  152SAPE   H2Y16856   0.085   4.126  10.243  0.8184  0.5629 -1.2515
  152SAPE   C2316857   0.432   4.617  10.024  0.0923 -0.4183  0.7103
  152SAPE   H3R16858   0.451   4.509  10.004  0.6025  0.1618 -2.0981
  152SAPE   H3S16859   0.512   4.653  10.092  0.6467  2.2195 -1.2932
  152SAPE   C2416860   0.447   4.701   9.895  0.4211 -0.2276 -0.4780
  152SAPE   H4R16861   0.422   4.809   9.902 -1.9837 -0.5786 -2.6915
  152SAPE   H4S16862   0.375   4.667   9.818 -0.9914 -0.4250  0.9082
  152SAPE   C2516863   0.596   4.700   9.851  0.4818 -0.3562  0.3364
  152SAPE   H5R16864   0.672   4.725   9.926 -0.7421  1.6158  0.9484
  152SAPE   C2616865   0.637   4.672   9.729  1.3390 -0.1781  0.0252
  152SAPE   H6R16866   0.745   4.668   9.707  1.0617  0.1156 -1.3816
  152SAPE   C2716867   0.550   4.645   9.611 -0.1336 -0.2462 -0.2817
  152SAPE   H7R16868   0.609   4.666   9.520 -0.3479  5.3888  0.6955
  152SAPE   H7S16869   0.463   4.714   9.611  0.2027  0.1746 -0.4576
  152SAPE   C2816870   0.480   4.510   9.626  0.2773  0.3702  0.0493
  152SAPE   H8R16871   0.441   4.485   9.726 -0.2490  1.9477  0.2425
  152SAPE   C2916872   0.467   4.417   9.532  0.1892 -0.2205 -0.9897
  152SAPE   H9R16873   0.407   4.331   9.566 -1.8485  2.6274  2.9979
  152SAPE  C21016874   0.515   4.434   9.391 -0.3380 -0.2637 -0.2315
  152SAPE  H10R16875   0.480   4.339   9.345  0.6046 -0.4593 -0.5603
  152SAPE  H10S16876   0.623   4.416   9.377 -0.2708  0.2759 -0.4141
  152SAPE  C21116877   0.466   4.550   9.307 -0.4252  0.5455 -0.4076
  152SAPE  H11R16878   0.455   4.646   9.359 -2.3909  1.6002 -2.6557
  152SAPE  C21216879   0.425   4.545   9.180  0.3606 -0.0591  0.6477
  152SAPE  H12R16880   0.378   4.637   9.144  0.2689 -1.1351 -2.1065
  152SAPE  C21316881   0.423   4.432   9.084  0.1270  0.3475  0.8393
  152SAPE  H13R16882   0.319   4.408   9.054 -0.2646  1.6426  1.1558
  152SAPE  H13S16883   0.477   4.344   9.127 -2.0867 -0.2089  2.5971
  152SAPE  C21416884   0.500   4.459   8.959  0.3478  0.4340  0.2369
  152SAPE  H14R16885   0.588   4.396   8.942 -0.6219 -0.7955 -0.3428
  152SAPE  C21516886   0.485   4.563   8.876 -0.3820 -0.4670 -0.0835
  152SAPE  H15R16887   0.536   4.557   8.779 -2.0957 -2.7850 -0.8934
  152SAPE  C21616888   0.381   4.673   8.881 -0.1972  0.3834  0.1232
  152SAPE  H16R16889   0.435   4.763   8.916  0.0710  0.1989  0.1756
  152SAPE  H16S16890   0.298   4.665   8.955 -0.6283 -1.1126 -0.5121
  152SAPE  C21716891   0.320   4.701   8.744 -0.5650  0.6381  0.2527
  152SAPE  H17R16892   0.238   4.775   8.737 -2.0720 -1.1337 -1.3382
  152SAPE  H17S16893   0.266   4.612   8.703  1.7607 -0.9280  0.4868
  152SAPE  C21816894   0.422   4.769   8.640 -0.0307  1.1408 -0.4873
  152SAPE  H18R16895   0.506   4.697   8.631 -2.5852 -1.8809 -0.9464
  152SAPE  H18S16896   0.460   4.862   8.688  0.3372  0.6462  0.1928
  152SAPE  C21916897   0.361   4.783   8.501 -0.0489  0.0048 -0.6885
  152SAPE  H19R16898   0.259   4.824   8.512 -0.0898 -0.6168  1.4194
  152SAPE  H19S16899   0.361   4.680   8.459  2.5137 -1.0850  1.7936
  152SAPE  C22016900   0.452   4.857   8.403  0.4132 -0.2763  0.0944
  152SAPE  H20R16901   0.556   4.823   8.422  0.6834 -0.7288 -2.0794
  152SAPE  H20S16902   0.440   4.968   8.408 -0.1417 -0.3451  0.2845
  152SAPE  H20T16903   0.438   4.821   8.299 -1.0467  0.0939  0.1519
  152SAPE   C3316904  -0.026   4.206  10.067  0.0453 -0.1595 -0.5371
  152SAPE   H3X16905   0.050   4.286  10.058  0.2959 -0.4022 -0.5863
  152SAPE   H3Y16906  -0.126   4.246  10.042  1.3817  2.6971 -1.5195
  152SAPE   C3416907   0.011   4.090   9.977 -0.7285 -0.2319  0.5129
  152SAPE   H4X16908  -0.053   4.003  10.000 -0.4426 -1.0370 -1.6124
  152SAPE   H4Y16909   0.111   4.053  10.007 -0.1440  2.3098  1.8361
  152SAPE   C3516910  -0.009   4.141   9.834  0.0913  0.0890  0.0770
  152SAPE   H5X16911   0.056   4.227   9.809 -0.7711  0.7896  0.2150
  152SAPE   H5Y16912  -0.114   4.172   9.815  0.0879  0.7880  1.2096
  152SAPE   C3616913   0.005   4.028   9.729  0.6482 -0.2586 -0.4925
  152SAPE   H6X16914  -0.083   3.962   9.741  2.0056 -1.7000  1.9730
  152SAPE   H6Y16915   0.098   3.970   9.743 -0.3868 -2.1869 -1.5139
  152SAPE   C3716916   0.001   4.088   9.590 -0.4273 -0.3298  0.1454
  152SAPE   H7X16917   0.082   4.164   9.588  0.2234 -0.9720  1.4198
  152SAPE   H7Y16918  -0.093   4.142   9.568  0.6149  0.6221 -2.0669
  152SAPE   C3816919   0.013   3.989   9.473  0.2662 -0.5900  0.1082
  152SAPE   H8X16920  -0.079   3.926   9.470  0.4731 -0.8978  0.2248
  152SAPE   H8Y16921   0.099   3.921   9.491  0.7527  0.1936  0.7529
  152SAPE   C3916922   0.015   4.049   9.329 -0.3251  0.4560 -0.1791
  152SAPE   H9X16923  -0.075   4.111   9.306  0.2672  2.3487  2.4049
  152SAPE   H9Y16924   0.013   3.965   9.256 -1.8876 -0.2274  0.6350
  152SAPE  C31016925   0.125   4.151   9.295  0.1217  0.3186  0.0355
  152SAPE  H10X16926   0.230   4.115   9.291  0.1575  0.3529  0.6746
  152SAPE  H10Y16927   0.123   4.232   9.372  0.0283  0.0691  0.2936
  152SAPE  C31116928   0.096   4.219   9.163 -0.4894 -0.0460 -0.0154
  152SAPE  H11X16929   0.145   4.318   9.158 -0.2251 -0.1109  1.0530
  152SAPE  H11Y16930  -0.011   4.245   9.151  0.0395  1.2549 -2.2159
  152SAPE  C31216931   0.129   4.133   9.038  0.1946 -0.3713  0.0156
  152SAPE  H12X16932   0.059   4.046   9.040 -1.8806  1.2304 -0.5023
  152SAPE  H12Y16933   0.234   4.103   9.055  0.7163  1.1419 -0.5427
  152SAPE  C31316934   0.115   4.213   8.908 -0.4846  0.1118  0.6661
  152SAPE  H13X16935   0.206   4.274   8.892 -0.0211 -0.7075  0.1460
  152SAPE  H13Y16936   0.021   4.270   8.914  1.1994  3.5381 -3.6190
  152SAPE  C31416937   0.103   4.143   8.767 -0.8707  0.0048 -0.7830
  152SAPE  H14X16938   0.019   4.073   8.787 -0.6725 -0.7079 -2.3651
  152SAPE  H14Y16939   0.194   4.081   8.750 -0.6685 -0.8532  2.9738
  152SAPE  C31516940   0.069   4.223   8.641  0.2212  0.1973  0.2209
  152SAPE  H15X16941  -0.020   4.288   8.651  1.8120  2.5488 -0.2501
  152SAPE  H15Y16942   0.046   4.146   8.564  1.5797  2.0341 -2.1214
  152SAPE  C31616943   0.185   4.303   8.587  0.0511 -0.7102  0.0390
  152SAPE  H16X16944   0.276   4.242   8.569 -0.5389 -1.4370 -0.5693
  152SAPE  H16Y16945   0.223   4.376   8.661 -1.8783 -0.1093  0.4765
  152SAPE  C31716946   0.154   4.397   8.466  0.0437 -0.6163  0.5176
  152SAPE  H17X16947   0.111   4.330   8.388 -0.8696  0.7987 -0.2145
  152SAPE  H17Y16948   0.251   4.435   8.427 -0.9093 -0.6664 -2.0031
  152SAPE  C31816949   0.063   4.506   8.499  0.1052 -0.5077  0.0890
  152SAPE  H18X16950   0.095   4.546   8.598  1.5469 -1.3394 -0.0211
  152SAPE  H18Y16951  -0.039   4.466   8.515 -0.6843  1.5033  0.1868
  152SAPE  H18Z16952   0.047   4.573   8.412  4.0743  1.9551  1.1153
  153SAPE     N16953   0.552   6.374  10.781 -0.6602 -0.5479 -0.2287
  153SAPE   HN116954   0.633   6.323  10.742 -0.1118 -0.1992  0.4464
  153SAPE   HN216955   0.579   6.474  10.794 -1.1348 -0.0733 -2.6280
  153SAPE   HN316956   0.524   6.343  10.876  2.6998 -1.8765  0.3715
  153SAPE   C1216957   0.438   6.351  10.687  0.2211  0.8428 -0.4153
  153SAPE  H12A16958   0.479   6.362  10.584  0.4885 -0.3878 -0.4416
  153SAPE  H12B16959   0.374   6.442  10.690 -0.5784  0.2658  0.1262
  153SAPE   C1116960   0.365   6.214  10.707  0.3305 -0.3877  0.2279
  153SAPE  H11A16961   0.282   6.209  10.634 -0.6073 -0.8939  1.3282
  153SAPE  H11B16962   0.320   6.212  10.808  0.8796 -1.5108  0.4557
  153SAPE     P16963   0.439   5.958  10.652  0.5910  0.1579  0.3437
  153SAPE   O1316964   0.548   5.906  10.570 -0.2629 -0.2075 -0.5928
  153SAPE   O1416965   0.397   5.894  10.777 -0.1092 -0.0110 -0.1610
  153SAPE   O1216966   0.462   6.113  10.693  0.4174 -0.0650  0.1906
  153SAPE   O1116967   0.315   5.973  10.550 -0.3066 -0.3515 -0.5568
  153SAPE    C116968   0.236   5.859  10.518 -0.3807 -0.1604 -0.0709
  153SAPE    HA16969   0.292   5.765  10.531 -1.6769 -1.1192 -1.2983
  153SAPE    HB16970   0.153   5.847  10.592  0.6420 -2.9166  0.6839
  153SAPE    C216971   0.184   5.871  10.373 -0.0999 -0.3432  0.5118
  153SAPE    HS16972   0.092   5.809  10.366 -0.1055 -0.1422 -1.3285
  153SAPE   O2116973   0.271   5.840  10.271 -0.2721  0.2927 -0.0983
  153SAPE   C2116974   0.302   5.712  10.258  0.4539  0.7395  0.4093
  153SAPE   O2216975   0.241   5.622  10.318  0.0027 -0.0990 -0.0323
  153SAPE   C2216976   0.403   5.676  10.159  0.8037  0.4857  0.3814
  153SAPE   H2R16977   0.359   5.671  10.057 -0.8497  1.1670  1.0417
  153SAPE   H2S16978   0.479   5.758  10.159  1.0919  0.2255 -0.7098
  153SAPE    C316979   0.138   6.016  10.342  0.3574  0.8480 -0.2258
  153SAPE    HX16980   0.226   6.082  10.354  1.5340 -0.6622 -0.4937
  153SAPE    HY16981   0.065   6.041  10.422  1.8672  2.1589  0.7805
  153SAPE   O3116982   0.096   6.028  10.203  0.1517 -0.1343  0.5059
  153SAPE   C3116983  -0.012   5.984  10.167  0.3823 -0.4414 -0.0468
  153SAPE   O3216984  -0.095   5.924  10.228  0.0682  0.5586  0.3405
  153SAPE   C3216985  -0.031   6.019  10.022 -0.2216  1.3675  0.4276
  153SAPE   H2X16986   0.041   6.098   9.990  0.1123  1.1519  0.6482
  153SAPE   H2Y16987  -0.137   6.049  10.005 -0.2407  0.7810 -0.5474
  153SAPE   C2316988   0.473   5.539  10.181 -0.2923 -0.2956  0.0892
  153SAPE   H3R16989   0.402   5.455  10.188 -1.8393  1.0908  1.7432
  153SAPE   H3S16990   0.543   5.535  10.268  2.1456  0.1995 -1.7935
  153SAPE   C2416991   0.572   5.524  10.064  0.6470  0.8315  0.4554
  153SAPE   H4R16992   0.648   5.447  10.087 -0.1877  0.2191  1.2038
  153SAPE   H4S16993   0.634   5.615  10.076 -0.7439  2.0551 -1.4266
  153SAPE   C2516994   0.497   5.491   9.933 -0.2449  0.9223 -0.4050
  153SAPE   H5R16995   0.405   5.434   9.954  1.5950 -2.2144 -0.6576
  153SAPE   C2616996   0.543   5.513   9.814 -0.1447 -0.6836 -0.4114
  153SAPE   H6R16997   0.485   5.478   9.728  0.2910 -0.0720 -0.9565
  153SAPE   C2716998   0.663   5.590   9.767 -0.0147 -0.1294 -0.4065
  153SAPE   H7R16999   0.725   5.611   9.857 -3.1741  0.5157  1.7051
  153SAPE   H7S17000   0.629   5.683   9.716  2.0972  0.9180  0.0499
  153SAPE   C2817001   0.730   5.516   9.653  0.7957  0.3021  0.1656
  153SAPE   H8R17002   0.784   5.424   9.681 -0.1445 -0.0626  0.7940
  153SAPE   C2917003   0.716   5.534   9.520 -0.2744 -0.0413 -0.0830
  153SAPE   H9R17004   0.759   5.459   9.452  0.5726  1.0449 -0.7655
  153SAPE  C21017005   0.623   5.641   9.458 -0.0421  0.6623  0.7071
  153SAPE  H10R17006   0.638   5.743   9.498 -0.8998  1.5628 -1.2215
  153SAPE  H10S17007   0.527   5.602   9.497  0.7268 -1.1398  0.8990
  153SAPE  C21117008   0.603   5.644   9.311 -0.2668  1.0553 -0.4468
  153SAPE  H11R17009   0.530   5.569   9.277 -0.5073  2.1772 -2.5051
  153SAPE  C21217010   0.675   5.719   9.222  0.1865  0.4296  0.2586
  153SAPE  H12R17011   0.642   5.700   9.119 -0.7227 -1.9744  0.9637
  153SAPE  C21317012   0.785   5.816   9.252  0.4549 -0.4309 -0.2546
  153SAPE  H13R17013   0.833   5.794   9.350  2.0451 -2.9480 -1.5649
  153SAPE  H13S17014   0.736   5.916   9.259  1.3949  0.0498 -0.4747
  153SAPE  C21417015   0.903   5.812   9.156  0.0301  0.0430  0.0994
  153SAPE  H14R17016   0.977   5.733   9.176  2.0603  1.3197 -2.1152
  153SAPE  C21517017   0.928   5.892   9.048  0.4110 -0.5167 -0.5399
  153SAPE  H15R17018   1.020   5.872   8.992  0.3832  2.1526 -1.6013
  153SAPE  C21617019   0.836   6.003   8.993 -0.0583  0.2540 -0.3535
  153SAPE  H16R17020   0.768   6.039   9.073 -0.4208 -1.2449  0.0271
  153SAPE  H16S17021   0.768   5.954   8.920  1.1549  0.7010 -1.8260
  153SAPE  C21717022   0.909   6.126   8.935 -0.5719 -0.3136 -0.6654
  153SAPE  H17R17023   0.994   6.150   9.002 -0.2388 -1.0129 -0.8253
  153SAPE  H17S17024   0.838   6.209   8.955 -1.5130 -1.2025 -0.1952
  153SAPE  C21817025   0.937   6.118   8.786 -0.3769 -0.2277 -0.2932
  153SAPE  H18R17026   0.852   6.070   8.733 -0.9438  0.0073  0.4024
  153SAPE  H18S17027   1.032   6.065   8.764 -0.7736 -1.5932  1.1753
  153SAPE  C21917028   0.949   6.260   8.726 -0.4530 -0.1495 -0.5325
  153SAPE  H19R17029   0.852   6.314   8.734  0.7580  2.1228 -0.8810
  153SAPE  H19S17030   0.979   6.255   8.620  1.0751 -0.0502 -0.1198
  153SAPE  C22017031   1.062   6.332   8.803 -0.2936  0.1663  0.5429
  153SAPE  H20R17032   1.050   6.343   8.913  0.2738 -0.8458  0.7202
  153SAPE  H20S17033   1.070   6.436   8.765  1.2629  0.2737  1.1443
  153SAPE  H20T17034   1.164   6.289   8.797 -1.3277 -2.3825  0.6518
  153SAPE   C3317035  -0.004   5.895   9.934 -0.1499 -0.4314 -0.2023
  153SAPE   H3X17036  -0.042   5.921   9.832 -1.3830 -0.1710  0.3057
  153SAPE   H3Y17037  -0.071   5.811   9.964  0.6293 -0.2771  2.0082
  153SAPE   C3417038   0.136   5.852   9.913  0.0191  0.4651  0.5309
  153SAPE   H4X17039   0.189   5.816  10.003  1.1900  0.5689 -0.0984
  153SAPE   H4Y17040   0.191   5.945   9.887 -0.2998  0.4428 -0.2385
  153SAPE   C3517041   0.165   5.741   9.811  0.4037  0.4669  0.1938
  153SAPE   H5X17042   0.087   5.665   9.830 -1.2089  2.3199  1.1710
  153SAPE   H5Y17043   0.270   5.709   9.830  1.5677  2.2608 -2.9879
  153SAPE   C3617044   0.160   5.789   9.663 -0.3652  0.1540  0.2304
  153SAPE   H6X17045   0.240   5.864   9.648 -1.9022  1.9396  0.7337
  153SAPE   H6Y17046   0.062   5.841   9.654 -0.0799  0.6251 -0.1973
  153SAPE   C3717047   0.177   5.678   9.557  0.7875 -0.3944 -0.0649
  153SAPE   H7X17048   0.086   5.615   9.566 -0.5977  1.4794 -0.4778
  153SAPE   H7Y17049   0.260   5.614   9.594 -0.6931 -0.5904  3.0818
  153SAPE   C3817050   0.186   5.718   9.407 -0.3351  0.2672  0.3275
  153SAPE   H8X17051   0.275   5.784   9.398 -0.5966  0.7532  1.2273
  153SAPE   H8Y17052   0.103   5.781   9.369 -0.6598  0.9699  2.1261
  153SAPE   C3917053   0.203   5.595   9.318  0.2859  0.1278 -0.8759
  153SAPE   H9X17054   0.109   5.536   9.324  0.5405 -0.2641 -0.7717
  153SAPE   H9Y17055   0.287   5.542   9.366 -1.9372 -1.4240  1.4509
  153SAPE  C31017056   0.244   5.635   9.172  0.0499  0.0786 -0.8447
  153SAPE  H10X17057   0.345   5.683   9.172  0.4179 -0.6996 -1.4972
  153SAPE  H10Y17058   0.170   5.700   9.121 -0.6184 -0.1574 -0.1959
  153SAPE  C31117059   0.252   5.504   9.085  0.2426 -0.1280 -1.3303
  153SAPE  H11X17060   0.144   5.476   9.089  0.4440 -0.6654  0.6825
  153SAPE  H11Y17061   0.320   5.434   9.138 -2.2473 -1.3747  0.3349
  153SAPE  C31217062   0.289   5.528   8.941  0.9435  0.3630  0.7645
  153SAPE  H12X17063   0.239   5.619   8.904 -1.3650 -0.4354  1.8313
  153SAPE  H12Y17064   0.263   5.437   8.881  1.8125 -0.5783  1.7948
  153SAPE  C31317065   0.445   5.554   8.926 -0.3167 -0.2218 -0.0940
  153SAPE  H13X17066   0.480   5.461   8.977 -1.3969  0.0982  1.2475
  153SAPE  H13Y17067   0.461   5.641   8.994 -0.3790  0.5330 -1.0437
  153SAPE  C31417068   0.503   5.599   8.793 -0.2435  1.0276  0.2985
  153SAPE  H14X17069   0.434   5.681   8.763 -1.1274 -0.1955 -1.0410
  153SAPE  H14Y17070   0.482   5.519   8.719 -1.0139  0.4755  1.1043
  153SAPE  C31517071   0.651   5.644   8.790 -0.0167 -0.2075  0.1275
  153SAPE  H15X17072   0.705   5.578   8.862  0.6297  0.1904  0.0075
  153SAPE  H15Y17073   0.654   5.749   8.827  2.3560 -0.1960 -0.0077
  153SAPE  C31617074   0.708   5.639   8.652  0.5653  0.0175 -0.1049
  153SAPE  H16X17075   0.636   5.688   8.584  2.2772 -0.9710 -2.7350
  153SAPE  H16Y17076   0.729   5.536   8.616  0.2768  0.2412 -0.9283
  153SAPE  C31717077   0.841   5.710   8.636  0.0113  0.1605  0.3546
  153SAPE  H17X17078   0.922   5.668   8.699 -1.1017  0.3370  1.9520
  153SAPE  H17Y17079   0.833   5.818   8.661  0.0667  0.1513  0.4142
  153SAPE  C31817080   0.884   5.718   8.488 -0.2137 -0.7709 -0.5466
  153SAPE  H18X17081   0.804   5.756   8.421  0.0383 -1.4021 -1.2183
  153SAPE  H18Y17082   0.905   5.616   8.448  0.5589  0.2101 -2.7213
  153SAPE  H18Z17083   0.979   5.775   8.486 -1.2871  1.0743  0.0642
  154SAPE     N17084   1.498   5.736  10.463 -0.1382 -0.1159  0.5438
  154SAPE   HN117085   1.493   5.836  10.492  2.3364 -0.3130  1.7223
  154SAPE   HN217086   1.506   5.679  10.549 -0.6118 -0.7359  0.1785
  154SAPE   HN317087   1.580   5.730  10.399  0.2483 -0.7488  1.0966
  154SAPE   C1217088   1.383   5.693  10.375 -0.0207 -0.0575 -0.0902
  154SAPE  H12A17089   1.402   5.740  10.276 -2.4285 -1.1076 -1.1110
  154SAPE  H12B17090   1.295   5.745  10.420  0.8346  2.7841 -1.5240
  154SAPE   C1117091   1.368   5.537  10.365  0.5897  0.5392 -0.1260
  154SAPE  H11A17092   1.451   5.491  10.307  0.8537  1.8131 -0.7790
  154SAPE  H11B17093   1.280   5.523  10.300 -1.1161 -1.7955  2.5457
  154SAPE     P17094   1.240   5.389  10.545  0.2987 -0.0341 -0.2310
  154SAPE   O1317095   1.285   5.271  10.627 -0.2873 -0.7976 -0.1251
  154SAPE   O1417096   1.144   5.483  10.610 -0.1911 -0.1596 -0.3647
  154SAPE   O1217097   1.363   5.475  10.498 -0.2905 -0.2317 -0.1953
  154SAPE   O1117098   1.176   5.349  10.407 -0.2169 -0.5225  0.5712
  154SAPE    C117099   1.036   5.328  10.389  0.3564 -0.0541 -0.3705
  154SAPE    HA17100   1.018   5.223  10.358 -1.3890  0.0853  0.0997
  154SAPE    HB17101   0.982   5.348  10.484 -0.4835 -0.1441 -0.8224
  154SAPE    C217102   0.986   5.414  10.275  0.5896  0.1038 -0.3097
  154SAPE    HS17103   0.877   5.395  10.263  0.7073  0.0764 -1.4535
  154SAPE   O2117104   1.059   5.394  10.154  0.2787 -0.2323  0.0657
  154SAPE   C2117105   1.033   5.283  10.082  0.1311 -0.3054  0.2609
  154SAPE   O2217106   0.954   5.196  10.111 -0.0780 -0.3071  1.1434
  154SAPE   C2217107   1.127   5.281   9.957 -0.7112  0.6641  0.2475
  154SAPE   H2R17108   1.174   5.381   9.946 -0.3817  0.3186 -1.7071
  154SAPE   H2S17109   1.214   5.213   9.967  0.8231  2.2235 -2.2513
  154SAPE    C317110   0.983   5.564  10.317  0.5162  0.3836 -0.6036
  154SAPE    HX17111   1.087   5.583  10.350  1.4166 -0.8980 -2.6007
  154SAPE    HY17112   0.905   5.578  10.395  1.5814 -0.2229  0.5837
  154SAPE   O3117113   0.955   5.647  10.198  0.8305 -0.0280  0.0127
  154SAPE   C3117114   1.043   5.729  10.142 -0.5924  0.2756 -0.6674
  154SAPE   O3217115   1.154   5.758  10.191  0.4587  0.5436 -0.2172
  154SAPE   C3217116   0.993   5.800  10.016  0.2966  0.0233 -0.5210
  154SAPE   H2X17117   0.982   5.909  10.035 -0.4567 -0.2334  0.5873
  154SAPE   H2Y17118   0.895   5.758   9.985  0.5972 -2.0479  1.2315
  154SAPE   C2317119   1.053   5.248   9.824 -0.4556 -1.1399  0.5031
  154SAPE   H3R17120   0.981   5.331   9.807 -0.4165 -0.4355  3.3840
  154SAPE   H3S17121   0.993   5.155   9.833 -0.5076 -1.1098  0.4657
  154SAPE   C2417122   1.157   5.234   9.707  0.7088  0.0147 -0.1330
  154SAPE   H4R17123   1.217   5.144   9.733 -0.6350 -0.5146  1.2465
  154SAPE   H4S17124   1.235   5.313   9.709  0.7410 -0.0075 -0.5147
  154SAPE   C2517125   1.086   5.232   9.573  0.1144 -0.0290  0.1671
  154SAPE   H5R17126   1.023   5.145   9.547 -1.9043  0.7353  2.3599
  154SAPE   C2617127   1.067   5.344   9.504  0.3997  0.3830 -0.0446
  154SAPE   H6R17128   1.007   5.337   9.412  0.4507 -0.5765 -0.0178
  154SAPE   C2717129   1.122   5.481   9.548  0.3464  0.3201  0.6198
  154SAPE   H7R17130   1.227   5.461   9.577  0.7349  0.3887 -0.7351
  154SAPE   H7S17131   1.077   5.512   9.645  1.1294 -1.1535  1.4690
  154SAPE   C2817132   1.114   5.583   9.436  0.5367 -0.4353  0.3491
  154SAPE   H8R17133   1.029   5.579   9.366  0.3957  0.9841  0.4382
  154SAPE   C2917134   1.204   5.680   9.408 -0.1549 -0.7398  0.2675
  154SAPE   H9R17135   1.185   5.757   9.333  1.6772 -0.2295  0.3079
  154SAPE  C21017136   1.334   5.707   9.495  0.4404 -0.2152  0.9623
  154SAPE  H10R17137   1.319   5.653   9.591 -2.1956 -0.9649  0.1625
  154SAPE  H10S17138   1.338   5.817   9.512 -0.9772  0.0343 -0.2292
  154SAPE  C21117139   1.465   5.660   9.429 -0.3479 -0.7416 -0.1094
  154SAPE  H11R17140   1.460   5.583   9.350  1.3208 -0.5127 -0.4660
  154SAPE  C21217141   1.583   5.719   9.450  0.0976  0.3446  0.7859
  154SAPE  H12R17142   1.666   5.699   9.381 -1.6367  1.4547 -1.7012
  154SAPE  C21317143   1.594   5.831   9.548 -0.2084 -0.1045 -0.2627
  154SAPE  H13R17144   1.566   5.790   9.648  4.5478 -2.2196  0.3176
  154SAPE  H13S17145   1.517   5.908   9.525 -0.3905 -0.5322 -1.1029
  154SAPE  C21417146   1.725   5.910   9.554 -0.2942  0.2576  0.3412
  154SAPE  H14R17147   1.765   5.916   9.656  0.3776  0.4080  0.0673
  154SAPE  C21517148   1.788   5.984   9.459 -0.0547 -0.4110  0.1390
  154SAPE  H15R17149   1.878   6.042   9.486  0.4852 -0.2503 -1.9288
  154SAPE  C21617150   1.755   6.021   9.318  0.4688  0.0444 -0.0467
  154SAPE  H16R17151   1.777   6.127   9.296  0.0946 -0.3657 -2.5717
  154SAPE  H16S17152   1.646   6.008   9.299  1.5338 -3.4432 -4.5640
  154SAPE  C21717153   1.828   5.937   9.216 -0.5505 -0.3797 -0.3444
  154SAPE  H17R17154   1.782   5.838   9.201 -0.0162 -0.3661 -2.1688
  154SAPE  H17S17155   1.933   5.918   9.250  0.1266  0.5245 -1.8589
  154SAPE  C21817156   1.834   5.999   9.075 -0.6302 -0.3969  0.0462
  154SAPE  H18R17157   1.864   6.106   9.087  1.2897 -1.1280  2.3196
  154SAPE  H18S17158   1.734   5.986   9.031  0.2781  0.2573 -2.2697
  154SAPE  C21917159   1.939   5.929   8.998  0.3860 -0.7340  1.0930
  154SAPE  H19R17160   2.022   5.892   9.062  0.5855 -1.7278  0.2720
  154SAPE  H19S17161   1.987   5.999   8.927  0.2475  0.7012  2.3818
  154SAPE  C22017162   1.877   5.808   8.921 -0.0085 -0.1641 -0.3112
  154SAPE  H20R17163   1.948   5.776   8.842  0.1925 -0.1139 -0.1526
  154SAPE  H20S17164   1.785   5.832   8.863 -1.1202 -1.9943  0.6423
  154SAPE  H20T17165   1.863   5.728   8.997 -0.6439  1.8940  1.8357
  154SAPE   C3317166   1.094   5.778   9.906  0.1054 -0.4266  0.1176
  154SAPE   H3X17167   1.090   5.676   9.862  0.7553  0.7913 -2.9618
  154SAPE   H3Y17168   1.197   5.788   9.946  0.2414  0.8447 -0.4953
  154SAPE   C3417169   1.068   5.876   9.788  0.2533  0.0901  1.2141
  154SAPE   H4X17170   1.134   5.851   9.702 -2.0903 -0.1665 -0.5593
  154SAPE   H4Y17171   1.089   5.981   9.815 -0.5754  0.3687  0.7817
  154SAPE   C3517172   0.928   5.877   9.741  0.3827 -0.4097 -0.3468
  154SAPE   H5X17173   0.868   5.956   9.792  0.4919 -1.5396  1.6024
  154SAPE   H5Y17174   0.878   5.780   9.761  0.0285 -0.1920 -0.1674
  154SAPE   C3617175   0.926   5.909   9.597 -0.0643 -0.8324  1.0039
  154SAPE   H6X17176   0.825   5.882   9.560 -0.1404  2.0224 -0.9544
  154SAPE   H6Y17177   1.003   5.856   9.536 -0.0023  2.1356 -1.6000
  154SAPE   C3717178   0.953   6.057   9.578 -0.2419 -0.1211  0.8767
  154SAPE   H7X17179   1.051   6.088   9.619 -1.0794  0.3397  2.5743
  154SAPE   H7Y17180   0.878   6.110   9.641  1.0261  1.4530  1.0705
  154SAPE   C3817181   0.939   6.106   9.430  0.2161  0.2572  0.4216
  154SAPE   H8X17182   0.853   6.069   9.370  0.0313  1.0501  0.1875
  154SAPE   H8Y17183   1.035   6.073   9.385  0.3014  1.1244 -0.0417
  154SAPE   C3917184   0.933   6.257   9.413 -0.6049  0.0215 -0.4163
  154SAPE   H9X17185   1.034   6.289   9.444 -1.1082  1.8008 -0.5603
  154SAPE   H9Y17186   0.858   6.296   9.486 -0.0276  0.0128  0.1868
  154SAPE  C31017187   0.909   6.296   9.268 -0.0045  0.3561  0.5890
  154SAPE  H10X17188   0.826   6.237   9.222  2.0278 -1.8232 -0.4228
  154SAPE  H10Y17189   1.002   6.276   9.211  0.2154 -1.2347  1.4641
  154SAPE  C31117190   0.883   6.443   9.266  0.8688 -0.2621 -0.1668
  154SAPE  H11X17191   0.971   6.494   9.310  0.6632 -0.3346  0.3326
  154SAPE  H11Y17192   0.798   6.468   9.333  1.5205 -1.4808  1.1251
  154SAPE  C31217193   0.863   6.504   9.124 -0.4121 -0.1960 -0.4211
  154SAPE  H12X17194   0.787   6.441   9.072 -0.1347 -1.8271  1.1164
  154SAPE  H12Y17195   0.967   6.485   9.090  1.1829  3.8983  1.7920
  154SAPE  C31317196   0.831   6.655   9.129 -0.0816 -0.6160 -0.1118
  154SAPE  H13X17197   0.846   6.700   9.229  2.1271 -0.7251 -0.3560
  154SAPE  H13Y17198   0.723   6.661   9.103 -0.3221  0.8120  1.1922
  154SAPE  C31417199   0.912   6.735   9.016 -0.4343 -0.8175 -0.5004
  154SAPE  H14X17200   0.864   6.835   9.016 -0.2211 -0.7109  0.3230
  154SAPE  H14Y17201   0.894   6.687   8.917  2.3458  0.6256 -1.7481
  154SAPE  C31517202   1.065   6.743   9.030 -0.2144  0.3205 -0.2450
  154SAPE  H15X17203   1.115   6.645   9.015 -1.1610 -0.1939 -0.1101
  154SAPE  H15Y17204   1.082   6.779   9.134  0.8003 -0.5542 -0.1022
  154SAPE  C31617205   1.108   6.847   8.930 -0.0111 -0.3749 -0.7818
  154SAPE  H16X17206   1.207   6.891   8.956 -0.6045  0.1933  0.5828
  154SAPE  H16Y17207   1.053   6.943   8.933 -1.3649 -1.1433 -0.3080
  154SAPE  C31717208   1.121   6.785   8.790 -0.2960  0.2618 -0.2124
  154SAPE  H17X17209   1.022   6.815   8.748  0.0110 -0.0119 -1.1463
  154SAPE  H17Y17210   1.123   6.675   8.800 -2.5229  0.0580 -1.4125
  154SAPE  C31817211   1.241   6.831   8.716 -0.3144 -0.1128  0.0114
  154SAPE  H18X17212   1.233   6.800   8.609  1.3782  0.9240 -0.4298
  154SAPE  H18Y17213   1.334   6.780   8.749  0.4633  0.0403 -1.8690
  154SAPE  H18Z17214   1.252   6.942   8.714 -0.5032 -0.0869  0.4594
  155SAPE     N17215   1.312   6.614  10.962 -0.1266  0.6472  0.3847
  155SAPE   HN117216   1.214   6.627  10.993 -0.6522  1.7036 -1.6530
  155SAPE   HN217217   1.316   6.613  10.858 -3.1989  0.6588  0.2254
  155SAPE   HN317218   1.349   6.525  11.001  0.4646  0.4931 -0.5137
  155SAPE   C1217219   1.384   6.725  11.019  0.4601 -0.1621  0.1238
  155SAPE  H12A17220   1.361   6.732  11.128  0.6683 -1.6497  0.2714
  155SAPE  H12B17221   1.339   6.808  10.959  0.7479 -2.7261 -3.8245
  155SAPE   C1117222   1.533   6.720  10.986 -0.2308  0.2316  0.1467
  155SAPE  H11A17223   1.565   6.621  11.026 -0.6230 -0.1393 -0.4492
  155SAPE  H11B17224   1.588   6.802  11.036  0.5489 -0.3905  0.3131
  155SAPE     P17225   1.592   6.843  10.759 -0.2087 -0.1986  0.2991
  155SAPE   O1317226   1.471   6.927  10.762 -0.3208 -0.5071 -0.0881
  155SAPE   O1417227   1.721   6.900  10.814  0.1755  0.4119  0.0081
  155SAPE   O1217228   1.552   6.714  10.840  0.2125  0.6365 -0.5206
  155SAPE   O1117229   1.608   6.788  10.606 -0.1200 -0.3223 -0.3789
  155SAPE    C117230   1.717   6.696  10.588  0.3213  0.0513  0.3886
  155SAPE    HA17231   1.800   6.699  10.662 -0.1759 -1.8832  1.0562
  155SAPE    HB17232   1.674   6.594  10.581 -0.0527  0.3740 -3.2841
  155SAPE    C217233   1.793   6.710  10.450  0.6130  0.4138 -0.1582
  155SAPE    HS17234   1.891   6.657  10.450  1.0036  0.9992 -4.0132
  155SAPE   O2117235   1.801   6.852  10.411  0.3589 -0.2039 -0.0620
  155SAPE   C2117236   1.890   6.920  10.476  0.5176  0.1711 -0.6739
  155SAPE   O2217237   1.954   6.886  10.576  0.0873  0.1910  0.4019
  155SAPE   C2217238   1.914   7.055  10.402 -0.4958 -0.6710  0.1589
  155SAPE   H2R17239   1.839   7.071  10.321 -0.7230 -0.7657  0.3512
  155SAPE   H2S17240   1.895   7.135  10.476 -1.1611 -0.6752 -0.0069
  155SAPE    C317241   1.712   6.646  10.338  0.2699 -0.4665 -0.1400
  155SAPE    HX17242   1.603   6.659  10.356  0.5506  1.4031  0.2354
  155SAPE    HY17243   1.737   6.539  10.358  1.7814 -0.5465 -2.2866
  155SAPE   O3117244   1.773   6.669  10.210  0.4712 -0.0752 -0.9128
  155SAPE   C3117245   1.700   6.747  10.136  0.3455  0.8865  0.6191
  155SAPE   O3217246   1.598   6.797  10.172  0.2977 -0.3088 -0.5369
  155SAPE   C3217247   1.788   6.786  10.011  0.8390  0.5190  0.1792
  155SAPE   H2X17248   1.829   6.694   9.965 -0.1930  0.0328  0.2308
  155SAPE   H2Y17249   1.869   6.856  10.041  0.7992  0.4264  0.4951
  155SAPE   C2317250   2.059   7.066  10.340  0.8909 -0.4525  0.4162
  155SAPE   H3R17251   2.132   7.048  10.423  1.0419 -2.3291 -0.0979
  155SAPE   H3S17252   2.075   7.173  10.317 -2.0575  0.4311  2.2394
  155SAPE   C2417253   2.078   6.970  10.226  0.2089 -0.5887 -0.0084
  155SAPE   H4R17254   2.003   7.001  10.150  0.7595 -1.6119 -0.9837
  155SAPE   H4S17255   2.048   6.868  10.258 -2.6579  0.3743  0.5620
  155SAPE   C2517256   2.218   6.977  10.159 -0.3950 -0.1952 -0.0201
  155SAPE   H5R17257   2.298   6.936  10.222 -1.7685 -2.0372  0.5488
  155SAPE   C2617258   2.255   7.038  10.048  0.6307 -0.4399  0.0999
  155SAPE   H6R17259   2.362   7.039  10.025  0.3907 -0.5818 -1.0991
  155SAPE   C2717260   2.160   7.127   9.960 -0.1354  0.3019 -0.1083
  155SAPE   H7R17261   2.156   7.231   9.997 -2.1698  0.4864 -0.7894
  155SAPE   H7S17262   2.057   7.088   9.981  0.1743  0.1469  1.1625
  155SAPE   C2817263   2.194   7.113   9.814  0.5635 -0.0606 -0.2445
  155SAPE   H8R17264   2.181   7.012   9.771 -3.5094  0.6884 -0.9455
  155SAPE   C2917265   2.235   7.214   9.729  0.5600  0.4833 -0.3087
  155SAPE   H9R17266   2.252   7.185   9.624  2.7876 -0.1977  0.2108
  155SAPE  C21017267   2.258   7.359   9.770  0.5732  0.0831 -0.2776
  155SAPE  H10R17268   2.270   7.352   9.880  0.3929  1.0670 -0.1914
  155SAPE  H10S17269   2.165   7.412   9.739 -0.1703  0.0152  1.7462
  155SAPE  C21117270   2.384   7.402   9.696  0.2440  0.0034  0.4266
  155SAPE  H11R17271   2.476   7.355   9.732  1.7400  2.1243 -0.5607
  155SAPE  C21217272   2.391   7.503   9.610  0.8495  0.2579 -0.3795
  155SAPE  H12R17273   2.492   7.528   9.573  2.2689 -1.7085  1.9757
  155SAPE  C21317274   2.282   7.577   9.535 -0.2832  0.0675 -0.7235
  155SAPE  H13R17275   2.311   7.685   9.539 -1.2333  0.3473 -1.2108
  155SAPE  H13S17276   2.185   7.573   9.588 -1.8553 -1.2239 -3.5896
  155SAPE  C21417277   2.262   7.523   9.401 -0.7031 -0.0988 -0.6543
  155SAPE  H14R17278   2.315   7.428   9.386 -0.6500 -0.2107  0.1781
  155SAPE  C21517279   2.170   7.568   9.310 -0.1479  0.9711 -0.1008
  155SAPE  H15R17280   2.157   7.519   9.212  0.2511  1.8187 -0.5840
  155SAPE  C21617281   2.078   7.686   9.316  0.1005  0.4439 -0.4713
  155SAPE  H16R17282   2.121   7.758   9.389  0.1740 -0.0470 -0.0205
  155SAPE  H16S17283   1.975   7.660   9.347  0.1059 -1.8043 -2.1839
  155SAPE  C21717284   2.061   7.750   9.185 -0.2209  0.1427 -0.0978
  155SAPE  H17R17285   2.025   7.667   9.119  2.3328 -0.5766 -0.6184
  155SAPE  H17S17286   2.151   7.791   9.136 -0.6534  2.7483  1.2195
  155SAPE  C21817287   1.941   7.850   9.179  0.9151 -0.4593  0.5051
  155SAPE  H18R17288   1.867   7.809   9.250 -1.4085 -1.9912 -2.6875
  155SAPE  H18S17289   1.883   7.850   9.085 -0.4716 -0.9020  1.3585
  155SAPE  C21917290   1.989   7.987   9.211 -0.1533  0.4136  0.0309
  155SAPE  H19R17291   2.025   7.983   9.316 -3.9111  0.3817  1.3681
  155SAPE  H19S17292   1.904   8.059   9.215 -1.0130 -0.6707  1.7800
  155SAPE  C22017293   2.093   8.040   9.109 -0.1959  0.3102  0.2592
  155SAPE  H20R17294   2.095   8.148   9.135  0.7894  0.6829 -1.3412
  155SAPE  H20S17295   2.064   8.023   9.003  0.4677 -1.3726  0.3302
  155SAPE  H20T17296   2.192   7.993   9.124 -0.6252 -0.1613  1.6877
  155SAPE   C3317297   1.698   6.846   9.900 -0.4112 -0.4726 -0.0436
  155SAPE   H3X17298   1.679   6.954   9.915 -0.6656 -0.3065 -1.5165
  155SAPE   H3Y17299   1.600   6.793   9.908 -0.2644 -1.0872 -2.1129
  155SAPE   C3417300   1.760   6.823   9.760 -0.3056  0.5315 -0.9534
  155SAPE   H4X17301   1.682   6.847   9.685 -1.4329  1.1663  0.3845
  155SAPE   H4Y17302   1.784   6.716   9.744 -1.9888  0.1958 -1.3494
  155SAPE   C3517303   1.891   6.902   9.723  0.7743 -0.4476  0.1043
  155SAPE   H5X17304   1.979   6.842   9.754  1.5421  0.8885  0.5675
  155SAPE   H5Y17305   1.899   6.990   9.791 -1.0415  0.1288 -0.4078
  155SAPE   C3617306   1.906   6.935   9.566  0.9827 -0.4743 -0.1328
  155SAPE   H6X17307   1.988   7.002   9.531 -1.5388  2.5286 -0.4712
  155SAPE   H6Y17308   1.814   6.995   9.549 -0.6100 -2.6950  0.4911
  155SAPE   C3717309   1.896   6.816   9.469  0.3660  0.3599  1.4063
  155SAPE   H7X17310   1.813   6.753   9.508  0.1499 -0.0654  0.2838
  155SAPE   H7Y17311   1.989   6.758   9.490  1.7697  1.8440 -0.5338
  155SAPE   C3817312   1.881   6.862   9.324  0.6845  0.6391 -0.0147
  155SAPE   H8X17313   1.971   6.920   9.293  0.7858 -0.6462 -2.1967
  155SAPE   H8Y17314   1.788   6.921   9.309  0.2126  0.2239  1.1811
  155SAPE   C3917315   1.879   6.746   9.221  0.5818  0.2993 -0.3288
  155SAPE   H9X17316   1.791   6.680   9.238  0.5044 -0.0213 -1.9128
  155SAPE   H9Y17317   1.970   6.684   9.230  1.1374  1.2730  0.8037
  155SAPE  C31017318   1.871   6.798   9.075 -0.3967  0.1352  0.1571
  155SAPE  H10X17319   1.942   6.879   9.049 -0.4412  0.1543  0.0956
  155SAPE  H10Y17320   1.770   6.841   9.060 -0.5296 -0.6785 -1.4358
  155SAPE  C31117321   1.902   6.679   8.980 -0.5641  0.0340  0.0334
  155SAPE  H11X17322   1.831   6.594   8.985  0.3207 -0.7843 -1.1399
  155SAPE  H11Y17323   2.001   6.630   8.989  0.0469  1.0365 -1.1108
  155SAPE  C31217324   1.903   6.743   8.842  0.1223 -0.0746  0.9566
  155SAPE  H12X17325   2.001   6.787   8.813  1.3285 -1.3717  2.9365
  155SAPE  H12Y17326   1.826   6.822   8.841  2.1478  1.9916 -2.1298
  155SAPE  C31317327   1.863   6.636   8.734 -0.0472  0.2357 -0.0372
  155SAPE  H13X17328   1.760   6.594   8.734 -0.4603  1.2092  0.4378
  155SAPE  H13Y17329   1.937   6.555   8.749 -0.5525 -0.3940 -0.9373
  155SAPE  C31417330   1.884   6.692   8.594  0.1429  0.6702 -0.2392
  155SAPE  H14X17331   1.888   6.607   8.523 -2.1710 -0.9895  1.5105
  155SAPE  H14Y17332   1.975   6.755   8.579  0.6448  0.0800  0.3043
  155SAPE  C31517333   1.766   6.779   8.543 -0.6460 -0.2300  0.5874
  155SAPE  H15X17334   1.706   6.823   8.625 -2.2987 -3.7451  1.3723
  155SAPE  H15Y17335   1.688   6.714   8.498 -1.5980  0.6682  0.9429
  155SAPE  C31617336   1.805   6.879   8.432  0.2007  0.1589 -0.6880
  155SAPE  H16X17337   1.827   6.819   8.341 -1.8037 -1.9276  0.1648
  155SAPE  H16Y17338   1.895   6.939   8.460 -0.2433  2.3281 -3.6651
  155SAPE  C31717339   1.683   6.980   8.406 -0.1145  0.2677 -0.3085
  155SAPE  H17X17340   1.586   6.928   8.418  0.3917 -0.2774  1.5130
  155SAPE  H17Y17341   1.688   7.019   8.302  1.4973  0.7582 -0.0646
  155SAPE  C31817342   1.685   7.103   8.504  0.1403 -0.3479  0.0934
  155SAPE  H18X17343   1.597   7.170   8.496  0.1843 -0.2434  0.4984
  155SAPE  H18Y17344   1.779   7.158   8.479  0.5521  0.0258  2.4083
  155SAPE  H18Z17345   1.692   7.066   8.608  0.0539  0.8652  0.5424
  156SAPE     N17346   6.008   4.907  10.396  0.3617  0.6490 -0.5889
  156SAPE   HN117347   5.996   4.986  10.329  0.5297  2.3394  1.3387
  156SAPE   HN217348   6.049   4.827  10.344 -1.2201 -1.0166  0.6626
  156SAPE   HN317349   5.909   4.879  10.413  1.1771 -1.2775  1.2080
  156SAPE   C1217350   6.079   4.937  10.527  0.0976  0.8703 -0.2507
  156SAPE  H12A17351   6.017   5.006  10.589 -1.8180 -0.1179 -1.0355
  156SAPE  H12B17352   6.168   5.002  10.510  0.0726 -0.0491 -4.1291
  156SAPE   C1117353   6.119   4.807  10.599  0.2741 -0.0726 -0.7499
  156SAPE  H11A17354   6.171   4.833  10.693 -0.8880  0.1240 -0.1617
  156SAPE  H11B17355   6.187   4.754  10.528 -1.0966 -0.2765 -1.9361
  156SAPE     P17356   5.984   4.572  10.600 -0.0919  0.1433 -0.0242
  156SAPE   O1317357   6.069   4.503  10.697  0.2377  0.0005  0.0245
  156SAPE   O1417358   5.836   4.543  10.602 -0.0018 -0.0756  0.1924
  156SAPE   O1217359   5.990   4.738  10.622 -0.2407  0.0462 -0.7395
  156SAPE   O1117360   6.054   4.559  10.454  0.5107  0.3445 -0.1176
  156SAPE    C117361   6.183   4.493  10.437  0.3993  0.5784 -0.0410
  156SAPE    HA17362   6.250   4.516  10.523  1.1560 -1.2477 -0.1172
  156SAPE    HB17363   6.172   4.383  10.437 -1.5377  0.7536 -0.3157
  156SAPE    C217364   6.265   4.538  10.312 -0.5201 -0.2519 -0.6440
  156SAPE    HS17365   6.293   4.645  10.324  3.4778 -1.1715 -0.9099
  156SAPE   O2117366   6.187   4.514  10.188  0.4566  0.0609  0.3242
  156SAPE   C2117367   6.098   4.610  10.171 -0.2540  0.1679  1.1681
  156SAPE   O2217368   6.092   4.709  10.235  0.4692  0.3304 -0.2245
  156SAPE   C2217369   6.013   4.576  10.060  0.4790 -0.1533 -0.7784
  156SAPE   H2R17370   6.059   4.582   9.959  0.2084  0.8913 -0.8375
  156SAPE   H2S17371   5.981   4.470  10.072  2.0229 -0.5804 -0.3457
  156SAPE    C317372   6.410   4.479  10.307 -0.1666  0.6837 -0.0464
  156SAPE    HX17373   6.411   4.369  10.291  1.0357  0.7849 -0.7027
  156SAPE    HY17374   6.458   4.489  10.406 -0.4780 -1.9541  0.4057
  156SAPE   O3117375   6.490   4.531  10.201 -0.1367 -0.6495  0.1937
  156SAPE   C3117376   6.564   4.640  10.211 -0.4807 -0.1330  0.3807
  156SAPE   O3217377   6.578   4.705  10.313  0.5938  0.4638  0.2827
  156SAPE   C3217378   6.634   4.683  10.082  0.3736 -0.2348 -0.0629
  156SAPE   H2X17379   6.718   4.744  10.121  1.1686 -1.0721 -0.4554
  156SAPE   H2Y17380   6.563   4.738  10.017 -0.3633 -1.8212 -0.6339
  156SAPE   C2317381   5.879   4.654  10.048  0.3453  0.5194  0.2345
  156SAPE   H3R17382   5.900   4.748   9.992 -1.7494  1.0322  0.2754
  156SAPE   H3S17383   5.846   4.686  10.149 -0.5216 -1.9137  0.7456
  156SAPE   C2417384   5.765   4.566   9.992  0.7545  0.2432 -0.3559
  156SAPE   H4R17385   5.748   4.478  10.057 -0.9985  0.1143 -0.9759
  156SAPE   H4S17386   5.792   4.526   9.892 -0.2955  1.6452 -1.2117
  156SAPE   C2517387   5.641   4.648   9.975 -0.2242 -0.2578 -0.3879
  156SAPE   H5R17388   5.571   4.651  10.060  0.6652  0.1680  0.3330
  156SAPE   C2617389   5.596   4.721   9.872 -0.3696 -0.4797  0.0210
  156SAPE   H6R17390   5.498   4.768   9.883  0.3675  1.0594  0.1346
  156SAPE   C2717391   5.661   4.727   9.734  0.6886  0.0152  0.2397
  156SAPE   H7R17392   5.578   4.770   9.674  2.6711  5.2374  0.9424
  156SAPE   H7S17393   5.686   4.623   9.707  1.4977  0.1992  0.2593
  156SAPE   C2817394   5.766   4.827   9.701 -0.6288  0.6855 -0.1286
  156SAPE   H8R17395   5.757   4.925   9.751 -0.1539  0.9946 -0.6431
  156SAPE   C2917396   5.867   4.820   9.622  0.2842  0.0153  0.2815
  156SAPE   H9R17397   5.941   4.900   9.616  0.2627 -0.0324 -0.6348
  156SAPE  C21017398   5.911   4.707   9.529 -0.0141  0.2349 -0.7140
  156SAPE  H10R17399   5.832   4.634   9.503  0.1159 -0.4094  0.6446
  156SAPE  H10S17400   5.981   4.649   9.593 -0.7126 -1.0614 -1.1092
  156SAPE  C21117401   5.991   4.760   9.412  0.0493  0.5809  0.4776
  156SAPE  H11R17402   6.075   4.823   9.444  1.3467  0.7425 -3.0637
  156SAPE  C21217403   5.978   4.743   9.268 -0.0142 -0.3522 -0.1981
  156SAPE  H12R17404   6.052   4.779   9.195 -0.1975  3.0937  1.2243
  156SAPE  C21317405   5.868   4.669   9.208  0.1689  0.0452 -0.1345
  156SAPE  H13R17406   5.858   4.571   9.260  0.4078  0.8264  1.3964
  156SAPE  H13S17407   5.890   4.646   9.101 -1.5419 -0.7457 -0.3278
  156SAPE  C21417408   5.732   4.734   9.232 -0.7170 -0.8621  0.7092
  156SAPE  H14R17409   5.714   4.781   9.330  1.0696  1.0776  0.1377
  156SAPE  C21517410   5.640   4.746   9.136  0.4551  0.5636  0.1131
  156SAPE  H15R17411   5.539   4.778   9.164  0.8574  1.2395  0.8321
  156SAPE  C21617412   5.657   4.690   8.994  0.2161  0.3149 -0.3233
  156SAPE  H16R17413   5.655   4.579   8.989 -1.9849  0.3250 -0.2374
  156SAPE  H16S17414   5.757   4.708   8.949  0.3894  0.4325  0.1135
  156SAPE  C21717415   5.561   4.745   8.888 -0.3082  0.2823 -0.0475
  156SAPE  H17R17416   5.455   4.733   8.919 -0.7965 -2.0837 -2.4388
  156SAPE  H17S17417   5.576   4.671   8.807 -2.6703  1.2234 -1.3983
  156SAPE  C21817418   5.577   4.894   8.861 -0.1330 -0.0430  0.1092
  156SAPE  H18R17419   5.683   4.911   8.831 -0.0082  2.9349  2.0338
  156SAPE  H18S17420   5.565   4.950   8.956  1.1930 -1.1060  0.9173
  156SAPE  C21917421   5.483   4.941   8.750  0.0848 -0.0473  0.8569
  156SAPE  H19R17422   5.492   5.052   8.745 -0.2756  0.0493  2.2071
  156SAPE  H19S17423   5.379   4.920   8.784  0.2229 -0.9370  0.7450
  156SAPE  C22017424   5.493   4.872   8.612  0.0771  1.0271 -0.0978
  156SAPE  H20R17425   5.578   4.920   8.559  0.0026  1.4848  0.1955
  156SAPE  H20S17426   5.399   4.876   8.552  1.7959  0.7119 -2.9305
  156SAPE  H20T17427   5.516   4.766   8.636  0.0052  1.5202  2.2954
  156SAPE   C3317428   6.692   4.567   9.993  0.1325 -0.5293 -0.5760
  156SAPE   H3X17429   6.631   4.474   9.991  0.6245 -0.8635 -0.2165
  156SAPE   H3Y17430   6.790   4.533  10.034 -0.2410  0.7956  1.4717
  156SAPE   C3417431   6.705   4.616   9.852 -0.1888 -0.3779 -0.3424
  156SAPE   H4X17432   6.784   4.694   9.860 -0.5326 -0.1569  0.8468
  156SAPE   H4Y17433   6.608   4.653   9.812 -1.7696 -2.4353  1.4728
  156SAPE   C3517434   6.765   4.511   9.750  0.0931 -0.7525  0.1625
  156SAPE   H5X17435   6.694   4.430   9.722  0.3032 -0.5495 -0.9854
  156SAPE   H5Y17436   6.851   4.453   9.790  1.0496 -0.2061 -1.0887
  156SAPE   C3617437   6.813   4.573   9.625 -0.4128  0.1850  0.3614
  156SAPE   H6X17438   6.886   4.654   9.647 -2.3404  1.9917  0.3478
  156SAPE   H6Y17439   6.727   4.620   9.571  0.1660  1.4243  0.4935
  156SAPE   C3717440   6.887   4.467   9.547 -0.2620 -0.0721  0.1112
  156SAPE   H7X17441   6.817   4.382   9.543 -0.4197  0.0835 -0.4835
  156SAPE   H7Y17442   6.974   4.440   9.611 -0.3273 -0.7704 -0.0947
  156SAPE   C3817443   6.934   4.526   9.417  0.1835  0.2814  0.1512
  156SAPE   H8X17444   6.981   4.440   9.365 -2.9369 -1.2248 -0.3562
  156SAPE   H8Y17445   7.002   4.613   9.420  0.4517  0.0893 -0.3295
  156SAPE   C3917446   6.821   4.564   9.327  0.1683  0.4457 -0.1829
  156SAPE   H9X17447   6.768   4.651   9.372  0.1435  0.3833 -0.0914
  156SAPE   H9Y17448   6.753   4.479   9.305 -0.3582  0.3921  1.5324
  156SAPE  C31017449   6.877   4.609   9.189 -0.5411 -0.5796  0.5551
  156SAPE  H10X17450   6.933   4.532   9.133 -1.5094 -0.5012 -0.5448
  156SAPE  H10Y17451   6.963   4.680   9.197 -0.7657  0.0303 -1.9250
  156SAPE  C31117452   6.771   4.664   9.091  0.2750  0.3725 -0.1328
  156SAPE  H11X17453   6.827   4.734   9.026  1.7851  1.3882  2.2181
  156SAPE  H11Y17454   6.700   4.736   9.137 -1.1937 -1.3205  0.3529
  156SAPE  C31217455   6.700   4.566   9.005  0.2493  0.6811 -0.5529
  156SAPE  H12X17456   6.651   4.495   9.075  1.0421  0.5229 -0.1497
  156SAPE  H12Y17457   6.769   4.505   8.943 -2.6818 -0.8039 -2.4851
  156SAPE  C31317458   6.583   4.628   8.923  0.5297 -0.3892 -0.1169
  156SAPE  H13X17459   6.606   4.724   8.872  2.2334 -0.3626  0.6619
  156SAPE  H13Y17460   6.504   4.659   8.995 -0.4004 -2.4008 -0.2562
  156SAPE  C31417461   6.512   4.539   8.818 -0.2785 -0.3687  0.1534
  156SAPE  H14X17462   6.462   4.454   8.869  1.1102 -0.4250  1.4407
  156SAPE  H14Y17463   6.582   4.515   8.736 -0.9334  0.0997 -0.5500
  156SAPE  C31517464   6.391   4.615   8.749  0.6932 -0.5356 -0.0510
  156SAPE  H15X17465   6.316   4.654   8.822  2.0446  0.6269  0.7307
  156SAPE  H15Y17466   6.334   4.544   8.686 -1.4164  1.0015  0.0516
  156SAPE  C31617467   6.448   4.719   8.651  0.8652  0.4577  0.3338
  156SAPE  H16X17468   6.526   4.679   8.582 -1.1286 -0.4919 -1.3972
  156SAPE  H16Y17469   6.505   4.799   8.705  3.0485 -0.4078 -0.6368
  156SAPE  C31717470   6.335   4.776   8.559 -0.1652 -0.2561 -0.6025
  156SAPE  H17X17471   6.291   4.858   8.620  0.9042 -0.6813  0.7881
  156SAPE  H17Y17472   6.262   4.697   8.534  0.1482 -0.5334 -0.6439
  156SAPE  C31817473   6.386   4.814   8.423  0.1835 -0.3338 -0.6061
  156SAPE  H18X17474   6.434   4.723   8.380 -2.1140 -2.4856  1.2633
  156SAPE  H18Y17475   6.465   4.893   8.421  0.8981 -1.0323 -0.1083
  156SAPE  H18Z17476   6.307   4.848   8.353 -0.6552  0.4637  0.7139
  157SAPE     N17477   5.309   4.904  10.675  0.6277  0.1175 -0.0256
  157SAPE   HN117478   5.324   5.007  10.681 -2.3510  0.5064  1.5657
  157SAPE   HN217479   5.272   4.867  10.765 -1.0403 -0.9750 -1.1367
  157SAPE   HN317480   5.397   4.855  10.650  1.3704  0.8415  1.1046
  157SAPE   C1217481   5.207   4.874  10.562 -0.4713 -0.2569 -0.4517
  157SAPE  H12A17482   5.241   4.920  10.467 -2.1087  1.3380 -0.3115
  157SAPE  H12B17483   5.119   4.935  10.592 -2.3786 -1.3714 -3.5651
  157SAPE   C1117484   5.180   4.722  10.539 -0.3478  1.1378  1.0097
  157SAPE  H11A17485   5.274   4.679  10.497 -1.3262 -1.0884  0.9955
  157SAPE  H11B17486   5.098   4.704  10.466  0.0860 -2.2751  1.2510
  157SAPE     P17487   5.240   4.532  10.710  0.2412 -0.0346  0.0540
  157SAPE   O1317488   5.383   4.556  10.707 -0.1373 -0.2726 -0.8218
  157SAPE   O1417489   5.184   4.477  10.833 -0.1161 -0.3382 -0.6119
  157SAPE   O1217490   5.163   4.665  10.672  0.3284 -0.1162 -0.0473
  157SAPE   O1117491   5.213   4.438  10.596 -0.4571 -0.2490 -1.1122
  157SAPE    C117492   5.081   4.388  10.578  0.0883 -0.7102 -0.2395
  157SAPE    HA17493   5.051   4.318  10.659  0.8323  0.6730  1.2625
  157SAPE    HB17494   5.014   4.477  10.576  1.0874  0.0668  0.2230
  157SAPE    C217495   5.080   4.307  10.446  0.4144  0.6955 -0.1815
  157SAPE    HS17496   5.165   4.236  10.459  0.7830  1.0805 -0.4841
  157SAPE   O2117497   5.101   4.402  10.332 -0.3251 -0.3891 -1.1332
  157SAPE   C2117498   5.202   4.366  10.255  0.1790 -0.1199 -0.1673
  157SAPE   O2217499   5.275   4.270  10.260 -0.3905 -0.0581  0.2706
  157SAPE   C2217500   5.195   4.464  10.137  0.0582  0.2734 -0.0452
  157SAPE   H2R17501   5.094   4.463  10.090  0.5687  0.1648 -1.1637
  157SAPE   H2S17502   5.213   4.563  10.183 -0.2540 -0.1449  0.9844
  157SAPE    C317503   4.944   4.224  10.418 -0.0257 -0.0526  0.0455
  157SAPE    HX17504   4.867   4.303  10.431  0.1555  0.7547 -3.3888
  157SAPE    HY17505   4.922   4.144  10.493  2.5031  0.8076  1.7574
  157SAPE   O3117506   4.942   4.180  10.285 -0.5028  0.7030 -0.6469
  157SAPE   C3117507   5.007   4.066  10.271 -0.2947 -0.1272 -0.7133
  157SAPE   O3217508   5.073   4.009  10.356  0.2798 -0.1614 -0.6772
  157SAPE   C3217509   4.975   4.003  10.132 -0.2105 -0.4525  0.2141
  157SAPE   H2X17510   5.046   4.055  10.063  0.3167  0.9013  1.7434
  157SAPE   H2Y17511   4.870   4.021  10.100  0.5342 -0.5216 -2.3815
  157SAPE   C2317512   5.300   4.446  10.030  0.0445  0.1361 -0.1467
  157SAPE   H3R17513   5.399   4.417  10.070  0.4259  0.4657 -0.8480
  157SAPE   H3S17514   5.312   4.549   9.991  2.1525 -0.1336 -0.2644
  157SAPE   C2417515   5.255   4.372   9.900  0.2171 -0.6094  0.1043
  157SAPE   H4R17516   5.226   4.268   9.925  1.7247 -0.8196  1.0015
  157SAPE   H4S17517   5.346   4.358   9.839  1.7083  1.9892  1.6349
  157SAPE   C2517518   5.149   4.438   9.818  0.0102  0.3818 -0.4485
  157SAPE   H5R17519   5.047   4.415   9.855  0.6371  1.7163  2.2135
  157SAPE   C2617520   5.172   4.534   9.723  0.0470  0.4894  0.1149
  157SAPE   H6R17521   5.094   4.574   9.656  0.4550  0.8940 -0.1181
  157SAPE   C2717522   5.307   4.587   9.686  0.7921 -0.0636 -0.1001
  157SAPE   H7R17523   5.344   4.534   9.596 -1.5381 -1.3174 -0.3682
  157SAPE   H7S17524   5.375   4.562   9.771 -0.6077 -5.0733 -0.2812
  157SAPE   C2817525   5.309   4.738   9.667 -0.2785 -0.4060 -0.8324
  157SAPE   H8R17526   5.293   4.795   9.760  1.7520  2.0257 -1.9048
  157SAPE   C2917527   5.342   4.805   9.557  0.2214 -1.2544  0.0892
  157SAPE   H9R17528   5.343   4.914   9.562 -1.4299 -1.1740 -1.0050
  157SAPE  C21017529   5.394   4.740   9.430  0.4552 -0.3040  0.1206
  157SAPE  H10R17530   5.443   4.643   9.457  1.6915 -0.0581 -1.1493
  157SAPE  H10S17531   5.469   4.810   9.388  0.2428 -0.8373 -1.1512
  157SAPE  C21117532   5.289   4.715   9.333 -0.3852  0.2427  0.2852
  157SAPE  H11R17533   5.216   4.796   9.319  1.5225  2.1517  1.0325
  157SAPE  C21217534   5.273   4.606   9.258 -0.0579 -0.0194  0.1078
  157SAPE  H12R17535   5.191   4.613   9.186  1.3806 -1.1772 -1.6953
  157SAPE  C21317536   5.365   4.489   9.240 -0.3948  0.4207 -0.0036
  157SAPE  H13R17537   5.413   4.465   9.338  0.5897 -1.4627 -0.9166
  157SAPE  H13S17538   5.457   4.519   9.186  1.1100 -1.6322  1.3250
  157SAPE  C21417539   5.315   4.355   9.189  0.2447 -0.2556  0.0012
  157SAPE  H14R17540   5.340   4.272   9.257 -2.6572 -0.0801  1.3371
  157SAPE  C21517541   5.265   4.334   9.067 -0.2166 -0.4308 -0.0968
  157SAPE  H15R17542   5.222   4.234   9.051  0.1730 -0.4089 -1.2686
  157SAPE  C21617543   5.240   4.436   8.960  0.9305  0.2685  0.2894
  157SAPE  H16R17544   5.284   4.538   8.970  1.0705  0.5584 -2.6646
  157SAPE  H16S17545   5.133   4.463   8.952  0.6200 -0.9833  0.1482
  157SAPE  C21717546   5.272   4.394   8.817 -0.4072 -0.2415 -0.5742
  157SAPE  H17R17547   5.247   4.473   8.743  3.5106  0.8857 -0.8264
  157SAPE  H17S17548   5.199   4.313   8.798  0.0721 -1.0871  1.0174
  157SAPE  C21817549   5.414   4.351   8.800 -0.4837  0.2890 -0.2372
  157SAPE  H18R17550   5.425   4.262   8.865 -1.3140  0.5877  0.3217
  157SAPE  H18S17551   5.484   4.431   8.830 -1.0031  1.2704 -1.5849
  157SAPE  C21917552   5.450   4.319   8.659  0.6661 -0.6624 -0.0175
  157SAPE  H19R17553   5.363   4.273   8.608 -0.9631  2.0578  0.2191
  157SAPE  H19S17554   5.526   4.238   8.652 -0.1215 -1.3316 -0.8343
  157SAPE  C22017555   5.494   4.442   8.582  0.7667 -0.4353 -0.0452
  157SAPE  H20R17556   5.537   4.409   8.485  4.0516  2.8103  0.1851
  157SAPE  H20S17557   5.570   4.489   8.648 -0.2625 -0.0258  0.8652
  157SAPE  H20T17558   5.425   4.528   8.565  1.0606 -0.4333 -1.3159
  157SAPE   C3317559   5.008   3.852  10.122 -0.0832  0.2797 -0.4894
  157SAPE   H3X17560   4.935   3.809  10.193  0.5877  1.3242  0.8547
  157SAPE   H3Y17561   5.109   3.822  10.158 -0.2851 -0.7866 -0.7917
  157SAPE   C3417562   4.992   3.802   9.981 -0.3389  0.2488  0.2049
  157SAPE   H4X17563   4.886   3.812   9.948 -0.8220 -0.9989  1.3273
  157SAPE   H4Y17564   5.014   3.693   9.991  0.5656  0.4050 -0.0549
  157SAPE   C3517565   5.084   3.864   9.873  0.2241  0.2895  0.1766
  157SAPE   H5X17566   5.186   3.853   9.915  0.0810  0.2254  0.5035
  157SAPE   H5Y17567   5.048   3.969   9.871 -1.1444 -0.1305  1.9825
  157SAPE   C3617568   5.055   3.790   9.740  0.9063 -0.2444  0.2273
  157SAPE   H6X17569   4.945   3.780   9.736  0.7885 -0.5424  2.9715
  157SAPE   H6Y17570   5.116   3.697   9.746  2.5049  0.6330 -1.7909
  157SAPE   C3717571   5.102   3.874   9.624 -0.4178  0.2347  0.0120
  157SAPE   H7X17572   5.211   3.889   9.642  0.0177  0.3260 -2.4381
  157SAPE   H7Y17573   5.056   3.974   9.632  0.8979  1.1168 -2.7386
  157SAPE   C3817574   5.071   3.819   9.485  0.7569  0.1295 -0.4619
  157SAPE   H8X17575   4.962   3.802   9.491  1.0423 -1.7558 -0.0697
  157SAPE   H8Y17576   5.109   3.714   9.479  0.4810 -0.1710  2.2152
  157SAPE   C3917577   5.098   3.918   9.371 -0.0038  0.4507  0.4450
  157SAPE   H9X17578   5.193   3.908   9.315 -0.0692  1.1493  0.1955
  157SAPE   H9Y17579   5.097   4.021   9.413  0.7333  0.8385 -0.4802
  157SAPE  C31017580   4.990   3.907   9.260  0.2717  0.2828  0.1574
  157SAPE  H10X17581   4.895   3.908   9.318  0.4466 -1.3329  0.4911
  157SAPE  H10Y17582   4.998   3.809   9.209  3.7605 -0.1163  1.3433
  157SAPE  C31117583   5.013   4.007   9.149 -0.7655 -0.0410 -0.1651
  157SAPE  H11X17584   5.107   3.979   9.098 -0.9084  0.0861 -0.5049
  157SAPE  H11Y17585   5.037   4.110   9.184 -0.1514 -0.3168  0.2208
  157SAPE  C31217586   4.900   4.015   9.048 -0.4514 -0.3421  0.2757
  157SAPE  H12X17587   4.811   4.058   9.098 -0.1117  1.8045 -0.8725
  157SAPE  H12Y17588   4.872   3.916   9.007  1.2204 -0.6015 -0.2763
  157SAPE  C31317589   4.936   4.107   8.932 -0.7518  0.9976  0.0244
  157SAPE  H13X17590   5.019   4.073   8.867 -0.0505  2.0727  0.3246
  157SAPE  H13Y17591   4.963   4.205   8.977  1.5381  0.8464 -0.9671
  157SAPE  C31417592   4.818   4.141   8.842 -0.1244  0.2811  0.7198
  157SAPE  H14X17593   4.734   4.181   8.904  1.2085  3.4132  0.6359
  157SAPE  H14Y17594   4.797   4.057   8.774  2.0505 -0.5324  1.0057
  157SAPE  C31517595   4.871   4.248   8.738  0.4317  0.8070 -0.0987
  157SAPE  H15X17596   4.969   4.213   8.700  0.9125  0.9606  0.9760
  157SAPE  H15Y17597   4.895   4.342   8.792  3.3087  0.6138 -1.0060
  157SAPE  C31617598   4.775   4.256   8.619  0.1928  0.3643 -0.5958
  157SAPE  H16X17599   4.673   4.257   8.662 -0.2120 -2.7802 -1.3852
  157SAPE  H16Y17600   4.789   4.163   8.560  0.5562  0.5271 -0.7735
  157SAPE  C31717601   4.773   4.389   8.535  0.4529 -0.2266 -0.6649
  157SAPE  H17X17602   4.760   4.469   8.611 -0.1371 -0.6707 -0.2907
  157SAPE  H17Y17603   4.676   4.393   8.481  1.2343  2.7211 -1.9469
  157SAPE  C31817604   4.883   4.407   8.435  0.1841 -0.2632 -0.1135
  157SAPE  H18X17605   4.873   4.335   8.351 -1.0931 -0.6257  0.3463
  157SAPE  H18Y17606   4.981   4.411   8.488 -0.7454 -1.6787  1.7232
  157SAPE  H18Z17607   4.866   4.502   8.380 -0.1355 -0.0107  0.4197
  158SAPE     N17608   6.628   5.577  10.554  0.1297  0.6736 -0.1598
  158SAPE   HN117609   6.667   5.666  10.591 -0.4428  0.3594  1.2530
  158SAPE   HN217610   6.643   5.509  10.631 -1.6188 -1.0216 -1.2726
  158SAPE   HN317611   6.695   5.548  10.480  1.4310  1.9788  0.4808
  158SAPE   C1217612   6.484   5.574  10.518  0.3042 -0.0463  0.7153
  158SAPE  H12A17613   6.467   5.651  10.440  0.5248 -0.0565  0.6574
  158SAPE  H12B17614   6.425   5.614  10.604 -2.5027  0.2485 -1.2645
  158SAPE   C1117615   6.437   5.428  10.477  0.0054  0.9089 -0.2327
  158SAPE  H11A17616   6.479   5.402  10.377  0.3527 -0.9132  0.3582
  158SAPE  H11B17617   6.326   5.426  10.471 -0.0686  0.6329  1.0990
  158SAPE     P17618   6.417   5.203  10.609 -0.3497  0.0341  0.2503
  158SAPE   O1317619   6.500   5.132  10.709 -0.2735 -0.2207 -0.0407
  158SAPE   O1417620   6.269   5.217  10.631  0.0757  0.5388  0.0524
  158SAPE   O1217621   6.486   5.336  10.575 -0.5342 -0.2867  0.2821
  158SAPE   O1117622   6.435   5.146  10.461 -0.2954  0.2504 -0.1077
  158SAPE    C117623   6.567   5.137  10.406  0.4019 -0.6477  0.6037
  158SAPE    HA17624   6.619   5.235  10.418  2.2313 -1.2780 -1.8082
  158SAPE    HB17625   6.624   5.058  10.458  1.6314  0.0885  0.3869
  158SAPE    C217626   6.567   5.106  10.248  0.6442  0.7098  0.3436
  158SAPE    HS17627   6.570   5.202  10.192 -1.7677 -0.4542 -1.8827
  158SAPE   O2117628   6.454   5.020  10.226  0.2375 -0.4303 -0.4219
  158SAPE   C2117629   6.412   5.030  10.095  0.2603  0.2186  0.1299
  158SAPE   O2217630   6.463   5.095  10.005 -0.2248  0.0449  0.0188
  158SAPE   C2217631   6.286   4.941  10.086 -0.3847 -0.6376 -0.2092
  158SAPE   H2R17632   6.305   4.854  10.151 -0.7939 -0.2625  0.4161
  158SAPE   H2S17633   6.205   5.004  10.129  0.3162  0.0921  0.0462
  158SAPE    C317634   6.694   5.040  10.216 -0.0053 -0.2414  0.0425
  158SAPE    HX17635   6.702   4.956  10.288 -1.5174 -1.6470 -1.3812
  158SAPE    HY17636   6.775   5.113  10.241  1.5272 -0.9975 -2.4878
  158SAPE   O3117637   6.697   4.992  10.082 -0.4872  0.2334  0.3590
  158SAPE   C3117638   6.737   5.081   9.994  0.2572  0.1256  0.3194
  158SAPE   O3217639   6.771   5.196  10.016  0.1470 -0.1335  0.2994
  158SAPE   C3217640   6.737   5.012   9.856  0.5664 -0.0740 -0.8346
  158SAPE   H2X17641   6.707   5.085   9.778  1.1773  0.6634 -0.3953
  158SAPE   H2Y17642   6.661   4.932   9.855 -1.6166  1.9329  0.1352
  158SAPE   C2317643   6.251   4.890   9.944 -0.1453 -0.4343  0.4509
  158SAPE   H3R17644   6.245   4.977   9.876  1.6905 -0.1191  0.6702
  158SAPE   H3S17645   6.145   4.858   9.956 -0.5544  1.8844  3.8023
  158SAPE   C2417646   6.335   4.783   9.886  0.3565  0.4550 -0.1243
  158SAPE   H4R17647   6.353   4.712   9.970 -0.5781 -0.1031 -0.3802
  158SAPE   H4S17648   6.433   4.834   9.872  0.8274 -0.2707  0.4730
  158SAPE   C2517649   6.279   4.714   9.765  0.2789  0.3144 -0.7413
  158SAPE   H5R17650   6.218   4.623   9.778 -0.6589  0.9997 -0.3346
  158SAPE   C2617651   6.295   4.763   9.642  0.8935 -0.5390 -0.6783
  158SAPE   H6R17652   6.251   4.706   9.559  0.8574 -0.3703 -0.7741
  158SAPE   C2717653   6.362   4.898   9.605  0.2357 -0.5127  0.4836
  158SAPE   H7R17654   6.377   4.954   9.699  0.8100 -0.4654  0.3622
  158SAPE   H7S17655   6.287   4.961   9.552 -1.1972 -2.7512 -0.2471
  158SAPE   C2817656   6.478   4.874   9.512 -0.2057 -0.4793 -1.0214
  158SAPE   H8R17657   6.569   4.844   9.566 -1.3794  0.8918  1.8544
  158SAPE   C2917658   6.484   4.876   9.373 -0.7439  0.0405  0.3418
  158SAPE   H9R17659   6.580   4.852   9.326 -0.0681  0.6531  1.3784
  158SAPE  C21017660   6.376   4.917   9.273 -0.2148 -0.4101 -0.4888
  158SAPE  H10R17661   6.412   5.001   9.209  1.0132  3.6498  5.1071
  158SAPE  H10S17662   6.287   4.962   9.322  0.6369  2.0628 -1.1282
  158SAPE  C21117663   6.327   4.821   9.170 -0.0080  0.2432 -0.6209
  158SAPE  H11R17664   6.336   4.716   9.203  1.7844  0.4191 -0.4633
  158SAPE  C21217665   6.254   4.842   9.057 -0.3007 -0.8365  0.0435
  158SAPE  H12R17666   6.227   4.749   9.004 -0.5233 -0.2295 -0.9359
  158SAPE  C21317667   6.196   4.965   9.001  0.2904 -0.4710  0.2424
  158SAPE  H13R17668   6.223   4.956   8.894  0.8381  1.3089  0.2131
  158SAPE  H13S17669   6.252   5.052   9.042  0.7618 -1.0856  0.9129
  158SAPE  C21417670   6.053   4.987   9.022  0.1116 -0.4139  0.1162
  158SAPE  H14R17671   6.018   5.028   9.118  1.3949  1.6551 -0.2724
  158SAPE  C21517672   5.960   4.953   8.929  0.0855  0.4937  0.2965
  158SAPE  H15R17673   5.854   4.968   8.955 -0.4126  0.0827 -1.4395
  158SAPE  C21617674   5.973   4.892   8.798  0.2386  0.1504  0.7695
  158SAPE  H16R17675   5.877   4.841   8.775 -1.6320  3.2006  1.5292
  158SAPE  H16S17676   6.054   4.818   8.784  2.0830  2.2775 -0.2532
  158SAPE  C21717677   6.020   4.997   8.689  1.0243 -0.2906 -0.1827
  158SAPE  H17R17678   6.018   4.943   8.592 -1.2561 -0.6317  0.0155
  158SAPE  H17S17679   6.122   5.037   8.703  0.8813  0.5991 -1.5397
  158SAPE  C21817680   5.914   5.104   8.663 -0.0274  0.3135 -0.4562
  158SAPE  H18R17681   5.889   5.146   8.763 -1.3145  0.5203 -0.8533
  158SAPE  H18S17682   5.813   5.070   8.632 -0.1480  0.8024 -0.5960
  158SAPE  C21917683   5.955   5.219   8.573  0.0535 -0.7692 -0.3674
  158SAPE  H19R17684   5.980   5.186   8.470  0.7709 -2.2826  0.2783
  158SAPE  H19S17685   6.055   5.253   8.609 -0.4794 -0.3758  0.7830
  158SAPE  C22017686   5.857   5.333   8.574  0.1995  0.3588 -0.0663
  158SAPE  H20R17687   5.888   5.417   8.508 -0.0366 -0.2313 -0.9444
  158SAPE  H20S17688   5.850   5.376   8.676 -1.5924 -3.7731  1.6342
  158SAPE  H20T17689   5.754   5.302   8.546  0.1491  0.7705 -0.3492
  158SAPE   C3317690   6.879   4.958   9.813  0.0109  0.0600  1.0986
  158SAPE   H3X17691   6.872   4.901   9.719  0.2318  2.7873 -0.6167
  158SAPE   H3Y17692   6.938   4.903   9.889  3.0268  1.8936  0.1802
  158SAPE   C3417693   6.982   5.074   9.800  0.4608  0.2194  0.8724
  158SAPE   H4X17694   7.076   5.022   9.772  1.9436  2.4216  1.6890
  158SAPE   H4Y17695   7.007   5.125   9.895 -1.3359  1.0433  0.9341
  158SAPE   C3517696   6.957   5.179   9.695  0.2121 -0.2143 -0.4342
  158SAPE   H5X17697   7.041   5.252   9.692  1.5598 -1.5348  3.1423
  158SAPE   H5Y17698   6.865   5.237   9.719 -0.8564 -1.6433 -1.0395
  158SAPE   C3617699   6.933   5.117   9.555 -0.0383  0.6162  0.0696
  158SAPE   H6X17700   6.921   5.203   9.486 -1.1355  0.5229  0.1384
  158SAPE   H6Y17701   6.834   5.067   9.554  0.5728 -0.5903 -0.7586
  158SAPE   C3717702   7.041   5.016   9.510 -0.1999 -0.3805  0.2509
  158SAPE   H7X17703   7.052   4.935   9.585  0.5384 -0.2629  0.2679
  158SAPE   H7Y17704   7.136   5.073   9.519 -1.0111  0.8007  1.4691
  158SAPE   C3817705   7.020   4.966   9.363  0.5628 -0.5174  0.5860
  158SAPE   H8X17706   6.919   4.924   9.348  0.1311  0.8890 -0.5024
  158SAPE   H8Y17707   7.098   4.894   9.330  0.4994 -0.9523  1.3819
  158SAPE   C3917708   7.034   5.086   9.268  0.0667 -0.4805 -0.1940
  158SAPE   H9X17709   7.123   5.145   9.298  1.3504 -1.3494 -2.1507
  158SAPE   H9Y17710   6.942   5.148   9.274 -0.0304 -0.1919 -3.5526
  158SAPE  C31017711   7.056   5.039   9.117 -0.5836  0.5610  0.2320
  158SAPE  H10X17712   6.961   5.006   9.069 -0.0324 -2.7165  1.2913
  158SAPE  H10Y17713   7.124   4.952   9.109  0.0135  1.0870 -0.5227
  158SAPE  C31117714   7.128   5.148   9.029 -0.2077 -0.3309  0.6296
  158SAPE  H11X17715   7.207   5.202   9.086 -0.5040  0.3441  0.4073
  158SAPE  H11Y17716   7.052   5.224   9.003 -0.7220 -0.7334  0.9419
  158SAPE  C31217717   7.198   5.086   8.904  0.0176 -0.2823  0.3223
  158SAPE  H12X17718   7.119   5.034   8.845  0.8258  1.5911 -2.5011
  158SAPE  H12Y17719   7.269   5.015   8.952  2.9944  3.2053  1.2903
  158SAPE  C31317720   7.276   5.189   8.832 -0.2482 -0.3080  0.1706
  158SAPE  H13X17721   7.322   5.262   8.901  0.2383 -0.2290 -0.2311
  158SAPE  H13Y17722   7.202   5.246   8.771  0.8880 -1.3239 -2.2191
  158SAPE  C31417723   7.377   5.137   8.734  0.3236  0.1579  0.1668
  158SAPE  H14X17724   7.325   5.093   8.646  1.3501  0.1292 -0.4370
  158SAPE  H14Y17725   7.445   5.068   8.789  1.6873  0.3802 -1.2030
  158SAPE  C31517726   7.465   5.255   8.682 -0.3307 -0.2505  0.3899
  158SAPE  H15X17727   7.501   5.314   8.769  0.3773 -1.7584  1.1306
  158SAPE  H15Y17728   7.405   5.324   8.619  0.9663 -0.1428 -0.7624
  158SAPE  C31617729   7.581   5.202   8.593 -0.0831  0.0185 -0.7021
  158SAPE  H16X17730   7.639   5.128   8.652 -0.9033  0.7206  1.0101
  158SAPE  H16Y17731   7.635   5.285   8.542 -0.9808 -0.8011 -3.0599
  158SAPE  C31717732   7.511   5.119   8.474 -0.7198 -0.2259  0.0079
  158SAPE  H17X17733   7.419   5.170   8.438 -0.8279 -0.7583 -0.4702
  158SAPE  H17Y17734   7.478   5.030   8.531 -1.2088  0.7762  1.3250
  158SAPE  C31817735   7.608   5.077   8.359 -0.1003  0.2120  0.5384
  158SAPE  H18X17736   7.552   5.038   8.271 -0.2655  0.4168  0.5540
  158SAPE  H18Y17737   7.683   5.004   8.396 -0.3915 -1.6823 -2.4290
  158SAPE  H18Z17738   7.669   5.161   8.319  1.6221 -0.8504  0.8970
  159SAPE     N17739   6.616   2.752   6.217  0.6771 -0.7371  0.1740
  159SAPE   HN117740   6.633   2.837   6.274  1.0517  0.5389 -1.7708
  159SAPE   HN217741   6.668   2.757   6.126  0.9602  0.1547  0.3825
  159SAPE   HN317742   6.517   2.756   6.186  0.7815 -0.9520 -0.2005
  159SAPE   C1217743   6.636   2.627   6.293  0.4091 -0.1403  0.1347
  159SAPE  H12A17744   6.734   2.638   6.345  1.4875 -3.5155 -1.0800
  159SAPE  H12B17745   6.642   2.546   6.217 -1.4438 -0.1513 -0.0038
  159SAPE   C1117746   6.517   2.609   6.386 -0.2000 -0.3338 -0.1973
  159SAPE  H11A17747   6.511   2.696   6.455 -2.6951 -0.9154  0.3703
  159SAPE  H11B17748   6.539   2.524   6.454 -1.1078 -0.0782  0.4231
  159SAPE     P17749   6.291   2.467   6.327  0.1229 -0.1960  0.6737
  159SAPE   O1317750   6.162   2.506   6.265 -0.7272 -0.3078  0.5076
  159SAPE   O1417751   6.350   2.342   6.271  0.5529  0.4528 -0.1883
  159SAPE   O1217752   6.390   2.595   6.321  0.1336 -0.1466 -0.4104
  159SAPE   O1117753   6.268   2.446   6.483 -0.5548 -0.3000 -0.4829
  159SAPE    C117754   6.327   2.328   6.547  0.7310  0.2169  0.4437
  159SAPE    HA17755   6.423   2.297   6.501  1.2432  2.3236  0.0156
  159SAPE    HB17756   6.351   2.362   6.650  0.9793 -0.3622  0.5740
  159SAPE    C217757   6.217   2.219   6.550 -0.6152 -0.3304 -0.2503
  159SAPE    HS17758   6.187   2.195   6.446  1.8155  0.6546 -1.2233
  159SAPE   O2117759   6.106   2.265   6.630  0.2913 -0.3017 -0.6408
  159SAPE   C2117760   5.986   2.216   6.599 -0.2383 -0.2793 -0.4701
  159SAPE   O2217761   5.955   2.138   6.513  0.2722  0.1006 -0.1128
  159SAPE   C2217762   5.875   2.273   6.687  0.0155 -0.4067 -0.3427
  159SAPE   H2R17763   5.793   2.315   6.626  1.1972  2.2504 -0.1857
  159SAPE   H2S17764   5.830   2.179   6.726  0.6834 -0.6510 -0.1401
  159SAPE    C317765   6.278   2.086   6.609 -0.4525  0.7613  0.3321
  159SAPE    HX17766   6.359   2.057   6.539 -1.8060 -0.9557 -0.5506
  159SAPE    HY17767   6.211   1.998   6.602 -1.3738  1.4645  0.2407
  159SAPE   O3117768   6.325   2.097   6.741  0.3033 -0.2505 -0.6603
  159SAPE   C3117769   6.221   2.093   6.839 -0.1599 -0.4369 -0.6047
  159SAPE   O3217770   6.104   2.059   6.815 -0.1056 -0.3289 -0.1277
  159SAPE   C3217771   6.275   2.130   6.975  0.0237 -0.7555  0.5023
  159SAPE   H2X17772   6.380   2.094   6.981  0.0897 -0.7694 -0.6352
  159SAPE   H2Y17773   6.209   2.078   7.048 -0.0393 -1.0193  0.2616
  159SAPE   C2317774   5.918   2.360   6.814  0.3994 -0.0598 -0.6494
  159SAPE   H3R17775   5.987   2.444   6.789 -2.2273  2.6418  0.8313
  159SAPE   H3S17776   5.978   2.295   6.880 -1.6763 -2.1497 -0.7437
  159SAPE   C2417777   5.795   2.421   6.884  0.5828  0.2095 -1.1152
  159SAPE   H4R17778   5.713   2.347   6.899  2.9124 -2.1701  0.4813
  159SAPE   H4S17779   5.751   2.492   6.811 -0.6474 -0.1425 -0.7366
  159SAPE   C2517780   5.828   2.504   7.010 -0.0902 -0.0681  0.1683
  159SAPE   H5R17781   5.871   2.602   6.986 -0.0826  0.3907  2.0104
  159SAPE   C2617782   5.825   2.465   7.139 -0.3715 -0.0188 -0.0687
  159SAPE   H6R17783   5.839   2.546   7.212 -1.2683  0.2145 -0.1436
  159SAPE   C2717784   5.789   2.330   7.202  0.5103  0.5254 -0.0970
  159SAPE   H7R17785   5.833   2.331   7.305 -0.8941  2.7330  0.5101
  159SAPE   H7S17786   5.836   2.241   7.154 -1.0476 -1.6404  2.2683
  159SAPE   C2817787   5.638   2.313   7.209  0.8726 -0.3632  0.1997
  159SAPE   H8R17788   5.594   2.307   7.108  1.1677  1.7381 -0.0793
  159SAPE   C2917789   5.557   2.319   7.324 -0.6612 -0.3142 -0.4744
  159SAPE   H9R17790   5.448   2.306   7.324 -0.6654 -0.2536  0.4922
  159SAPE  C21017791   5.617   2.322   7.460 -0.1696  0.0429 -0.6572
  159SAPE  H10R17792   5.726   2.341   7.465 -0.0045 -0.7470 -1.1577
  159SAPE  H10S17793   5.625   2.216   7.493  1.1894  0.0883 -0.8086
  159SAPE  C21117794   5.550   2.410   7.558  0.0261 -0.6075  0.0774
  159SAPE  H11R17795   5.509   2.503   7.516  1.1666  0.2091  0.7501
  159SAPE  C21217796   5.548   2.393   7.697 -0.0266 -0.1644  0.1662
  159SAPE  H12R17797   5.499   2.470   7.757 -0.8201  1.3311 -2.3239
  159SAPE  C21317798   5.607   2.274   7.767  0.2837  0.3516  0.0892
  159SAPE  H13R17799   5.672   2.308   7.850 -0.2837  1.5369  0.0559
  159SAPE  H13S17800   5.666   2.211   7.697 -2.2118 -0.5681 -1.2409
  159SAPE  C21417801   5.505   2.182   7.827  0.4523 -0.0804 -0.8594
  159SAPE  H14R17802   5.447   2.135   7.747  0.3533  0.6015 -1.1909
  159SAPE  C21517803   5.484   2.142   7.956 -0.5535  0.5872  0.0712
  159SAPE  H15R17804   5.406   2.069   7.983  1.0664 -2.2723 -2.6239
  159SAPE  C21617805   5.573   2.187   8.072 -0.4877 -0.1997  0.4903
  159SAPE  H16R17806   5.606   2.292   8.060 -4.2268  1.2758  2.6523
  159SAPE  H16S17807   5.663   2.122   8.082 -0.7913 -0.5520  0.9200
  159SAPE  C21717808   5.495   2.186   8.205  0.2938  0.0895  0.3530
  159SAPE  H17R17809   5.395   2.236   8.199  0.5542  0.5402 -0.3342
  159SAPE  H17S17810   5.542   2.253   8.280  1.1753  1.4140 -1.3340
  159SAPE  C21817811   5.475   2.057   8.278  1.1633  0.9210 -1.2209
  159SAPE  H18R17812   5.573   2.021   8.316  0.3507 -0.0151  0.0512
  159SAPE  H18S17813   5.423   1.977   8.222 -2.2992  0.6127  2.1811
  159SAPE  C21917814   5.388   2.078   8.404 -0.0685 -0.1190  0.6196
  159SAPE  H19R17815   5.300   2.134   8.363 -0.2593 -0.5414  0.4461
  159SAPE  H19S17816   5.432   2.150   8.476 -0.7633  1.3284 -0.3784
  159SAPE  C22017817   5.351   1.950   8.472  0.4179  0.0425  0.6028
  159SAPE  H20R17818   5.270   1.902   8.412  0.1093 -0.3078  1.2856
  159SAPE  H20S17819   5.318   1.969   8.577  1.6951  2.7198  0.5508
  159SAPE  H20T17820   5.442   1.889   8.490  2.0321  2.0480 -0.7672
  159SAPE   C3317821   6.261   2.278   6.996 -0.6332 -0.9787 -0.1857
  159SAPE   H3X17822   6.166   2.331   6.975  0.2621  0.5457 -0.4255
  159SAPE   H3Y17823   6.338   2.336   6.941  0.9595 -0.3502  2.6076
  159SAPE   C3417824   6.298   2.309   7.136  0.4934 -0.1269 -0.3077
  159SAPE   H4X17825   6.350   2.406   7.149  1.5540 -0.4539 -2.0756
  159SAPE   H4Y17826   6.373   2.239   7.178 -0.0881 -0.1275  0.7528
  159SAPE   C3517827   6.170   2.314   7.233  0.0739 -0.5713 -0.1165
  159SAPE   H5X17828   6.109   2.221   7.238 -0.3453 -0.2791  0.2206
  159SAPE   H5Y17829   6.104   2.395   7.196  0.0443  0.8034  2.7502
  159SAPE   C3617830   6.218   2.353   7.376 -0.1776 -0.3294  0.2005
  159SAPE   H6X17831   6.288   2.440   7.377  1.2900 -1.4502 -1.8377
  159SAPE   H6Y17832   6.285   2.268   7.401 -1.4961 -1.6756 -0.7590
  159SAPE   C3717833   6.102   2.362   7.484  0.6384  0.2639 -0.2417
  159SAPE   H7X17834   6.017   2.298   7.453  1.1783 -0.4020 -0.3530
  159SAPE   H7Y17835   6.076   2.470   7.497 -0.5904  0.0420 -0.7281
  159SAPE   C3817836   6.133   2.326   7.628 -0.2331 -0.4775  0.4658
  159SAPE   H8X17837   6.219   2.385   7.664  2.0027 -1.8450 -2.3993
  159SAPE   H8Y17838   6.150   2.216   7.625 -2.4315 -0.8190 -2.2836
  159SAPE   C3917839   6.018   2.351   7.728  0.0022  0.7738  0.8512
  159SAPE   H9X17840   5.930   2.293   7.695  1.4549 -1.3791  0.7110
  159SAPE   H9Y17841   5.997   2.461   7.728  0.9653  0.9662  2.4484
  159SAPE  C31017842   6.059   2.316   7.869 -0.2512  0.1901  0.2053
  159SAPE  H10X17843   6.137   2.392   7.886 -0.5910  0.3213  1.2111
  159SAPE  H10Y17844   6.101   2.213   7.875  2.5380  1.4369  3.7709
  159SAPE  C31117845   5.941   2.322   7.965  0.5624 -0.6569 -0.3591
  159SAPE  H11X17846   5.881   2.230   7.951 -0.0363 -0.5017  1.1995
  159SAPE  H11Y17847   5.881   2.413   7.943 -0.1240 -0.3881  2.4758
  159SAPE  C31217848   5.993   2.339   8.101  0.2238  0.2881 -0.0231
  159SAPE  H12X17849   6.033   2.443   8.103 -1.9659  1.2783 -3.6793
  159SAPE  H12Y17850   6.084   2.277   8.118  1.3323  2.2529  1.4645
  159SAPE  C31317851   5.882   2.321   8.213 -0.4613 -0.2512 -0.1585
  159SAPE  H13X17852   5.860   2.212   8.212  1.2336 -0.6053 -0.0010
  159SAPE  H13Y17853   5.794   2.384   8.190 -0.0526  0.3090 -0.2082
  159SAPE  C31417854   5.930   2.372   8.349 -0.0375  0.8161  0.4458
  159SAPE  H14X17855   5.923   2.483   8.350 -1.0234  0.7484  1.7736
  159SAPE  H14Y17856   6.035   2.342   8.369  0.3096 -0.2231 -2.6098
  159SAPE  C31517857   5.834   2.319   8.460  0.2809  0.3741 -0.3883
  159SAPE  H15X17858   5.728   2.351   8.453 -0.3261 -1.0825  1.6477
  159SAPE  H15Y17859   5.872   2.349   8.560  0.6770 -1.6835  0.1143
  159SAPE  C31617860   5.851   2.165   8.471  0.1968  0.8222 -0.0541
  159SAPE  H16X17861   5.958   2.138   8.480 -0.1156 -0.2206  0.6126
  159SAPE  H16Y17862   5.805   2.116   8.383  4.6555  0.9262 -2.5900
  159SAPE  C31717863   5.779   2.099   8.592  0.4284 -0.0469  0.3653
  159SAPE  H17X17864   5.671   2.125   8.594  0.4110 -0.1412  3.7778
  159SAPE  H17Y17865   5.807   2.149   8.688  0.9157 -0.1243  0.2643
  159SAPE  C31817866   5.792   1.951   8.597  0.4853 -0.0606 -0.3105
  159SAPE  H18X17867   5.899   1.931   8.575  0.4249 -0.6268 -0.0813
  159SAPE  H18Y17868   5.730   1.894   8.524 -2.6344 -0.3186  2.4063
  159SAPE  H18Z17869   5.761   1.915   8.697 -2.4722  1.7987 -0.4738
  160SAPE     N17870   4.440   3.864   5.956 -0.4028 -0.7414  0.1307
  160SAPE   HN117871   4.394   3.846   5.864  1.2851  2.1869 -1.3561
  160SAPE   HN217872   4.515   3.797   5.981 -0.2554 -0.0056  1.7527
  160SAPE   HN317873   4.355   3.855   6.015 -1.6777 -0.9392 -1.7063
  160SAPE   C1217874   4.479   4.005   5.976  0.0193  0.0722 -0.2005
  160SAPE  H12A17875   4.402   4.074   5.934 -0.0570  0.0869 -0.0357
  160SAPE  H12B17876   4.571   4.025   5.917  2.0777 -2.8602  1.8743
  160SAPE   C1117877   4.529   4.028   6.120  0.2914 -0.3269  0.2353
  160SAPE  H11A17878   4.458   3.985   6.193 -0.9841  0.9635 -0.2202
  160SAPE  H11B17879   4.525   4.136   6.149 -0.2741 -0.6867  1.5234
  160SAPE     P17880   4.730   3.948   6.267  0.0639  0.2165 -0.5117
  160SAPE   O1317881   4.707   3.809   6.304 -0.7082  0.5268  0.6711
  160SAPE   O1417882   4.868   3.992   6.252  0.1569 -0.5462 -0.3773
  160SAPE   O1217883   4.658   3.974   6.132  0.2561 -0.5079 -0.0894
  160SAPE   O1117884   4.646   4.033   6.363 -0.1134 -0.0047 -0.3027
  160SAPE    C117885   4.707   4.133   6.447  0.1640  0.3473 -0.6692
  160SAPE    HA17886   4.791   4.188   6.399 -0.3678  1.9324  0.1998
  160SAPE    HB17887   4.620   4.197   6.474  1.0232  1.2145  0.0778
  160SAPE    C217888   4.770   4.071   6.580 -0.0758 -0.5527 -0.4357
  160SAPE    HS17889   4.849   3.999   6.549 -0.3451 -0.7374 -0.6955
  160SAPE   O2117890   4.662   4.002   6.644  0.3450  0.2884  0.2140
  160SAPE   C2117891   4.694   3.902   6.731  0.2695 -0.2428  0.6091
  160SAPE   O2217892   4.798   3.845   6.738 -0.3960 -0.1236 -0.5104
  160SAPE   C2217893   4.565   3.860   6.802  0.3059 -0.4346 -0.7466
  160SAPE   H2R17894   4.512   3.953   6.831 -1.9025 -1.1322 -2.3883
  160SAPE   H2S17895   4.505   3.809   6.724 -2.0956 -0.6560  1.1667
  160SAPE    C317896   4.837   4.186   6.673  0.5022 -0.7017  0.0069
  160SAPE    HX17897   4.748   4.247   6.700 -1.3577 -1.9384 -3.0713
  160SAPE    HY17898   4.898   4.260   6.619  1.3468 -1.2897  0.1532
  160SAPE   O3117899   4.913   4.142   6.791  0.2332  0.1202  0.2536
  160SAPE   C3117900   5.018   4.073   6.760  0.2281  0.8403  0.4299
  160SAPE   O3217901   5.060   4.055   6.649 -0.2926 -0.3406  0.3650
  160SAPE   C3217902   5.090   4.015   6.887 -0.0821  0.2810  0.4534
  160SAPE   H2X17903   5.173   4.082   6.918 -0.1000  0.9309 -0.8820
  160SAPE   H2Y17904   5.145   3.924   6.855 -0.3763  0.0830  0.5142
  160SAPE   C2317905   4.581   3.769   6.920 -0.6166  0.0574  0.2607
  160SAPE   H3R17906   4.650   3.823   6.989 -1.5108  1.4835  0.0480
  160SAPE   H3S17907   4.634   3.677   6.886  1.1714  0.5420  1.6322
  160SAPE   C2417908   4.445   3.735   6.983  0.3180  0.4380 -0.1052
  160SAPE   H4R17909   4.364   3.696   6.917  0.0707  0.0241  0.4367
  160SAPE   H4S17910   4.404   3.829   7.024 -0.2922 -0.4957  1.4816
  160SAPE   C2517911   4.480   3.633   7.088 -0.0923  0.1634 -0.3555
  160SAPE   H5R17912   4.486   3.534   7.043  0.6865  1.0665 -2.2769
  160SAPE   C2617913   4.496   3.653   7.217 -0.0410  0.4033  0.1187
  160SAPE   H6R17914   4.514   3.567   7.283 -1.6030  0.5465  0.7398
  160SAPE   C2717915   4.494   3.780   7.295  0.2319  0.1013 -0.2658
  160SAPE   H7R17916   4.469   3.866   7.229 -0.3420 -1.1832 -1.7317
  160SAPE   H7S17917   4.597   3.794   7.335 -0.3063 -0.2974  1.3182
  160SAPE   C2817918   4.387   3.780   7.407  0.2212  0.1934 -0.2887
  160SAPE   H8R17919   4.282   3.776   7.373 -0.1345 -0.7170  0.8885
  160SAPE   C2917920   4.402   3.752   7.537  1.3634  0.4392  0.3290
  160SAPE   H9R17921   4.315   3.761   7.603 -0.1295  0.2323 -1.5608
  160SAPE  C21017922   4.529   3.713   7.605 -0.3320 -0.2909 -0.2674
  160SAPE  H10R17923   4.617   3.730   7.540 -0.1431  0.2412  0.1185
  160SAPE  H10S17924   4.523   3.604   7.626  1.2307 -0.1487  1.0658
  160SAPE  C21117925   4.569   3.787   7.732  0.0908 -0.2026 -0.1727
  160SAPE  H11R17926   4.631   3.874   7.709 -0.4021 -0.2761 -1.8493
  160SAPE  C21217927   4.539   3.763   7.865  0.4031  0.4450  0.1275
  160SAPE  H12R17928   4.569   3.829   7.947  0.2851  0.9301 -0.2201
  160SAPE  C21317929   4.447   3.651   7.908 -0.1461 -0.8601  0.0744
  160SAPE  H13R17930   4.502   3.593   7.986  2.4517 -0.2699 -1.2445
  160SAPE  H13S17931   4.421   3.577   7.830 -2.2378 -0.9522  0.8287
  160SAPE  C21417932   4.330   3.715   7.965  0.9547 -0.3238 -0.1539
  160SAPE  H14R17933   4.259   3.756   7.892 -0.4857 -3.1697 -0.4343
  160SAPE  C21517934   4.303   3.736   8.100 -0.2256  0.3884  0.2270
  160SAPE  H15R17935   4.207   3.783   8.128 -0.0426  0.2947  1.0294
  160SAPE  C21617936   4.398   3.686   8.203 -0.0694  0.3680 -0.2093
  160SAPE  H16R17937   4.503   3.711   8.177  0.3635  0.2338  1.3323
  160SAPE  H16S17938   4.403   3.575   8.207 -0.1218  0.3847  0.2993
  160SAPE  C21717939   4.363   3.743   8.338  0.2233 -0.4171  0.0667
  160SAPE  H17R17940   4.273   3.690   8.377 -0.2108 -0.5337 -1.0792
  160SAPE  H17S17941   4.335   3.850   8.330  2.6539  0.1626 -1.0703
  160SAPE  C21817942   4.478   3.745   8.444  0.4549 -0.2231 -0.7047
  160SAPE  H18R17943   4.565   3.802   8.406  0.1123  2.1701  1.9993
  160SAPE  H18S17944   4.516   3.641   8.460  1.6075  0.2130 -0.5897
  160SAPE  C21917945   4.442   3.803   8.579 -0.6399 -0.1772 -0.1604
  160SAPE  H19R17946   4.507   3.759   8.658 -0.8238 -0.0069  0.0866
  160SAPE  H19S17947   4.334   3.783   8.591 -0.1731 -1.4876  2.1534
  160SAPE  C22017948   4.453   3.959   8.588 -0.2683  0.1884  0.4923
  160SAPE  H20R17949   4.409   3.993   8.684  0.0434 -0.1199  0.7463
  160SAPE  H20S17950   4.393   4.007   8.508  3.2008  1.5054 -1.4222
  160SAPE  H20T17951   4.560   3.988   8.581  0.0831 -0.7467  1.8358
  160SAPE   C3317952   4.994   3.987   7.000  0.9314 -0.5736 -0.0793
  160SAPE   H3X17953   4.894   3.945   6.974  0.3278  0.0699  1.1502
  160SAPE   H3Y17954   4.967   4.074   7.064 -0.0986 -1.1533  0.2787
  160SAPE   C3417955   5.050   3.885   7.092  0.2499  0.0633  0.3661
  160SAPE   H4X17956   5.080   3.808   7.017  2.1064 -0.7222  1.8528
  160SAPE   H4Y17957   4.966   3.848   7.155 -1.1225  0.7163 -1.0619
  160SAPE   C3517958   5.168   3.926   7.179 -0.3213  0.5275 -0.5944
  160SAPE   H5X17959   5.132   3.994   7.259 -0.8033 -1.4919  0.9394
  160SAPE   H5Y17960   5.233   3.984   7.111  0.3547 -1.0333 -1.3053
  160SAPE   C3617961   5.257   3.820   7.246  0.1347  1.0431 -0.5312
  160SAPE   H6X17962   5.360   3.862   7.252  0.5801 -0.2924  1.8250
  160SAPE   H6Y17963   5.258   3.723   7.194  0.0492  0.9375 -0.3367
  160SAPE   C3717964   5.214   3.787   7.391 -0.3550 -0.1285 -0.3143
  160SAPE   H7X17965   5.271   3.698   7.424 -1.9074 -0.8314  0.5304
  160SAPE   H7Y17966   5.109   3.751   7.383 -0.8817  1.2891  0.0446
  160SAPE   C3817967   5.237   3.900   7.496  0.2564 -0.0184  0.6111
  160SAPE   H8X17968   5.192   3.995   7.462  0.4268  0.6417  2.1786
  160SAPE   H8Y17969   5.347   3.905   7.509  0.6670 -1.6221 -1.9526
  160SAPE   C3917970   5.178   3.865   7.634 -0.4359  0.7360 -0.1805
  160SAPE   H9X17971   5.231   3.777   7.676 -0.7040  0.1660 -1.0259
  160SAPE   H9Y17972   5.074   3.836   7.607 -0.4462  0.6015  0.0037
  160SAPE  C31017973   5.189   3.979   7.743 -0.0436 -0.0965 -0.6466
  160SAPE  H10X17974   5.168   4.080   7.702 -1.7555  0.1064  0.6627
  160SAPE  H10Y17975   5.298   3.980   7.765 -0.4603  0.6494  1.5630
  160SAPE  C31117976   5.107   3.945   7.870  0.7864  0.5999 -0.2663
  160SAPE  H11X17977   5.129   3.838   7.891 -1.1346  0.1224 -0.5124
  160SAPE  H11Y17978   4.997   3.945   7.849  0.6634  1.7249  0.3476
  160SAPE  C31217979   5.138   4.014   8.008  0.8082  0.0765  1.3364
  160SAPE  H12X17980   5.099   4.118   8.003 -0.8589 -0.5879  0.1882
  160SAPE  H12Y17981   5.249   4.018   8.008  0.9350 -2.2038 -1.0763
  160SAPE  C31317982   5.100   3.946   8.139  0.1913  0.0370  0.4449
  160SAPE  H13X17983   5.168   3.992   8.215 -0.9509  1.2887  0.7236
  160SAPE  H13Y17984   5.134   3.840   8.144  0.0406 -0.0009  0.6695
  160SAPE  C31417985   4.955   3.979   8.183 -0.5797 -0.0312 -0.3092
  160SAPE  H14X17986   4.891   3.897   8.146 -1.0195  1.0849 -2.0825
  160SAPE  H14Y17987   4.924   4.077   8.140 -3.5714 -0.1101  1.5550
  160SAPE  C31517988   4.931   4.004   8.335  0.0084 -0.1720  0.1965
  160SAPE  H15X17989   4.827   4.041   8.341 -0.0148 -0.3463  0.9277
  160SAPE  H15Y17990   4.999   4.084   8.372  2.0943 -2.4102  1.3436
  160SAPE  C31617991   4.964   3.882   8.419 -0.2313 -0.0794  0.2838
  160SAPE  H16X17992   5.070   3.852   8.414  0.4080  2.2717 -1.0977
  160SAPE  H16Y17993   4.899   3.798   8.385  1.2008  0.2118 -3.2780
  160SAPE  C31717994   4.928   3.908   8.570  0.3187  0.0254 -0.0765
  160SAPE  H17X17995   4.822   3.935   8.592  0.4482 -0.3382  1.0543
  160SAPE  H17Y17996   4.983   4.000   8.599 -0.6008  0.2665  0.9782
  160SAPE  C31817997   4.962   3.794   8.660 -0.4076  1.2174  0.5402
  160SAPE  H18X17998   4.962   3.826   8.767 -2.4380  2.4235  0.1863
  160SAPE  H18Y17999   5.067   3.765   8.635 -0.4550  2.7700 -1.5077
  160SAPE  H18Z18000   4.900   3.703   8.646  0.0245  1.0075  0.0057
  161SAPE     N18001   0.234   1.467   6.022  0.0318  0.2184  0.0061
  161SAPE   HN118002   0.232   1.571   6.017  0.7352  0.1783 -1.2162
  161SAPE   HN218003   0.307   1.459   6.095  0.8730 -0.1826 -0.8695
  161SAPE   HN318004   0.265   1.438   5.927 -1.7639  0.6540 -0.7492
  161SAPE   C1218005   0.105   1.396   6.052 -1.3275 -0.4504  0.3877
  161SAPE  H12A18006   0.120   1.291   6.020 -0.4894 -0.9518  2.3433
  161SAPE  H12B18007   0.026   1.442   5.989  0.0452 -0.0773 -1.0857
  161SAPE   C1118008   0.076   1.411   6.208  1.0912  0.6792  0.2477
  161SAPE  H11A18009   0.075   1.519   6.236  0.5636  0.2779  1.8423
  161SAPE  H11B18010   0.157   1.353   6.257  1.8324 -1.0268 -2.9033
  161SAPE     P18011  -0.128   1.378   6.373 -0.1559 -0.2711 -0.1393
  161SAPE   O1318012  -0.124   1.525   6.403  0.8996 -0.2485  0.9672
  161SAPE   O1418013  -0.261   1.321   6.353 -0.1652 -0.7109 -0.0781
  161SAPE   O1218014  -0.052   1.355   6.246  0.2818  0.4412 -0.1182
  161SAPE   O1118015  -0.042   1.298   6.476  0.1467 -0.2032 -0.1695
  161SAPE    C118016  -0.106   1.242   6.594 -0.3188  0.0849  0.2800
  161SAPE    HA18017  -0.190   1.176   6.563  1.7338 -2.6309  0.2366
  161SAPE    HB18018  -0.031   1.170   6.634  0.3679  0.7905  0.2788
  161SAPE    C218019  -0.138   1.328   6.716 -0.2936  0.3997  0.3766
  161SAPE    HS18020  -0.171   1.259   6.797  0.6727  2.1388  2.3187
  161SAPE   O2118021  -0.248   1.416   6.681  0.1936 -0.0893 -0.2575
  161SAPE   C2118022  -0.371   1.377   6.722  0.2670 -0.9887  0.0983
  161SAPE   O2218023  -0.398   1.282   6.790 -0.1236 -0.3552 -0.5079
  161SAPE   C2218024  -0.475   1.468   6.652 -0.1273 -0.1264  0.3443
  161SAPE   H2R18025  -0.433   1.571   6.644 -2.0736  0.6444 -0.1434
  161SAPE   H2S18026  -0.492   1.446   6.544 -1.4459  3.8244 -0.3563
  161SAPE    C318027  -0.022   1.424   6.757 -0.2061  0.6271 -0.5402
  161SAPE    HX18028   0.019   1.489   6.677  0.7665 -0.2203 -0.7411
  161SAPE    HY18029   0.053   1.351   6.793 -2.2186 -1.3566 -0.2461
  161SAPE   O3118030  -0.074   1.504   6.869 -0.1678  0.9817  0.5348
  161SAPE   C3118031   0.031   1.554   6.930 -0.9126  0.0568 -0.1704
  161SAPE   O3218032   0.145   1.549   6.898 -0.6538  0.0309 -0.3437
  161SAPE   C3218033  -0.012   1.639   7.051  0.1946  0.0683  0.1541
  161SAPE   H2X18034  -0.106   1.605   7.098 -1.0432  0.6882 -1.8053
  161SAPE   H2Y18035  -0.025   1.738   7.003  1.9471  0.3754  0.2686
  161SAPE   C2318036  -0.617   1.470   6.723 -0.1955  0.2976 -0.0942
  161SAPE   H3R18037  -0.633   1.368   6.764 -0.6264  0.0285 -0.9159
  161SAPE   H3S18038  -0.707   1.484   6.659  0.1747 -0.1663 -0.7243
  161SAPE   C2418039  -0.619   1.570   6.833 -0.3601  0.3790 -0.1718
  161SAPE   H4R18040  -0.725   1.590   6.857 -0.4203 -0.5608  0.3865
  161SAPE   H4S18041  -0.584   1.667   6.792 -1.7913  1.0222  0.1208
  161SAPE   C2518042  -0.542   1.528   6.952  0.9233 -1.0774 -0.5921
  161SAPE   H5R18043  -0.532   1.420   6.970  2.5795 -0.7274  0.6959
  161SAPE   C2618044  -0.495   1.603   7.049 -0.6484  0.1822 -0.1027
  161SAPE   H6R18045  -0.437   1.564   7.134  0.3328 -0.9077 -1.2531
  161SAPE   C2718046  -0.485   1.753   7.048  0.2100  1.0982  0.1649
  161SAPE   H7R18047  -0.573   1.786   7.106 -0.1983  0.8150 -0.2892
  161SAPE   H7S18048  -0.509   1.786   6.944  1.2929 -0.7444 -0.7029
  161SAPE   C2818049  -0.349   1.811   7.090 -0.4599 -0.0309  0.0123
  161SAPE   H8R18050  -0.262   1.801   7.023 -0.3807 -0.6959  0.2140
  161SAPE   C2918051  -0.325   1.883   7.201  0.0823  0.9362 -0.0262
  161SAPE   H9R18052  -0.224   1.922   7.221 -0.1098 -0.1378  3.2949
  161SAPE  C21018053  -0.417   1.923   7.309  0.2074 -0.5753  0.2456
  161SAPE  H10R18054  -0.518   1.959   7.282 -0.5709 -1.6134  1.7262
  161SAPE  H10S18055  -0.366   2.004   7.367  1.1644  1.9038 -3.8673
  161SAPE  C21118056  -0.431   1.803   7.402 -0.3173 -0.3547  0.0628
  161SAPE  H11R18057  -0.428   1.704   7.353  0.9641  0.0301 -0.6517
  161SAPE  C21218058  -0.441   1.810   7.534  0.1938  0.5327  0.1645
  161SAPE  H12R18059  -0.448   1.714   7.588 -0.1703  0.1917 -0.4913
  161SAPE  C21318060  -0.436   1.933   7.623 -0.2551 -0.4022  0.0284
  161SAPE  H13R18061  -0.451   2.022   7.558  0.0708 -1.4769 -1.5515
  161SAPE  H13S18062  -0.338   1.934   7.675  1.0290  0.7618 -2.3220
  161SAPE  C21418063  -0.560   1.926   7.713 -0.5681  0.6091  0.2084
  161SAPE  H14R18064  -0.652   1.924   7.653  0.1428  0.5945 -0.8924
  161SAPE  C21518065  -0.554   1.931   7.850  0.2402 -0.1882  0.4374
  161SAPE  H15R18066  -0.651   1.925   7.901 -0.7899  2.8238 -1.0347
  161SAPE  C21618067  -0.436   1.923   7.939 -0.2675 -0.4098  0.4297
  161SAPE  H16R18068  -0.413   2.029   7.963 -0.6990 -0.0255 -0.8577
  161SAPE  H16S18069  -0.347   1.886   7.885  0.0793 -0.0147  0.7288
  161SAPE  C21718070  -0.468   1.841   8.073 -0.8916  0.1437 -0.1884
  161SAPE  H17R18071  -0.364   1.823   8.107 -0.6979  1.9044  0.1950
  161SAPE  H17S18072  -0.519   1.742   8.068  1.7610 -1.4235  2.0835
  161SAPE  C21818073  -0.536   1.937   8.167 -0.7527 -0.7853  0.6400
  161SAPE  H18R18074  -0.637   1.970   8.135 -0.2445  2.4040  2.0718
  161SAPE  H18S18075  -0.467   2.024   8.175 -2.3933  0.6063 -0.1063
  161SAPE  C21918076  -0.560   1.893   8.309 -0.9261 -0.3286 -0.0377
  161SAPE  H19R18077  -0.466   1.890   8.368 -0.2844 -0.8093 -1.0566
  161SAPE  H19S18078  -0.591   1.787   8.296 -1.8328 -0.1871  0.8774
  161SAPE  C22018079  -0.661   1.972   8.388 -0.5599 -0.1106  0.1351
  161SAPE  H20R18080  -0.701   1.909   8.470  2.2272 -2.8327 -0.5028
  161SAPE  H20S18081  -0.742   2.008   8.321  0.2153  0.8859 -0.2831
  161SAPE  H20T18082  -0.611   2.065   8.425  1.5383 -1.1505 -0.0259
  161SAPE   C3318083   0.090   1.669   7.159 -0.0817  0.4710  0.1434
  161SAPE   H3X18084   0.173   1.711   7.099 -0.3280  0.1529 -0.4190
  161SAPE   H3Y18085   0.126   1.572   7.201 -0.5636 -1.2872 -3.3566
  161SAPE   C3418086   0.048   1.756   7.274  0.1422 -0.4410  0.3346
  161SAPE   H4X18087   0.008   1.856   7.246 -0.0427 -1.1022 -1.8639
  161SAPE   H4Y18088   0.136   1.779   7.338  0.0466  0.6428  0.0762
  161SAPE   C3518089  -0.040   1.686   7.385  0.5012  0.4287  1.2835
  161SAPE   H5X18090  -0.014   1.581   7.409 -0.8096  0.0794  1.2189
  161SAPE   H5Y18091  -0.146   1.681   7.353  0.3674  1.1051  1.6294
  161SAPE   C3618092  -0.039   1.764   7.515 -0.8398 -0.7141  0.0628
  161SAPE   H6X18093  -0.092   1.859   7.494  0.5394  0.0873  0.1812
  161SAPE   H6Y18094   0.065   1.783   7.546 -0.9753  0.4256 -0.1758
  161SAPE   C3718095  -0.091   1.672   7.623  0.9976 -0.2890  0.3308
  161SAPE   H7X18096  -0.022   1.585   7.624  1.2225 -0.1428 -1.1058
  161SAPE   H7Y18097  -0.198   1.650   7.604  1.3688 -1.8686  0.0071
  161SAPE   C3818098  -0.081   1.730   7.765  0.3762  0.4441 -0.6746
  161SAPE   H8X18099  -0.145   1.816   7.792  0.1375 -1.0260  3.8438
  161SAPE   H8Y18100   0.019   1.763   7.800  1.4667 -1.1086 -2.2233
  161SAPE   C3918101  -0.131   1.616   7.864  0.0502 -0.0042 -0.3887
  161SAPE   H9X18102  -0.083   1.522   7.830 -0.5478 -0.6069  0.3940
  161SAPE   H9Y18103  -0.242   1.609   7.861 -0.0627  0.9235  0.9449
  161SAPE  C31018104  -0.104   1.642   8.009 -0.0581  0.3178 -0.2125
  161SAPE  H10X18105  -0.118   1.750   8.027 -1.0403  0.2436 -0.5391
  161SAPE  H10Y18106  -0.002   1.616   8.045  0.4825  1.6071 -0.7990
  161SAPE  C31118107  -0.200   1.552   8.101  0.2755  0.3152  0.0214
  161SAPE  H11X18108  -0.168   1.447   8.085  0.0004  0.6786 -3.1689
  161SAPE  H11Y18109  -0.303   1.569   8.062  1.2450  2.6137 -1.6612
  161SAPE  C31218110  -0.193   1.588   8.246  0.9775 -0.2402  0.4167
  161SAPE  H12X18111  -0.268   1.529   8.305  2.2150  0.4098  2.6915
  161SAPE  H12Y18112  -0.224   1.695   8.246 -2.1878 -1.0924 -0.3454
  161SAPE  C31318113  -0.049   1.568   8.308  0.5669  0.0622  0.4298
  161SAPE  H13X18114   0.025   1.624   8.246  1.3253 -2.6496 -1.2067
  161SAPE  H13Y18115  -0.017   1.462   8.295  1.7613  0.0931  2.8649
  161SAPE  C31418116  -0.033   1.610   8.457 -0.2558  0.3813  0.1221
  161SAPE  H14X18117  -0.117   1.571   8.518 -0.2688 -1.5999 -1.1209
  161SAPE  H14Y18118  -0.047   1.720   8.448  1.8309  0.6212 -0.5148
  161SAPE  C31518119   0.115   1.579   8.513 -0.3803  0.1797 -0.6192
  161SAPE  H15X18120   0.183   1.641   8.451 -1.0016  0.8079 -0.6867
  161SAPE  H15Y18121   0.146   1.473   8.502  0.2168  0.3967 -1.0558
  161SAPE  C31618122   0.121   1.622   8.661  0.6307 -0.4259  0.2012
  161SAPE  H16X18123   0.081   1.544   8.729 -1.4647  0.5765  0.1706
  161SAPE  H16Y18124   0.041   1.699   8.664  0.2400 -0.9026  2.9346
  161SAPE  C31718125   0.256   1.678   8.718 -0.1195 -0.1442  0.0166
  161SAPE  H17X18126   0.330   1.599   8.695  1.5192  0.8281  1.9213
  161SAPE  H17Y18127   0.228   1.683   8.825  0.1492  2.5830 -0.0023
  161SAPE  C31818128   0.300   1.811   8.666  0.3280 -0.9599  0.4272
  161SAPE  H18X18129   0.231   1.896   8.681  0.6096 -0.4125 -1.2962
  161SAPE  H18Y18130   0.328   1.810   8.559 -1.6625 -0.3938 -0.1112
  161SAPE  H18Z18131   0.389   1.850   8.721 -0.1089 -1.0825  1.2295
  162SAPE     N18132   5.101   4.901   5.952 -0.0948 -0.7510 -0.4871
  162SAPE   HN118133   5.065   4.921   6.047 -1.3052  0.9535 -1.2640
  162SAPE   HN218134   5.027   4.929   5.884 -0.2030  0.1816  0.0106
  162SAPE   HN318135   5.125   4.801   5.935  1.0511 -0.8974  1.9099
  162SAPE   C1218136   5.227   4.980   5.919  0.2744  0.4199 -0.4520
  162SAPE  H12A18137   5.194   5.084   5.896 -0.4495  0.3951  0.4056
  162SAPE  H12B18138   5.288   4.934   5.839  0.9446  0.3864  0.0768
  162SAPE   C1118139   5.320   4.979   6.043 -0.1205  0.2364  0.1795
  162SAPE  H11A18140   5.398   5.050   6.009 -0.3956  0.9425  1.0042
  162SAPE  H11B18141   5.355   4.875   6.062  0.2665  0.3902  0.2929
  162SAPE     P18142   5.321   5.161   6.244 -0.0300  0.1673 -0.3147
  162SAPE   O1318143   5.325   5.273   6.151  0.0984 -0.5152  0.4559
  162SAPE   O1418144   5.244   5.182   6.368  0.0502  0.1504  0.3242
  162SAPE   O1218145   5.261   5.037   6.166  0.2916 -0.4773 -0.5024
  162SAPE   O1118146   5.469   5.118   6.286 -0.3188  0.0057  0.7389
  162SAPE    C118147   5.506   4.980   6.305  0.0444 -0.6070 -0.3098
  162SAPE    HA18148   5.419   4.913   6.323 -2.6721  2.6492 -0.7427
  162SAPE    HB18149   5.570   4.942   6.223 -0.0562 -2.9315  0.6408
  162SAPE    C218150   5.585   4.968   6.439  0.5131 -0.0091  0.7277
  162SAPE    HS18151   5.672   5.037   6.437 -0.0465  0.6887  0.4315
  162SAPE   O2118152   5.633   4.834   6.466 -0.6137 -0.1878  0.2384
  162SAPE   C2118153   5.730   4.787   6.383 -0.1582  0.3600 -0.9038
  162SAPE   O2218154   5.774   4.844   6.285 -0.3702  1.1701 -0.2963
  162SAPE   C2218155   5.783   4.653   6.439 -0.0850 -0.1874  0.4954
  162SAPE   H2R18156   5.809   4.674   6.545  3.0473  1.0904 -0.4658
  162SAPE   H2S18157   5.707   4.572   6.437  0.6460 -0.9262  2.0687
  162SAPE    C318158   5.491   5.011   6.557 -1.0195  0.0435 -0.4066
  162SAPE    HX18159   5.393   4.963   6.537 -1.3900  0.8326 -0.5337
  162SAPE    HY18160   5.469   5.119   6.543  1.8887  0.6398 -0.5950
  162SAPE   O3118161   5.550   4.994   6.690  0.3323  0.1174  0.1344
  162SAPE   C3118162   5.501   4.898   6.763  0.2979  1.0906  0.1331
  162SAPE   O3218163   5.401   4.831   6.731 -0.3010 -0.1251  0.8295
  162SAPE   C3218164   5.588   4.887   6.893 -0.2090  0.0311  0.1029
  162SAPE   H2X18165   5.542   4.967   6.955  0.0698  1.4213 -1.4345
  162SAPE   H2Y18166   5.692   4.917   6.868  0.4219 -0.5924  1.9082
  162SAPE   C2318167   5.912   4.604   6.382  0.2811  0.1579  0.8338
  162SAPE   H3R18168   5.975   4.695   6.370 -0.5598  0.5131 -1.1492
  162SAPE   H3S18169   5.894   4.552   6.285 -0.1274  1.3077  0.2696
  162SAPE   C2418170   5.978   4.513   6.485 -0.0650 -0.1450  0.4226
  162SAPE   H4R18171   6.010   4.565   6.578  1.3735 -1.6642  0.8072
  162SAPE   H4S18172   6.073   4.478   6.439 -0.1296  0.8808 -0.5064
  162SAPE   C2518173   5.893   4.387   6.512  0.0816  1.0671  0.3341
  162SAPE   H5R18174   5.887   4.315   6.429 -0.6488 -0.1829  1.4685
  162SAPE   C2618175   5.827   4.354   6.626 -0.4202  0.5167 -1.0131
  162SAPE   H6R18176   5.772   4.259   6.636  0.8521 -0.1795 -0.4682
  162SAPE   C2718177   5.841   4.436   6.756  0.1983  0.0093 -0.1974
  162SAPE   H7R18178   5.745   4.475   6.796  0.4165 -0.1828  0.5114
  162SAPE   H7S18179   5.911   4.521   6.742  0.9406 -0.1040  2.6367
  162SAPE   C2818180   5.918   4.345   6.853  0.6096  0.1763  0.1596
  162SAPE   H8R18181   5.962   4.251   6.816 -1.9705 -0.2949 -1.8734
  162SAPE   C2918182   5.933   4.364   6.985  0.6621  0.7135 -0.2485
  162SAPE   H9R18183   6.009   4.306   7.038 -1.9005 -1.7696  0.8363
  162SAPE  C21018184   5.878   4.478   7.062  0.6656  0.0471 -0.3351
  162SAPE  H10R18185   5.792   4.453   7.127 -0.3512  0.2286 -1.5783
  162SAPE  H10S18186   5.830   4.561   7.005  0.3232  0.5686  0.7084
  162SAPE  C21118187   5.978   4.563   7.145  0.3153  0.2828  0.0111
  162SAPE  H11R18188   6.022   4.650   7.094 -0.0201 -0.8781 -2.3042
  162SAPE  C21218189   6.016   4.527   7.268 -0.4591  0.0872  0.2708
  162SAPE  H12R18190   6.097   4.578   7.322 -0.8165  0.0455  0.8500
  162SAPE  C21318191   5.959   4.414   7.344 -0.4941 -0.1149  0.2951
  162SAPE  H13R18192   5.948   4.317   7.292 -0.4740  0.3594 -0.6068
  162SAPE  H13S18193   5.859   4.456   7.368 -0.3519 -0.6309  1.8202
  162SAPE  C21418194   6.036   4.376   7.469  0.0223  0.5419  0.7207
  162SAPE  H14R18195   6.105   4.292   7.454 -2.3122 -0.9787 -2.1018
  162SAPE  C21518196   6.007   4.414   7.596 -0.2260 -0.2528  0.3396
  162SAPE  H15R18197   6.085   4.397   7.672  1.2398 -0.5131 -1.1831
  162SAPE  C21618198   5.903   4.516   7.632  0.6747  0.5966 -1.1544
  162SAPE  H16R18199   5.810   4.466   7.666  1.3197 -0.9696 -1.6665
  162SAPE  H16S18200   5.863   4.568   7.542  0.4661  2.2267 -0.1424
  162SAPE  C21718201   5.950   4.615   7.737 -0.0809  0.1953 -0.4546
  162SAPE  H17R18202   5.963   4.564   7.835 -0.3151  0.1620 -0.4391
  162SAPE  H17S18203   5.870   4.692   7.751  1.4245  2.0038 -1.6007
  162SAPE  C21818204   6.074   4.689   7.687 -0.5158 -0.2615  0.0093
  162SAPE  H18R18205   6.059   4.715   7.580 -1.5296 -1.0045 -0.0301
  162SAPE  H18S18206   6.163   4.622   7.692  1.0742  1.6317 -1.9610
  162SAPE  C21918207   6.088   4.817   7.762 -0.1944 -0.0911  0.2195
  162SAPE  H19R18208   5.991   4.867   7.786  0.3016  1.2166 -0.4062
  162SAPE  H19S18209   6.149   4.891   7.705  0.7777  0.8278  2.4250
  162SAPE  C22018210   6.159   4.802   7.896  0.1241  0.2928 -0.3893
  162SAPE  H20R18211   6.150   4.695   7.924  1.0966  0.7316  1.7115
  162SAPE  H20S18212   6.124   4.875   7.971  0.6171  2.1254 -1.8928
  162SAPE  H20T18213   6.269   4.817   7.896  0.0172  1.0888 -0.3479
  162SAPE   C3318214   5.593   4.743   6.963  0.4376 -0.4435 -1.0592
  162SAPE   H3X18215   5.694   4.722   7.004  0.0325 -1.7707 -0.7399
  162SAPE   H3Y18216   5.569   4.654   6.901 -2.0870 -0.3437 -0.2883
  162SAPE   C3418217   5.500   4.725   7.077 -0.4957  0.0360 -0.3692
  162SAPE   H4X18218   5.497   4.617   7.104 -0.6813  0.3028  0.6975
  162SAPE   H4Y18219   5.393   4.744   7.053 -0.2481  0.0439 -1.4960
  162SAPE   C3518220   5.541   4.811   7.198  0.0008 -0.9047 -0.3777
  162SAPE   H5X18221   5.456   4.804   7.269  0.2476 -2.3560 -0.2152
  162SAPE   H5Y18222   5.543   4.917   7.166  0.1746 -1.9799 -4.0873
  162SAPE   C3618223   5.663   4.775   7.272 -0.8409 -0.5320  0.3834
  162SAPE   H6X18224   5.751   4.766   7.205 -0.1609  1.4478  0.9815
  162SAPE   H6Y18225   5.651   4.674   7.318  2.2572 -0.8437  0.5523
  162SAPE   C3718226   5.685   4.872   7.397  0.2059 -0.1998 -0.1997
  162SAPE   H7X18227   5.683   4.978   7.363 -0.3025 -0.3545 -0.6548
  162SAPE   H7Y18228   5.782   4.851   7.448 -0.9956 -0.1378  2.1734
  162SAPE   C3818229   5.576   4.839   7.507  0.3659 -0.6176 -0.2461
  162SAPE   H8X18230   5.581   4.732   7.535 -0.8250 -0.7543 -0.5375
  162SAPE   H8Y18231   5.479   4.860   7.458  1.3867  1.7154 -1.3609
  162SAPE   C3918232   5.590   4.934   7.627  0.4929 -0.2463  0.3885
  162SAPE   H9X18233   5.555   5.034   7.593  0.7211 -0.2740  0.0772
  162SAPE   H9Y18234   5.692   4.942   7.671  0.9254  2.7693 -1.0370
  162SAPE  C31018235   5.496   4.887   7.739 -0.4974 -0.4623  0.1473
  162SAPE  H10X18236   5.404   4.840   7.699  0.6794 -1.1529 -1.8434
  162SAPE  H10Y18237   5.456   4.977   7.791  0.9176  0.2616  0.0067
  162SAPE  C31118238   5.556   4.790   7.845  0.4155  0.0762  0.0774
  162SAPE  H11X18239   5.592   4.698   7.794  0.3412  0.8692 -1.4451
  162SAPE  H11Y18240   5.466   4.749   7.896  0.4969  1.5828  1.4655
  162SAPE  C31218241   5.666   4.844   7.939 -0.1940 -0.0427 -0.0610
  162SAPE  H12X18242   5.627   4.936   7.988  0.4663  1.0407 -1.5373
  162SAPE  H12Y18243   5.750   4.872   7.872  0.2409  1.2376  0.9993
  162SAPE  C31318244   5.728   4.747   8.046  0.7122 -0.2412  0.8357
  162SAPE  H13X18245   5.838   4.762   8.052  0.4779  0.8182  2.7764
  162SAPE  H13Y18246   5.718   4.640   8.018 -3.0229  0.3241 -0.3217
  162SAPE  C31418247   5.661   4.741   8.182 -0.6693  0.1356 -0.3092
  162SAPE  H14X18248   5.704   4.651   8.230 -0.8180  0.1528 -0.1442
  162SAPE  H14Y18249   5.552   4.717   8.177 -0.7253 -0.0459  1.5409
  162SAPE  C31518250   5.679   4.867   8.260 -0.5303  0.0807 -0.3817
  162SAPE  H15X18251   5.629   4.863   8.359  0.6433  3.3492  0.4195
  162SAPE  H15Y18252   5.637   4.950   8.198  4.5065  1.6236 -2.0236
  162SAPE  C31618253   5.827   4.903   8.303 -0.1952 -0.3227 -0.4949
  162SAPE  H16X18254   5.826   4.965   8.396 -1.9161  0.0600 -0.7558
  162SAPE  H16Y18255   5.887   4.961   8.230  1.7530 -3.1963 -1.2311
  162SAPE  C31718256   5.916   4.782   8.354 -0.3446 -0.6866  0.1150
  162SAPE  H17X18257   6.014   4.819   8.392 -1.2902  1.1938  0.7849
  162SAPE  H17Y18258   5.946   4.722   8.265  2.4859  0.1075  0.4647
  162SAPE  C31818259   5.859   4.698   8.466 -0.4180 -0.2359 -1.0774
  162SAPE  H18X18260   5.824   4.765   8.547  1.8961  0.8222 -0.9169
  162SAPE  H18Y18261   5.934   4.627   8.507 -0.6466 -1.5557 -2.8689
  162SAPE  H18Z18262   5.771   4.640   8.429 -0.9455  0.2239 -0.5552
  163SAPE     N18263   5.036   2.514   6.517  0.0190  0.0131  0.2977
  163SAPE   HN118264   5.019   2.601   6.463  0.1706  0.1446  0.4657
  163SAPE   HN218265   5.022   2.554   6.612  0.1099 -1.4867  0.9562
  163SAPE   HN318266   5.137   2.492   6.517 -0.2618 -1.3298  0.5885
  163SAPE   C1218267   4.948   2.407   6.459  0.3744  0.1838 -0.0989
  163SAPE  H12A18268   4.939   2.331   6.540  1.3299  1.3479  1.1162
  163SAPE  H12B18269   5.002   2.358   6.376  1.7424  1.9858 -0.2938
  163SAPE   C1118270   4.815   2.460   6.427  0.0422  0.9573  0.1115
  163SAPE  H11A18271   4.758   2.366   6.412  0.6510  0.8061 -1.3634
  163SAPE  H11B18272   4.806   2.504   6.326 -1.3322 -1.3561 -0.8077
  163SAPE     P18273   4.667   2.652   6.515 -0.0793 -0.1806 -0.1712
  163SAPE   O1318274   4.737   2.734   6.413  0.0761  0.4156 -0.2533
  163SAPE   O1418275   4.528   2.615   6.490  0.9024 -0.4660 -0.1910
  163SAPE   O1218276   4.763   2.525   6.541  0.1698 -0.3368  0.3357
  163SAPE   O1118277   4.685   2.731   6.651 -0.4290  0.5469 -0.0152
  163SAPE    C118278   4.615   2.692   6.773 -0.2229 -0.2188 -0.2306
  163SAPE    HA18279   4.514   2.649   6.759 -0.1002 -0.8200  0.6675
  163SAPE    HB18280   4.667   2.606   6.822 -0.2396 -0.9744 -1.5106
  163SAPE    C218281   4.608   2.799   6.880  0.6743  0.2058 -0.2866
  163SAPE    HS18282   4.563   2.886   6.827  1.5052  1.1468  0.5451
  163SAPE   O2118283   4.739   2.835   6.913  0.1476 -0.8483 -0.0404
  163SAPE   C2118284   4.754   2.951   6.979 -0.8995 -0.5404 -0.0252
  163SAPE   O2218285   4.668   3.035   6.991 -0.1230 -0.6061  0.9193
  163SAPE   C2218286   4.897   2.964   7.017 -0.2337 -0.5202 -0.4756
  163SAPE   H2R18287   4.931   2.862   7.043 -1.2289 -0.3242  1.6312
  163SAPE   H2S18288   4.947   2.995   6.922 -0.1609  1.3631  0.1527
  163SAPE    C318289   4.518   2.763   7.004 -0.1995  0.3538  0.3023
  163SAPE    HX18290   4.416   2.733   6.970  0.1948 -1.0282  0.3093
  163SAPE    HY18291   4.501   2.853   7.067  2.6969  0.2584  1.2798
  163SAPE   O3118292   4.574   2.653   7.079  0.0303  0.4643  0.1549
  163SAPE   C3118293   4.563   2.659   7.216 -0.1824  0.6733  0.4239
  163SAPE   O3218294   4.509   2.741   7.280  0.2957  0.4005 -0.3667
  163SAPE   C3218295   4.624   2.526   7.266 -0.0024  0.1251 -0.2528
  163SAPE   H2X18296   4.716   2.501   7.209  0.5777 -0.5030  0.9329
  163SAPE   H2Y18297   4.546   2.453   7.235 -1.6794  1.3073  1.1193
  163SAPE   C2318298   4.925   3.069   7.116 -0.3445  0.2677 -0.1519
  163SAPE   H3R18299   4.838   3.074   7.185  0.7182 -0.8475  1.3103
  163SAPE   H3S18300   4.953   3.170   7.079  2.3906 -0.8579 -1.2772
  163SAPE   C2418301   5.043   3.022   7.208  0.7191  0.3898  0.4573
  163SAPE   H4R18302   5.131   3.020   7.140 -0.8694 -0.1316 -1.6499
  163SAPE   H4S18303   5.037   2.915   7.240  1.4778 -0.1022 -0.9948
  163SAPE   C2518304   5.045   3.117   7.320 -0.1309 -0.1455  0.0619
  163SAPE   H5R18305   5.002   3.218   7.311 -0.6591 -0.5574 -2.2686
  163SAPE   C2618306   5.100   3.084   7.441  0.2911 -0.3594 -0.4892
  163SAPE   H6R18307   5.100   3.158   7.523 -0.1167  0.6678 -1.3992
  163SAPE   C2718308   5.173   2.951   7.473  0.2332  0.2534 -0.0663
  163SAPE   H7R18309   5.267   2.975   7.528  0.5091  1.0434 -0.8688
  163SAPE   H7S18310   5.228   2.909   7.386  0.8949  0.2774  0.3342
  163SAPE   C2818311   5.074   2.859   7.548  0.2961 -0.2883 -0.2421
  163SAPE   H8R18312   4.982   2.827   7.496  0.6731 -3.8188  1.1328
  163SAPE   C2918313   5.091   2.829   7.679  0.6693  0.4635  0.5254
  163SAPE   H9R18314   5.020   2.768   7.737  1.4021 -1.3244 -0.4127
  163SAPE  C21018315   5.194   2.894   7.766  0.4838  0.5095  0.4611
  163SAPE  H10R18316   5.188   3.003   7.747  1.0211  0.4977  0.2220
  163SAPE  H10S18317   5.292   2.879   7.718  0.1301 -0.2946 -0.0113
  163SAPE  C21118318   5.200   2.867   7.917  0.0636 -0.4884  0.3605
  163SAPE  H11R18319   5.164   2.769   7.952  1.6427 -1.2411 -0.0882
  163SAPE  C21218320   5.256   2.946   8.008 -0.8845 -1.0901  0.3528
  163SAPE  H12R18321   5.242   2.918   8.113  0.0479 -1.6076  0.3406
  163SAPE  C21318322   5.312   3.081   7.982 -0.3584 -0.5238  0.8584
  163SAPE  H13R18323   5.276   3.142   8.069 -0.1560  0.4294  0.2857
  163SAPE  H13S18324   5.262   3.121   7.891  1.3031 -1.6933 -0.5933
  163SAPE  C21418325   5.456   3.083   7.977 -0.2899  0.6180 -0.1985
  163SAPE  H14R18326   5.497   3.081   7.875 -2.5938 -0.1852 -1.1472
  163SAPE  C21518327   5.542   3.108   8.081  0.1447  0.6676  0.3526
  163SAPE  H15R18328   5.648   3.087   8.063 -0.0801 -0.4363  0.3033
  163SAPE  C21618329   5.506   3.124   8.222  0.2484  0.1977  0.5106
  163SAPE  H16R18330   5.396   3.122   8.239  0.5075 -1.7199  2.0755
  163SAPE  H16S18331   5.539   3.222   8.262 -0.2472  1.5612 -2.2534
  163SAPE  C21718332   5.562   3.010   8.308 -0.3144  0.1525  0.2959
  163SAPE  H17R18333   5.671   2.991   8.299  0.3789  2.7115  2.7293
  163SAPE  H17S18334   5.511   2.918   8.272  0.3951 -0.4438  0.8033
  163SAPE  C21818335   5.519   3.010   8.457  0.3098 -0.1729 -0.7696
  163SAPE  H18R18336   5.410   2.991   8.459  0.5833 -2.1409 -2.7791
  163SAPE  H18S18337   5.537   3.112   8.497  0.6925  0.2415 -1.9743
  163SAPE  C21918338   5.594   2.918   8.550  0.0113 -0.0630 -0.3171
  163SAPE  H19R18339   5.704   2.930   8.553  0.0682 -0.7159  0.2607
  163SAPE  H19S18340   5.579   2.818   8.503 -1.6015  0.3968 -0.8227
  163SAPE  C22018341   5.539   2.919   8.695  0.3561  1.4126  0.2142
  163SAPE  H20R18342   5.468   3.000   8.723 -1.2705 -0.2498  0.9739
  163SAPE  H20S18343   5.626   2.911   8.763  0.6135  0.4154 -0.2364
  163SAPE  H20T18344   5.489   2.821   8.708 -1.4257  2.2457 -0.2237
  163SAPE   C3318345   4.654   2.526   7.415 -0.0496 -0.4399  0.3069
  163SAPE   H3X18346   4.730   2.604   7.440 -1.5050  1.9701 -2.5033
  163SAPE   H3Y18347   4.696   2.425   7.435  0.2500 -0.0083  1.9232
  163SAPE   C3418348   4.529   2.522   7.507  0.0641  0.6037  0.3522
  163SAPE   H4X18349   4.468   2.451   7.447 -0.8970  0.9775  0.8659
  163SAPE   H4Y18350   4.489   2.626   7.513 -0.2914  0.3800  2.5030
  163SAPE   C3518351   4.559   2.476   7.650 -0.0135 -0.2746 -0.1992
  163SAPE   H5X18352   4.620   2.556   7.696  0.5556 -0.6888 -0.2281
  163SAPE   H5Y18353   4.618   2.382   7.647  0.6739  0.2067 -3.9046
  163SAPE   C3618354   4.427   2.459   7.733 -0.3889  0.1125 -0.4293
  163SAPE   H6X18355   4.374   2.373   7.685 -1.7089  1.8351 -2.1392
  163SAPE   H6Y18356   4.361   2.546   7.714 -1.4692 -0.6475 -0.1877
  163SAPE   C3718357   4.455   2.449   7.884 -0.9967 -0.0776  0.7087
  163SAPE   H7X18358   4.531   2.528   7.902 -0.2859 -0.0193 -2.2954
  163SAPE   H7Y18359   4.498   2.349   7.909 -2.1711  0.0497  3.3890
  163SAPE   C3818360   4.335   2.480   7.970 -0.7496 -0.7252  1.2068
  163SAPE   H8X18361   4.272   2.389   7.980 -3.3718  0.8790 -0.2834
  163SAPE   H8Y18362   4.263   2.552   7.926  1.8762  1.7791  0.8579
  163SAPE   C3918363   4.384   2.549   8.100  0.4608 -0.4550  0.0239
  163SAPE   H9X18364   4.294   2.584   8.155 -0.0597  1.7038 -2.1424
  163SAPE   H9Y18365   4.444   2.638   8.073  0.5033 -0.6693 -0.5809
  163SAPE  C31018366   4.450   2.446   8.197  0.1824 -0.2977 -0.3215
  163SAPE  H10X18367   4.506   2.367   8.142 -2.1745 -0.8184 -2.0388
  163SAPE  H10Y18368   4.375   2.389   8.256  0.2101 -0.7751 -0.7402
  163SAPE  C31118369   4.555   2.505   8.299  0.7344  0.2206 -0.1075
  163SAPE  H11X18370   4.533   2.607   8.337 -2.3384 -0.7942  1.0436
  163SAPE  H11Y18371   4.654   2.529   8.255  0.4162  0.3949 -0.7423
  163SAPE  C31218372   4.581   2.424   8.429 -0.4402  0.4702  0.2982
  163SAPE  H12X18373   4.599   2.316   8.410 -1.7822  0.4612 -0.9872
  163SAPE  H12Y18374   4.487   2.441   8.485  0.8751 -1.6327  3.2837
  163SAPE  C31318375   4.696   2.479   8.509 -0.6954 -0.0326 -0.6463
  163SAPE  H13X18376   4.708   2.588   8.492 -6.0152  0.9490  1.1283
  163SAPE  H13Y18377   4.796   2.439   8.480  0.5151  1.3290  1.5009
  163SAPE  C31418378   4.686   2.448   8.661 -0.2323 -0.0683 -0.1730
  163SAPE  H14X18379   4.669   2.341   8.686  0.8074  0.0143  0.9348
  163SAPE  H14Y18380   4.588   2.492   8.690  0.2092 -0.2845  1.7544
  163SAPE  C31518381   4.803   2.525   8.729  0.2012 -0.8835  0.2135
  163SAPE  H15X18382   4.783   2.633   8.708 -2.3124 -1.3799 -0.1185
  163SAPE  H15Y18383   4.903   2.500   8.688  0.4584 -2.1912  1.6233
  163SAPE  C31618384   4.800   2.496   8.883  0.0135 -0.1574  0.2559
  163SAPE  H16X18385   4.698   2.511   8.924 -0.5739 -3.2731  0.0407
  163SAPE  H16Y18386   4.868   2.563   8.940 -1.0747  0.8834  0.3467
  163SAPE  C31718387   4.835   2.354   8.923 -0.3364  0.0542  0.6374
  163SAPE  H17X18388   4.932   2.325   8.878 -0.0424  0.9920  0.6440
  163SAPE  H17Y18389   4.755   2.294   8.875 -3.4048  2.9969  1.8408
  163SAPE  C31818390   4.828   2.318   9.074 -0.7916 -0.6014 -0.1043
  163SAPE  H18X18391   4.728   2.292   9.117 -0.5089 -1.8829 -0.2051
  163SAPE  H18Y18392   4.869   2.406   9.128  2.7227 -0.4326 -2.9269
  163SAPE  H18Z18393   4.880   2.221   9.088 -0.2795 -0.3349 -0.1724
  164SAPE     N18394   0.428   5.467   5.843  0.2872 -0.0565  0.3583
  164SAPE   HN118395   0.523   5.469   5.887  0.8990  1.2592 -0.9754
  164SAPE   HN218396   0.350   5.497   5.905 -1.4647 -3.3358 -0.1739
  164SAPE   HN318397   0.415   5.373   5.801 -0.1731  0.3108 -0.3307
  164SAPE   C1218398   0.430   5.572   5.737 -0.5961  0.3929  0.1369
  164SAPE  H12A18399   0.334   5.576   5.681 -0.9427 -0.9032  0.6282
  164SAPE  H12B18400   0.504   5.543   5.658 -2.2954 -1.1633 -0.9296
  164SAPE   C1118401   0.473   5.705   5.805  0.0165  0.9303 -0.0736
  164SAPE  H11A18402   0.477   5.781   5.724 -0.4802 -2.3247 -3.2600
  164SAPE  H11B18403   0.572   5.688   5.853 -1.0757 -2.0354  1.2132
  164SAPE     P18404   0.426   5.869   5.986  0.3327  0.2368 -0.3424
  164SAPE   O1318405   0.492   5.955   5.886  0.6961 -0.5837 -0.1921
  164SAPE   O1418406   0.305   5.918   6.058  0.3968  0.3680  0.4465
  164SAPE   O1218407   0.378   5.740   5.907 -0.5592 -0.3281 -0.2260
  164SAPE   O1118408   0.532   5.811   6.090 -0.2405  0.1377 -0.5046
  164SAPE    C118409   0.482   5.746   6.209 -0.7318  0.2174  0.3115
  164SAPE    HA18410   0.378   5.711   6.192 -0.5528 -0.3109  0.3019
  164SAPE    HB18411   0.542   5.657   6.235  0.2252  0.1988 -1.8421
  164SAPE    C218412   0.488   5.837   6.327  0.0766 -0.2435  0.2279
  164SAPE    HS18413   0.446   5.934   6.293  0.2609 -0.1443  0.2800
  164SAPE   O2118414   0.626   5.853   6.375  0.0407 -0.0817 -0.2573
  164SAPE   C2118415   0.655   5.970   6.434 -0.5803  0.1884  0.1795
  164SAPE   O2218416   0.583   6.070   6.435  0.1094  0.4424  0.3633
  164SAPE   C2218417   0.780   5.949   6.514  0.6781  0.4243 -0.2166
  164SAPE   H2R18418   0.783   5.864   6.585 -1.3264  0.3591 -0.2019
  164SAPE   H2S18419   0.859   5.920   6.440  0.5665  3.6120 -1.6458
  164SAPE    C318420   0.402   5.781   6.441  0.0051 -0.3080 -0.5552
  164SAPE    HX18421   0.421   5.672   6.450  0.2452 -0.3297 -1.3221
  164SAPE    HY18422   0.298   5.780   6.401  0.3492  1.7124 -1.5345
  164SAPE   O3118423   0.417   5.864   6.560  0.2303  0.5426  0.5836
  164SAPE   C3118424   0.463   5.820   6.670  0.3807 -0.0040 -0.2606
  164SAPE   O3218425   0.511   5.711   6.696 -0.7650  0.2230 -0.1879
  164SAPE   C3218426   0.462   5.945   6.773  0.1360  0.5739  0.3743
  164SAPE   H2X18427   0.357   5.979   6.784 -0.2941 -1.1655  1.7752
  164SAPE   H2Y18428   0.526   6.025   6.730 -1.5928  0.9626 -1.5234
  164SAPE   C2318429   0.841   6.077   6.574  0.1522 -0.3825  0.5498
  164SAPE   H3R18430   0.804   6.164   6.515 -1.6238 -1.2376  0.3996
  164SAPE   H3S18431   0.952   6.076   6.566  0.1010 -1.2372 -0.0029
  164SAPE   C2418432   0.816   6.109   6.726 -0.0472 -0.3613  0.9547
  164SAPE   H4R18433   0.709   6.139   6.731  0.1781  0.4221  1.1825
  164SAPE   H4S18434   0.873   6.199   6.757 -0.1286 -0.7709  2.3404
  164SAPE   C2518435   0.866   5.997   6.816  0.5834  1.3074  0.6274
  164SAPE   H5R18436   0.886   5.904   6.761 -1.7770  0.1598  1.6846
  164SAPE   C2618437   0.902   6.010   6.939 -0.6161 -0.5373 -0.5494
  164SAPE   H6R18438   0.949   5.929   6.997  0.1553 -0.1005 -0.5534
  164SAPE   C2718439   0.885   6.143   7.017 -0.1496 -1.0123  0.5731
  164SAPE   H7R18440   0.839   6.129   7.117  1.1196  0.9334  1.4490
  164SAPE   H7S18441   0.809   6.202   6.961 -1.1434 -1.6999  1.1733
  164SAPE   C2818442   1.013   6.225   7.039  0.2442  0.4587  0.6227
  164SAPE   H8R18443   1.066   6.270   6.954 -2.0682  0.5798 -0.7835
  164SAPE   C2918444   1.064   6.251   7.160 -0.2061  0.1401 -0.2355
  164SAPE   H9R18445   1.156   6.310   7.170  0.7220 -1.5544  1.5667
  164SAPE  C21018446   1.030   6.192   7.294 -0.1809 -0.1020  0.0886
  164SAPE  H10R18447   1.074   6.091   7.307 -0.2235 -0.4341 -2.1109
  164SAPE  H10S18448   0.920   6.177   7.291  0.1573 -2.8880  0.3358
  164SAPE  C21118449   1.067   6.278   7.413 -0.0030  0.8174 -0.0140
  164SAPE  H11R18450   1.062   6.387   7.401 -0.3406  0.5578 -2.4846
  164SAPE  C21218451   1.102   6.228   7.532  0.3492  0.3440  0.0665
  164SAPE  H12R18452   1.133   6.304   7.605  0.3632  1.5863 -1.2185
  164SAPE  C21318453   1.107   6.083   7.575 -0.2692  0.7375  0.0126
  164SAPE  H13R18454   1.032   6.031   7.512  0.0730  0.3225 -0.0516
  164SAPE  H13S18455   1.070   6.078   7.679  1.5545 -0.5573  0.6226
  164SAPE  C21418456   1.239   6.012   7.559 -0.0694  0.0711  0.0966
  164SAPE  H14R18457   1.320   6.082   7.535 -0.0184  0.0366  0.1701
  164SAPE  C21518458   1.266   5.884   7.588 -0.1397 -0.1018 -0.5662
  164SAPE  H15R18459   1.372   5.856   7.584  0.4550  1.3392  3.1140
  164SAPE  C21618460   1.162   5.787   7.640  0.5690  0.7415  0.0558
  164SAPE  H16R18461   1.078   5.855   7.665  1.7984  1.9746  0.9320
  164SAPE  H16S18462   1.199   5.748   7.738 -1.1815 -0.1166  0.3993
  164SAPE  C21718463   1.113   5.681   7.547  0.3088  0.4592  0.2698
  164SAPE  H17R18464   1.026   5.632   7.596  0.2191  1.3950  1.0541
  164SAPE  H17S18465   1.194   5.606   7.548  0.4926  0.6387 -0.7693
  164SAPE  C21818466   1.074   5.730   7.408  0.3077 -0.1155  0.2939
  164SAPE  H18R18467   1.161   5.782   7.361  0.1671 -0.7364 -0.6694
  164SAPE  H18S18468   0.998   5.810   7.418 -0.3977 -1.0436  2.5836
  164SAPE  C21918469   1.014   5.618   7.318  0.0315  0.4134 -0.2270
  164SAPE  H19R18470   0.922   5.575   7.363 -1.2342  0.9617 -2.2087
  164SAPE  H19S18471   1.082   5.536   7.288  0.8228  0.8835  0.2654
  164SAPE  C22018472   0.967   5.683   7.188  0.3306 -0.2423  0.1088
  164SAPE  H20R18473   0.890   5.763   7.194 -2.3110 -2.6063 -1.0596
  164SAPE  H20S18474   0.917   5.615   7.115 -2.1874  1.9454 -0.2832
  164SAPE  H20T18475   1.062   5.718   7.141  0.8258  0.6175  1.7378
  164SAPE   C3318476   0.519   5.901   6.920  0.3996 -0.8041  1.1258
  164SAPE   H3X18477   0.613   5.844   6.901  0.0672 -0.9790 -0.0586
  164SAPE   H3Y18478   0.454   5.822   6.963 -0.6512 -0.1972  0.6614
  164SAPE   C3418479   0.542   6.014   7.022  0.1864 -0.2560  0.5498
  164SAPE   H4X18480   0.444   6.065   7.033 -0.2588 -1.2235  1.1607
  164SAPE   H4Y18481   0.620   6.081   6.980 -1.3019 -0.1609 -2.2148
  164SAPE   C3518482   0.586   5.955   7.153 -0.1507 -0.9182 -0.2782
  164SAPE   H5X18483   0.681   5.903   7.132  1.1484  1.4526 -0.5292
  164SAPE   H5Y18484   0.516   5.874   7.183  0.7270 -2.2930 -1.8906
  164SAPE   C3618485   0.597   6.057   7.264 -0.2933  0.1073  0.0403
  164SAPE   H6X18486   0.499   6.099   7.295  0.8296  2.2234  0.8157
  164SAPE   H6Y18487   0.652   6.146   7.227 -0.8645  0.7109  0.6307
  164SAPE   C3718488   0.670   6.003   7.392  0.3307  0.4033  0.0956
  164SAPE   H7X18489   0.773   5.979   7.357 -0.3367  0.5465 -2.0504
  164SAPE   H7Y18490   0.616   5.913   7.428 -0.0380  1.2011  1.5835
  164SAPE   C3818491   0.660   6.097   7.515  0.3326 -0.2519  0.5275
  164SAPE   H8X18492   0.556   6.133   7.530 -0.8338 -2.4585 -1.8915
  164SAPE   H8Y18493   0.732   6.176   7.485 -1.1378  0.7500 -0.4459
  164SAPE   C3918494   0.715   6.030   7.640 -0.1045 -1.1820 -0.5617
  164SAPE   H9X18495   0.794   5.959   7.608  0.4845 -0.4765 -0.7109
  164SAPE   H9Y18496   0.642   5.965   7.692 -3.5818  2.0576 -1.2205
  164SAPE  C31018497   0.782   6.130   7.735  0.0216  0.2698  0.3193
  164SAPE  H10X18498   0.858   6.194   7.684  1.8622 -2.5591 -0.6130
  164SAPE  H10Y18499   0.838   6.078   7.816  2.6647 -0.6925 -2.0168
  164SAPE  C31118500   0.682   6.223   7.803 -0.7238 -0.1701  0.0847
  164SAPE  H11X18501   0.590   6.164   7.819 -2.0719  1.9785  0.4151
  164SAPE  H11Y18502   0.652   6.298   7.726 -2.2242 -0.7726  0.0616
  164SAPE  C31218503   0.721   6.284   7.936  0.0136  0.1959 -0.1206
  164SAPE  H12X18504   0.820   6.333   7.927  1.3977 -2.7629 -2.0215
  164SAPE  H12Y18505   0.731   6.211   8.020 -1.6587 -1.5064 -1.3624
  164SAPE  C31318506   0.617   6.387   7.977 -0.4094  0.0739  0.3612
  164SAPE  H13X18507   0.521   6.332   7.982  1.2264 -2.8146  1.2591
  164SAPE  H13Y18508   0.604   6.457   7.892 -0.4674  0.5571  0.7691
  164SAPE  C31418509   0.637   6.456   8.112  0.1694  0.0972  0.1915
  164SAPE  H14X18510   0.732   6.514   8.106  0.4856 -0.3570  0.7617
  164SAPE  H14Y18511   0.639   6.383   8.195  1.5326  3.8786  3.6777
  164SAPE  C31518512   0.535   6.565   8.143  0.5485  0.1276 -0.3158
  164SAPE  H15X18513   0.437   6.515   8.129  1.6179 -2.0821 -0.1373
  164SAPE  H15Y18514   0.547   6.644   8.065  1.3080  0.5957  0.2748
  164SAPE  C31618515   0.545   6.627   8.287  0.2961  0.1160 -0.3674
  164SAPE  H16X18516   0.652   6.649   8.310  0.1826  1.8193 -1.3509
  164SAPE  H16Y18517   0.504   6.561   8.366 -0.4042 -2.5238 -2.8445
  164SAPE  C31718518   0.471   6.760   8.284  0.0314 -0.0406  0.0774
  164SAPE  H17X18519   0.375   6.753   8.229  1.0119  0.5210 -1.7438
  164SAPE  H17Y18520   0.529   6.832   8.222 -0.1501  0.8395  0.9159
  164SAPE  C31818521   0.443   6.820   8.420 -0.5103  0.7211  0.0996
  164SAPE  H18X18522   0.544   6.816   8.466 -0.9853 -0.3763  1.0732
  164SAPE  H18Y18523   0.377   6.752   8.477  2.3980  0.9342  3.9225
  164SAPE  H18Z18524   0.393   6.920   8.421 -1.4255  0.3000 -1.4733
  165SAPE     N18525   0.681   2.202   5.949  0.3442  0.3189 -0.2248
  165SAPE   HN118526   0.746   2.161   5.879  1.4164  1.7390 -0.0855
  165SAPE   HN218527   0.728   2.224   6.039  0.4372 -2.6614  0.5039
  165SAPE   HN318528   0.614   2.126   5.971 -1.7923  1.9460 -0.8375
  165SAPE   C1218529   0.599   2.325   5.908 -0.3547  1.0307 -0.5382
  165SAPE  H12A18530   0.545   2.297   5.814  0.5254  1.1772 -1.0922
  165SAPE  H12B18531   0.662   2.413   5.885 -0.3871  0.8168 -1.4934
  165SAPE   C1118532   0.494   2.344   6.024 -0.1158 -0.5533  0.4827
  165SAPE  H11A18533   0.470   2.240   6.055 -0.5144 -0.4373  0.5686
  165SAPE  H11B18534   0.401   2.383   5.979 -0.6566 -2.2533  0.1109
  165SAPE     P18535   0.637   2.383   6.244  0.7885  0.3279 -0.1571
  165SAPE   O1318536   0.745   2.304   6.180 -0.0726 -0.4200 -0.1712
  165SAPE   O1418537   0.677   2.492   6.338 -0.1728 -0.0947 -0.0918
  165SAPE   O1218538   0.541   2.430   6.129 -0.1850 -0.5151  0.0200
  165SAPE   O1118539   0.548   2.278   6.319  0.1680  0.0352  0.0565
  165SAPE    C118540   0.445   2.303   6.403  0.4172  0.3495 -1.4797
  165SAPE    HA18541   0.394   2.396   6.369  0.9253  1.3172  0.3364
  165SAPE    HB18542   0.375   2.216   6.406 -0.1655  0.8566  1.2441
  165SAPE    C218543   0.484   2.345   6.547  0.2478 -0.0249  0.2544
  165SAPE    HS18544   0.541   2.440   6.541  1.1814 -0.5815  0.1946
  165SAPE   O2118545   0.570   2.241   6.602 -0.0777 -0.0710  0.1618
  165SAPE   C2118546   0.659   2.282   6.683  0.7472  0.3529 -0.1433
  165SAPE   O2218547   0.678   2.397   6.713 -0.6058  0.5265  0.2361
  165SAPE   C2218548   0.733   2.161   6.732  0.6901 -0.1117  0.2451
  165SAPE   H2R18549   0.668   2.072   6.722 -2.2240  1.8673  1.0931
  165SAPE   H2S18550   0.815   2.141   6.660  1.0352 -0.8381  0.8344
  165SAPE    C318551   0.359   2.374   6.624  0.0326  0.0020 -0.0628
  165SAPE    HX18552   0.302   2.279   6.617 -0.5070  0.2382  1.0365
  165SAPE    HY18553   0.292   2.451   6.582 -1.6064 -1.2190  0.2850
  165SAPE   O3118554   0.390   2.393   6.760 -0.1578 -0.5863 -0.1234
  165SAPE   C3118555   0.390   2.516   6.804  0.1858 -0.4166  0.3449
  165SAPE   O3218556   0.353   2.619   6.749 -0.7921  0.2105  0.7411
  165SAPE   C3218557   0.446   2.512   6.947 -0.2258 -0.0224 -0.1936
  165SAPE   H2X18558   0.546   2.467   6.935 -0.4063 -0.9598  1.5773
  165SAPE   H2Y18559   0.388   2.441   7.011 -0.1309  1.1996  1.2692
  165SAPE   C2318560   0.778   2.172   6.887 -0.1562  0.2001 -0.1411
  165SAPE   H3R18561   0.691   2.158   6.955  1.0598 -2.4221  0.9339
  165SAPE   H3S18562   0.822   2.274   6.896 -0.9086  0.5323 -0.1350
  165SAPE   C2418563   0.886   2.061   6.923  0.8987  0.6217  0.6948
  165SAPE   H4R18564   0.963   2.070   6.843 -3.9308  1.1661 -4.2221
  165SAPE   H4S18565   0.831   1.966   6.901 -0.2428  1.3970  0.1356
  165SAPE   C2518566   0.945   2.072   7.058 -0.3576  0.6457 -0.4931
  165SAPE   H5R18567   1.049   2.108   7.053 -0.0785 -0.0775  0.0125
  165SAPE   C2618568   0.884   2.062   7.178  0.6127  0.2358  0.0627
  165SAPE   H6R18569   0.940   2.070   7.272 -0.5879 -3.9967  1.2359
  165SAPE   C2718570   0.733   2.034   7.188  0.8729 -0.4648  0.1528
  165SAPE   H7R18571   0.726   1.933   7.233 -0.6910 -1.7055 -2.7908
  165SAPE   H7S18572   0.684   2.011   7.091 -2.0264  1.7208  1.0320
  165SAPE   C2818573   0.663   2.144   7.255 -0.3824 -0.4731 -0.0758
  165SAPE   H8R18574   0.631   2.225   7.187 -1.0189 -0.4831  0.2085
  165SAPE   C2918575   0.633   2.146   7.389 -0.2464  0.3591  0.5360
  165SAPE   H9R18576   0.575   2.233   7.423 -2.6560 -0.7157 -0.6478
  165SAPE  C21018577   0.663   2.040   7.492 -0.7214  0.3696 -0.3914
  165SAPE  H10R18578   0.676   1.941   7.444  2.0936  0.1408  0.7541
  165SAPE  H10S18579   0.583   2.027   7.568  0.0749  1.4404  0.6451
  165SAPE  C21118580   0.783   2.085   7.569 -0.1657  0.6160 -0.8488
  165SAPE  H11R18581   0.878   2.092   7.514  0.1300 -2.1007 -0.7181
  165SAPE  C21218582   0.793   2.096   7.704  0.3312  0.6038  0.1153
  165SAPE  H12R18583   0.887   2.133   7.748  1.2462 -1.8380  0.2878
  165SAPE  C21318584   0.689   2.065   7.806 -0.0413 -0.1730  0.3160
  165SAPE  H13R18585   0.736   2.046   7.905  0.1412 -0.3399  0.1984
  165SAPE  H13S18586   0.638   1.969   7.781  0.1705 -0.8217  2.3006
  165SAPE  C21418587   0.582   2.175   7.820 -0.5731  0.8018 -0.3277
  165SAPE  H14R18588   0.542   2.212   7.725 -2.2255 -2.2364 -0.8882
  165SAPE  C21518589   0.567   2.252   7.931  0.1552  0.0246  0.4045
  165SAPE  H15R18590   0.486   2.326   7.929  1.0544  1.0016 -2.9654
  165SAPE  C21618591   0.637   2.249   8.063  0.0559  0.2541  0.3529
  165SAPE  H16R18592   0.596   2.344   8.103 -3.4159 -0.5160 -1.2014
  165SAPE  H16S18593   0.747   2.248   8.042 -0.0899  0.1191 -0.4435
  165SAPE  C21718594   0.574   2.142   8.152  0.2520  0.0807  0.3391
  165SAPE  H17R18595   0.569   2.048   8.091 -0.9071 -0.3716  1.0962
  165SAPE  H17S18596   0.479   2.198   8.169  0.2938  0.2182  0.1228
  165SAPE  C21818597   0.663   2.128   8.281 -0.1512  0.4141  0.0150
  165SAPE  H18R18598   0.682   2.227   8.329  0.7925 -0.7803  2.1535
  165SAPE  H18S18599   0.758   2.077   8.254 -0.3190 -0.1978  0.5610
  165SAPE  C21918600   0.610   2.040   8.390 -0.7126  0.0829  0.7784
  165SAPE  H19R18601   0.686   2.025   8.469 -0.9219  0.6139  1.0801
  165SAPE  H19S18602   0.585   1.939   8.352 -0.5735 -0.1913  1.4254
  165SAPE  C22018603   0.480   2.093   8.455  0.1498 -0.8090 -0.2035
  165SAPE  H20R18604   0.504   2.182   8.516 -1.0063 -0.0474 -0.8256
  165SAPE  H20S18605   0.440   2.016   8.524 -1.0159 -1.2945 -1.3799
  165SAPE  H20T18606   0.401   2.112   8.379 -1.2072 -1.5689  0.9833
  165SAPE   C3318607   0.465   2.646   7.008 -0.1633 -0.0767  0.4120
  165SAPE   H3X18608   0.397   2.730   6.980 -0.5431 -0.6059 -0.2499
  165SAPE   H3Y18609   0.560   2.697   6.978 -0.1909 -1.3498 -1.9277
  165SAPE   C3418610   0.473   2.626   7.165 -0.5410 -0.2549 -0.4586
  165SAPE   H4X18611   0.530   2.715   7.197 -1.8816  0.8061 -0.9898
  165SAPE   H4Y18612   0.525   2.531   7.192 -0.4073 -0.4130 -1.2450
  165SAPE   C3518613   0.336   2.637   7.230 -0.5076 -0.0771  0.8715
  165SAPE   H5X18614   0.257   2.576   7.181 -0.7111  1.0416 -0.2299
  165SAPE   H5Y18615   0.305   2.742   7.214  0.2853 -0.2262 -2.0245
  165SAPE   C3618616   0.343   2.596   7.379 -0.3909 -0.1863 -0.1905
  165SAPE   H6X18617   0.437   2.650   7.402 -0.4749  0.3082 -1.0081
  165SAPE   H6Y18618   0.365   2.487   7.380 -0.2484 -0.1597 -0.4845
  165SAPE   C3718619   0.228   2.636   7.469  0.1536 -0.4397 -0.3557
  165SAPE   H7X18620   0.132   2.606   7.421 -0.1252 -2.2800  1.2977
  165SAPE   H7Y18621   0.231   2.746   7.486 -1.6757 -0.1882 -1.4080
  165SAPE   C3818622   0.236   2.580   7.618  0.0682  0.0306 -1.0456
  165SAPE   H8X18623   0.319   2.610   7.685 -2.1336  1.7884  0.9566
  165SAPE   H8Y18624   0.241   2.469   7.618  2.0333  0.0968  0.5346
  165SAPE   C3918625   0.109   2.614   7.694  0.0992  0.0208  0.5511
  165SAPE   H9X18626   0.021   2.586   7.633  0.9918  0.6160 -1.0424
  165SAPE   H9Y18627   0.107   2.724   7.702 -1.5099  0.0691 -0.4995
  165SAPE  C31018628   0.098   2.542   7.826  0.8366  0.2426  1.1966
  165SAPE  H10X18629   0.112   2.434   7.807 -0.4498  0.4044 -0.7722
  165SAPE  H10Y18630  -0.011   2.540   7.850  0.5513 -0.8990 -0.1327
  165SAPE  C31118631   0.172   2.595   7.951  0.4065 -0.1008  0.4671
  165SAPE  H11X18632   0.137   2.698   7.975  3.5409  1.2591 -0.6181
  165SAPE  H11Y18633   0.281   2.607   7.932  0.0271  0.1059 -1.6979
  165SAPE  C31218634   0.172   2.500   8.074  0.3407  0.0725 -0.3254
  165SAPE  H12X18635   0.253   2.424   8.078  0.2816  0.1001  2.3693
  165SAPE  H12Y18636   0.075   2.447   8.084 -0.3266  1.6552  2.1406
  165SAPE  C31318637   0.207   2.586   8.201  0.8887  0.5594  0.2612
  165SAPE  H13X18638   0.134   2.669   8.214 -1.2907 -1.3779  0.7609
  165SAPE  H13Y18639   0.308   2.632   8.194  1.1368  0.1166  0.9027
  165SAPE  C31418640   0.203   2.510   8.332 -0.1730 -0.7942  0.1480
  165SAPE  H14X18641   0.269   2.421   8.342  2.5104  1.2764  1.6262
  165SAPE  H14Y18642   0.094   2.490   8.341  0.0601 -1.5275  1.5463
  165SAPE  C31518643   0.250   2.604   8.443  0.1482  1.4875  0.7966
  165SAPE  H15X18644   0.206   2.706   8.434 -1.7905  0.8822  3.1692
  165SAPE  H15Y18645   0.361   2.607   8.435  0.1377 -0.7513 -0.8336
  165SAPE  C31618646   0.193   2.546   8.577 -0.2559 -0.3222  0.1752
  165SAPE  H16X18647   0.227   2.618   8.655 -0.7323  1.4688 -1.2347
  165SAPE  H16Y18648   0.239   2.447   8.597 -0.9785 -1.3143 -2.8878
  165SAPE  C31718649   0.041   2.535   8.583 -0.7480  0.0673  0.4628
  165SAPE  H17X18650   0.019   2.509   8.689  1.8377 -1.1418  0.7381
  165SAPE  H17Y18651   0.011   2.447   8.521 -1.2911 -0.0732  0.9174
  165SAPE  C31818652  -0.043   2.653   8.541  0.6606  0.3589 -1.0072
  165SAPE  H18X18653  -0.017   2.681   8.437  0.7360  1.0671 -0.7984
  165SAPE  H18Y18654  -0.015   2.744   8.599  0.5979  0.5008 -1.2008
  165SAPE  H18Z18655  -0.149   2.632   8.566  0.9406  0.7766  0.5613
  166SAPE     N18656   0.292   6.533   5.982 -0.6757 -0.5722  0.1490
  166SAPE   HN118657   0.337   6.589   6.058  1.8977 -3.1153  0.5959
  166SAPE   HN218658   0.326   6.566   5.889  0.7345  2.3055  1.5926
  166SAPE   HN318659   0.188   6.539   5.985 -0.6766 -0.1173 -0.6062
  166SAPE   C1218660   0.325   6.386   6.008 -0.0108  0.3700  0.3290
  166SAPE  H12A18661   0.436   6.385   6.014  0.0245 -0.5891 -0.3028
  166SAPE  H12B18662   0.299   6.337   5.912 -0.4144  0.7621  0.2363
  166SAPE   C1118663   0.255   6.337   6.136  0.0947 -0.0697  0.0167
  166SAPE  H11A18664   0.270   6.410   6.219 -0.9393  0.0034  0.1413
  166SAPE  H11B18665   0.311   6.249   6.175 -1.7025 -0.5932  1.4539
  166SAPE     P18666   0.006   6.401   6.117 -0.1913  0.0369 -0.1932
  166SAPE   O1318667   0.039   6.535   6.056 -0.6151 -0.5759 -0.0480
  166SAPE   O1418668  -0.114   6.330   6.069  0.2078  0.3927  0.8721
  166SAPE   O1218669   0.126   6.299   6.108 -0.7031  0.0317 -0.3313
  166SAPE   O1118670   0.003   6.419   6.272  0.3645 -0.5362 -0.2063
  166SAPE    C118671   0.018   6.308   6.363 -0.6233 -0.7940  0.3802
  166SAPE    HA18672   0.071   6.222   6.318  2.5125  1.2790 -0.0278
  166SAPE    HB18673   0.082   6.339   6.448 -1.2372 -0.8083  0.8517
  166SAPE    C218674  -0.119   6.270   6.424  0.5724  0.7134  0.8395
  166SAPE    HS18675  -0.195   6.298   6.347  0.6926 -0.0190  0.4434
  166SAPE   O2118676  -0.147   6.358   6.536  0.1856  0.1590  0.5134
  166SAPE   C2118677  -0.270   6.358   6.582 -0.6947  0.2490  0.2267
  166SAPE   O2218678  -0.364   6.304   6.531  0.4182  0.3926  0.1137
  166SAPE   C2218679  -0.268   6.433   6.712 -0.1786 -0.6474  0.3010
  166SAPE   H2R18680  -0.197   6.375   6.774  0.2532 -0.2017  0.2295
  166SAPE   H2S18681  -0.217   6.531   6.697  2.1102 -1.6848  1.1226
  166SAPE    C318682  -0.141   6.118   6.458 -0.5032  0.1462  0.3785
  166SAPE    HX18683  -0.128   6.071   6.359 -3.1855 -0.2760  0.1898
  166SAPE    HY18684  -0.245   6.093   6.488 -0.8384  0.4565 -0.5089
  166SAPE   O3118685  -0.038   6.073   6.546 -0.0346  0.2318 -0.2665
  166SAPE   C3118686  -0.027   5.943   6.574 -0.5575  0.9350 -0.0825
  166SAPE   O3218687  -0.094   5.855   6.519 -0.3677  0.1531 -0.6787
  166SAPE   C3218688   0.067   5.915   6.686 -0.5672 -0.8408 -0.4615
  166SAPE   H2X18689   0.057   5.997   6.761  0.2114 -1.3463  0.1990
  166SAPE   H2Y18690   0.168   5.919   6.640 -1.5281  1.0181 -2.4980
  166SAPE   C2318691  -0.408   6.429   6.784 -0.1671 -1.1084  0.0190
  166SAPE   H3R18692  -0.446   6.326   6.803  1.5614 -1.8262 -0.3143
  166SAPE   H3S18693  -0.478   6.471   6.709  0.5860  0.9685  0.4555
  166SAPE   C2418694  -0.418   6.508   6.908 -0.0119 -0.1568 -0.7935
  166SAPE   H4R18695  -0.527   6.518   6.930  0.3234 -0.1090  0.8773
  166SAPE   H4S18696  -0.380   6.611   6.887  0.7577 -0.4954 -1.0664
  166SAPE   C2518697  -0.338   6.447   7.014 -0.0132  0.0604 -0.1071
  166SAPE   H5R18698  -0.283   6.357   6.983  2.3762  1.1152  0.9233
  166SAPE   C2618699  -0.326   6.488   7.138 -0.1226 -0.3706 -0.3120
  166SAPE   H6R18700  -0.260   6.425   7.199  0.2799  0.8420  0.5177
  166SAPE   C2718701  -0.390   6.605   7.208  0.3561  0.4159  0.4025
  166SAPE   H7R18702  -0.487   6.582   7.257 -0.2169  1.0088 -0.4311
  166SAPE   H7S18703  -0.417   6.675   7.126 -0.9164  0.3020  0.7098
  166SAPE   C2818704  -0.294   6.681   7.298  0.1847 -0.5903  0.3968
  166SAPE   H8R18705  -0.262   6.776   7.252 -1.7928  0.9737  2.1534
  166SAPE   C2918706  -0.262   6.657   7.422  0.0474 -0.6013  0.2061
  166SAPE   H9R18707  -0.185   6.726   7.460  0.2667  1.0059 -2.9515
  166SAPE  C21018708  -0.310   6.535   7.504 -0.1369 -0.3749 -0.4400
  166SAPE  H10R18709  -0.347   6.453   7.439 -1.3193 -0.9323  0.9079
  166SAPE  H10S18710  -0.404   6.573   7.551 -0.2528 -1.5072  0.2395
  166SAPE  C21118711  -0.223   6.465   7.601 -0.3887  0.2912 -0.8140
  166SAPE  H11R18712  -0.115   6.471   7.581 -0.3869  1.3993 -0.5006
  166SAPE  C21218713  -0.270   6.390   7.706  0.1430 -0.3568 -0.8259
  166SAPE  H12R18714  -0.198   6.340   7.772 -0.7085 -1.8361 -0.9999
  166SAPE  C21318715  -0.415   6.377   7.750  0.3695  0.6162 -0.0038
  166SAPE  H13R18716  -0.476   6.408   7.662 -1.8379  1.3551  1.7212
  166SAPE  H13S18717  -0.429   6.456   7.827  1.6593 -0.0829  0.9450
  166SAPE  C21418718  -0.452   6.241   7.806  0.2610 -0.8829 -0.4041
  166SAPE  H14R18719  -0.458   6.162   7.729 -1.3903  0.4742 -1.7186
  166SAPE  C21518720  -0.467   6.209   7.932 -0.3324 -0.2388  0.0025
  166SAPE  H15R18721  -0.481   6.101   7.944 -0.2972 -0.0935  1.4908
  166SAPE  C21618722  -0.462   6.285   8.062 -0.8671 -0.1546  0.2170
  166SAPE  H16R18723  -0.557   6.263   8.115 -1.5191 -0.8827 -1.2378
  166SAPE  H16S18724  -0.460   6.392   8.033 -1.6522 -0.0912  0.3719
  166SAPE  C21718725  -0.342   6.245   8.154  0.7535 -0.6239  0.6377
  166SAPE  H17R18726  -0.356   6.306   8.246 -1.7079 -0.4607  0.1977
  166SAPE  H17S18727  -0.248   6.263   8.098 -1.2803  1.0031 -2.3800
  166SAPE  C21818728  -0.352   6.095   8.188  0.3531 -0.7853  0.4896
  166SAPE  H18R18729  -0.341   6.036   8.094  0.3823 -1.5126  0.9439
  166SAPE  H18S18730  -0.454   6.073   8.226 -1.4555  4.5690 -0.8194
  166SAPE  C21918731  -0.241   6.061   8.290 -0.4662  0.1565  0.5756
  166SAPE  H19R18732  -0.267   6.099   8.392 -1.2889  2.2861 -0.3874
  166SAPE  H19S18733  -0.157   6.123   8.252  0.8205 -1.6506  0.4238
  166SAPE  C22018734  -0.196   5.919   8.298  0.2679  0.2367 -0.1500
  166SAPE  H20R18735  -0.156   5.886   8.200 -0.8664  1.9956 -1.2315
  166SAPE  H20S18736  -0.283   5.858   8.329  0.2211  0.4755  0.1984
  166SAPE  H20T18737  -0.120   5.895   8.376 -1.4162  0.4049  1.5845
  166SAPE   C3318738   0.067   5.776   6.750  0.3015 -0.0893 -0.3174
  166SAPE   H3X18739   0.081   5.698   6.673 -3.4294 -1.0187 -0.1641
  166SAPE   H3Y18740  -0.028   5.769   6.807  0.8164 -0.9390  0.4464
  166SAPE   C3418741   0.171   5.747   6.859 -0.1821 -0.5968  0.0750
  166SAPE   H4X18742   0.274   5.748   6.817  0.2172  1.9802  1.0322
  166SAPE   H4Y18743   0.155   5.642   6.894 -0.9109 -0.3731  0.4085
  166SAPE   C3518744   0.155   5.849   6.967 -0.3027  0.1391  0.4169
  166SAPE   H5X18745   0.057   5.900   6.979 -1.0783 -1.1412 -0.4360
  166SAPE   H5Y18746   0.238   5.923   6.962 -0.8167  0.6816 -0.1936
  166SAPE   C3618747   0.161   5.773   7.094 -0.2245  0.2279 -0.4633
  166SAPE   H6X18748   0.255   5.714   7.092  1.6807  3.1527 -2.0741
  166SAPE   H6Y18749   0.078   5.700   7.107  1.2003 -1.2992  0.2006
  166SAPE   C3718750   0.170   5.869   7.215  0.4488  0.6345 -0.6697
  166SAPE   H7X18751   0.086   5.942   7.222  1.5768  2.0459 -1.4041
  166SAPE   H7Y18752   0.262   5.929   7.197  0.5650  0.5420 -0.3874
  166SAPE   C3818753   0.180   5.777   7.339 -0.0673  0.7372  0.2102
  166SAPE   H8X18754   0.239   5.686   7.314 -1.9113 -0.9196  1.7133
  166SAPE   H8Y18755   0.080   5.742   7.373 -0.2084  1.0164  0.0845
  166SAPE   C3918756   0.253   5.831   7.463 -0.0228  0.3428 -0.6524
  166SAPE   H9X18757   0.209   5.931   7.484 -0.8429  0.0743 -1.0411
  166SAPE   H9Y18758   0.361   5.851   7.448 -0.2835  1.4538 -1.1115
  166SAPE  C31018759   0.253   5.739   7.574 -0.4452  0.1895  0.8259
  166SAPE  H10X18760   0.282   5.633   7.556 -0.6698  0.0796  1.1091
  166SAPE  H10Y18761   0.151   5.727   7.618 -1.3912 -2.1271 -1.8100
  166SAPE  C31118762   0.348   5.796   7.684 -0.6672 -0.3397  0.6008
  166SAPE  H11X18763   0.361   5.907   7.683 -0.6647 -0.2820  3.0302
  166SAPE  H11Y18764   0.446   5.744   7.684  1.2468  3.1128 -0.0443
  166SAPE  C31218765   0.294   5.790   7.821  0.0417 -0.2483  0.1355
  166SAPE  H12X18766   0.251   5.692   7.850 -0.1598 -0.6818 -1.5833
  166SAPE  H12Y18767   0.220   5.874   7.819 -0.0216 -0.3229 -0.9033
  166SAPE  C31318768   0.398   5.831   7.930 -0.2547 -0.2037  0.1599
  166SAPE  H13X18769   0.446   5.928   7.905 -1.3822  0.5862  1.0295
  166SAPE  H13Y18770   0.474   5.750   7.923  0.0180  0.1215 -0.7468
  166SAPE  C31418771   0.332   5.846   8.068  0.5771 -0.3061  0.4165
  166SAPE  H14X18772   0.379   5.767   8.130  0.7489 -1.6546 -1.3941
  166SAPE  H14Y18773   0.222   5.832   8.067  0.6374 -0.9358  1.9894
  166SAPE  C31518774   0.357   5.990   8.115 -0.1804 -0.0523  0.3294
  166SAPE  H15X18775   0.284   6.025   8.190 -1.3686 -1.7122 -0.0432
  166SAPE  H15Y18776   0.336   6.053   8.026 -2.9251  0.8848  1.5994
  166SAPE  C31618777   0.500   6.007   8.169  0.4919  0.3567  0.1282
  166SAPE  H16X18778   0.518   6.116   8.186  0.0749  0.5048 -0.3756
  166SAPE  H16Y18779   0.578   5.989   8.092  1.6171  1.3377  1.0107
  166SAPE  C31718780   0.542   5.940   8.308 -0.8568 -0.5501 -0.0386
  166SAPE  H17X18781   0.553   5.830   8.300  0.7044 -0.4327  0.1961
  166SAPE  H17Y18782   0.452   5.945   8.372  0.4269  1.5818  1.6747
  166SAPE  C31818783   0.660   5.997   8.381 -0.0067 -0.8958  0.2795
  166SAPE  H18X18784   0.675   5.944   8.478 -1.4002  0.3394  1.1980
  166SAPE  H18Y18785   0.631   6.100   8.410 -0.5234 -0.7722 -0.6321
  166SAPE  H18Z18786   0.748   5.990   8.315  0.2066 -0.6522  0.5389
  167SAPE     N18787   0.632   4.999   6.028  0.2061 -0.2297 -0.3206
  167SAPE   HN118788   0.633   4.935   6.110 -2.9534  1.7182  1.3184
  167SAPE   HN218789   0.555   4.967   5.966  1.4938  0.0874 -2.1120
  167SAPE   HN318790   0.722   4.986   5.978  0.2331  1.7425 -0.8330
  167SAPE   C1218791   0.605   5.140   6.057  0.2351 -0.0463  0.1396
  167SAPE  H12A18792   0.503   5.147   6.101 -0.3290 -1.1606 -0.9509
  167SAPE  H12B18793   0.604   5.207   5.968 -1.2459  0.2051  0.3275
  167SAPE   C1118794   0.722   5.185   6.149  0.1816 -0.3251  0.7024
  167SAPE  H11A18795   0.693   5.155   6.252 -3.6950  1.0664  0.0945
  167SAPE  H11B18796   0.732   5.296   6.147  2.5339 -0.5133 -1.6599
  167SAPE     P18797   0.992   5.171   6.159  0.2047  0.4185  0.1453
  167SAPE   O1318798   1.100   5.135   6.062  0.6745 -0.5159 -0.0152
  167SAPE   O1418799   0.990   5.314   6.195 -0.2157  0.5451 -0.3592
  167SAPE   O1218800   0.851   5.122   6.117  0.4153 -0.4117 -0.4294
  167SAPE   O1118801   1.021   5.092   6.296 -0.4898 -0.1906  0.5946
  167SAPE    C118802   0.964   4.973   6.337  0.0452 -0.0038  0.0573
  167SAPE    HA18803   0.857   4.996   6.352 -1.0688 -3.6626 -1.6790
  167SAPE    HB18804   0.973   4.895   6.258  2.9691  0.0237  0.3011
  167SAPE    C218805   1.009   4.912   6.471 -0.2168  0.3746  0.5805
  167SAPE    HS18806   0.979   4.806   6.481  2.9492 -0.6962 -0.8813
  167SAPE   O2118807   0.957   4.989   6.582  0.4187 -0.7167  0.6472
  167SAPE   C2118808   0.828   4.972   6.605  0.7013  0.1843 -0.2237
  167SAPE   O2218809   0.750   4.901   6.544  0.2668 -0.1318  0.6552
  167SAPE   C2218810   0.798   5.024   6.746  0.0794  0.7070 -0.7444
  167SAPE   H2R18811   0.824   5.130   6.766 -0.9815  0.9054 -0.3466
  167SAPE   H2S18812   0.688   5.019   6.763  0.2014 -0.1946 -0.1566
  167SAPE    C318813   1.163   4.902   6.470  0.0734 -0.2846 -0.8939
  167SAPE    HX18814   1.196   5.008   6.460  1.0951 -0.4678  0.4409
  167SAPE    HY18815   1.189   4.834   6.386  1.1742 -0.4875 -0.3996
  167SAPE   O3118816   1.218   4.854   6.594 -0.0538  0.1906 -0.6482
  167SAPE   C3118817   1.346   4.874   6.603 -0.3913  0.2032 -0.0925
  167SAPE   O3218818   1.418   4.924   6.520  0.8101 -0.2729  0.3231
  167SAPE   C3218819   1.393   4.836   6.742  0.1850 -0.4875 -0.3723
  167SAPE   H2X18820   1.503   4.820   6.746  0.0661 -1.0066  1.2893
  167SAPE   H2Y18821   1.336   4.742   6.757 -0.1896  0.1214  2.1537
  167SAPE   C2318822   0.868   4.940   6.859  0.3237  0.6705 -1.0667
  167SAPE   H3R18823   0.972   4.924   6.824  0.1297  0.2040 -1.4328
  167SAPE   H3S18824   0.822   4.840   6.850  0.2695  0.5753  0.2086
  167SAPE   C2418825   0.856   5.003   7.001  0.1233 -0.9131  0.0683
  167SAPE   H4R18826   0.885   4.932   7.081 -2.1680  0.0677  1.8468
  167SAPE   H4S18827   0.746   5.018   7.002  0.0580 -1.3008 -0.8850
  167SAPE   C2518828   0.939   5.128   7.012 -0.4437  0.0210  0.3104
  167SAPE   H5R18829   0.961   5.178   6.916 -0.2858 -2.7762 -1.1565
  167SAPE   C2618830   0.974   5.182   7.126  0.2751  0.3114  0.0273
  167SAPE   H6R18831   1.032   5.275   7.122  0.1915  0.3980  0.8312
  167SAPE   C2718832   0.940   5.133   7.257 -0.1899 -0.1150 -0.0448
  167SAPE   H7R18833   1.037   5.103   7.303  0.1614  0.2300 -0.5512
  167SAPE   H7S18834   0.868   5.049   7.257 -1.9723  1.3471  0.9432
  167SAPE   C2818835   0.863   5.241   7.332 -0.2907  0.4482  0.0553
  167SAPE   H8R18836   0.779   5.282   7.273 -1.5100 -0.4441  1.1523
  167SAPE   C2918837   0.884   5.288   7.460 -0.4767 -0.6849  0.1408
  167SAPE   H9R18838   0.823   5.371   7.497  0.3574  1.0429 -2.2844
  167SAPE  C21018839   0.992   5.239   7.554  0.0603  0.7482  0.1833
  167SAPE  H10R18840   1.089   5.242   7.500 -0.4228  1.0454 -0.6788
  167SAPE  H10S18841   0.966   5.133   7.573 -1.1581  0.9413 -0.3658
  167SAPE  C21118842   0.994   5.329   7.673 -0.0183 -0.3614 -0.8021
  167SAPE  H11R18843   0.958   5.433   7.670 -0.4562 -0.4890 -0.1665
  167SAPE  C21218844   1.007   5.288   7.799  0.0391  1.1167  0.2059
  167SAPE  H12R18845   1.026   5.364   7.876 -1.7342  2.8814 -1.0445
  167SAPE  C21318846   1.029   5.136   7.835  0.3565  0.2448 -0.5091
  167SAPE  H13R18847   1.117   5.107   7.774  0.5614  1.2075 -0.6809
  167SAPE  H13S18848   0.957   5.067   7.786  2.3666 -1.0943 -1.6392
  167SAPE  C21418849   1.017   5.109   7.985 -0.1687  1.0690 -0.3158
  167SAPE  H14R18850   0.929   5.154   8.033  1.0679  1.8251  1.2446
  167SAPE  C21518851   1.084   5.017   8.062 -0.0295  0.3904  0.6114
  167SAPE  H15R18852   1.035   5.007   8.159 -2.4789 -1.0801 -0.7344
  167SAPE  C21618853   1.195   4.917   8.026 -1.1452 -0.5082  0.5711
  167SAPE  H16R18854   1.238   4.954   7.930 -2.0404 -0.5764  0.1346
  167SAPE  H16S18855   1.164   4.812   8.007  0.2039 -0.9996  1.0678
  167SAPE  C21718856   1.313   4.920   8.125  0.2958 -0.1654  0.4673
  167SAPE  H17R18857   1.289   4.862   8.217  0.2721 -0.0570  0.5300
  167SAPE  H17S18858   1.332   5.023   8.161  2.0903 -0.0521 -0.7183
  167SAPE  C21818859   1.444   4.884   8.054 -0.1053  0.1558  1.0237
  167SAPE  H18R18860   1.527   4.883   8.128 -0.4261  1.8766  1.4176
  167SAPE  H18S18861   1.463   4.967   7.983  1.2418  0.8718  2.2115
  167SAPE  C21918862   1.425   4.758   7.970 -0.0304  0.0408  0.0373
  167SAPE  H19R18863   1.388   4.777   7.867 -0.1719  0.9590  0.2556
  167SAPE  H19S18864   1.376   4.672   8.021  0.8121 -0.6765 -0.3526
  167SAPE  C22018865   1.559   4.705   7.922  0.2588 -0.8132  0.2542
  167SAPE  H20R18866   1.545   4.614   7.860  2.5524 -0.7646 -0.3668
  167SAPE  H20S18867   1.631   4.681   8.003  0.4379  3.6160  1.5348
  167SAPE  H20T18868   1.614   4.781   7.863 -3.6924  1.4744 -0.6622
  167SAPE   C3318869   1.352   4.927   6.860  0.0722 -0.7526 -1.2933
  167SAPE   H3X18870   1.256   4.980   6.843  1.0042  1.5362  0.2680
  167SAPE   H3Y18871   1.429   5.008   6.858 -0.2121 -0.4982 -2.1934
  167SAPE   C3418872   1.363   4.858   7.001  0.2748  0.0110 -0.2683
  167SAPE   H4X18873   1.461   4.809   7.015  0.3151  0.4438  1.0121
  167SAPE   H4Y18874   1.293   4.771   6.997 -1.4275  1.2914  0.9032
  167SAPE   C3518875   1.333   4.957   7.116 -0.2479 -0.2132 -0.3436
  167SAPE   H5X18876   1.226   4.983   7.105 -1.1106 -0.3199  6.1453
  167SAPE   H5Y18877   1.399   5.046   7.110 -1.2443  0.7973  2.7546
  167SAPE   C3618878   1.374   4.888   7.246 -0.5130  0.0075 -0.6266
  167SAPE   H6X18879   1.482   4.862   7.241 -0.6114 -0.2393 -1.8149
  167SAPE   H6Y18880   1.319   4.792   7.261 -0.1502 -0.4550 -2.1254
  167SAPE   C3718881   1.347   4.982   7.360  0.0465 -0.0664 -0.6262
  167SAPE   H7X18882   1.236   4.984   7.362 -0.0378 -2.0979 -1.5495
  167SAPE   H7Y18883   1.384   5.087   7.353  0.5608 -0.0461  1.8311
  167SAPE   C3818884   1.399   4.927   7.484  0.0033  0.1542 -0.3592
  167SAPE   H8X18885   1.508   4.944   7.484 -0.1976  1.4663 -1.2000
  167SAPE   H8Y18886   1.364   4.821   7.490 -1.7100  0.7496  0.7881
  167SAPE   C3918887   1.355   4.998   7.613  0.3952  0.0758 -0.3949
  167SAPE   H9X18888   1.405   4.952   7.701 -1.6515 -0.9513  0.2687
  167SAPE   H9Y18889   1.244   4.985   7.616  0.4822 -0.3645  1.9652
  167SAPE  C31018890   1.409   5.140   7.631  0.3162  0.9621 -0.9856
  167SAPE  H10X18891   1.343   5.207   7.572  0.0681  0.8348 -0.8552
  167SAPE  H10Y18892   1.512   5.144   7.590  0.8341  0.3280  0.2261
  167SAPE  C31118893   1.422   5.197   7.773  0.3419  0.0179 -0.0618
  167SAPE  H11X18894   1.480   5.124   7.834 -0.1650 -0.6731 -0.4046
  167SAPE  H11Y18895   1.321   5.189   7.818  0.3434  0.2756 -0.0096
  167SAPE  C31218896   1.487   5.330   7.803  0.6868 -0.0750  0.0469
  167SAPE  H12X18897   1.427   5.402   7.743 -2.1469 -2.4926 -0.0689
  167SAPE  H12Y18898   1.591   5.327   7.762  0.3172 -1.2839 -0.8287
  167SAPE  C31318899   1.492   5.371   7.948  0.2790  0.3755  0.2683
  167SAPE  H13X18900   1.545   5.468   7.953 -0.3930  0.7415  0.4542
  167SAPE  H13Y18901   1.551   5.289   7.994 -1.1748 -1.6566 -1.3886
  167SAPE  C31418902   1.358   5.381   8.026 -0.1327  0.4945  0.0067
  167SAPE  H14X18903   1.306   5.284   8.007  1.8623 -0.8235  1.1287
  167SAPE  H14Y18904   1.304   5.472   7.992  1.7486  2.2520  1.6618
  167SAPE  C31518905   1.371   5.385   8.175 -0.4274  0.2782 -0.1545
  167SAPE  H15X18906   1.450   5.457   8.208 -1.0679  1.7077 -1.6878
  167SAPE  H15Y18907   1.402   5.286   8.215  2.8849  1.2483 -0.0896
  167SAPE  C31618908   1.240   5.414   8.251 -0.1842  0.4941  0.5756
  167SAPE  H16X18909   1.161   5.347   8.211 -0.3943  0.1309  1.5752
  167SAPE  H16Y18910   1.200   5.517   8.242  2.4943  1.5408  0.0241
  167SAPE  C31718911   1.267   5.411   8.402  0.3003  0.6208  0.0353
  167SAPE  H17X18912   1.325   5.498   8.438 -0.6610  0.9035  0.9320
  167SAPE  H17Y18913   1.308   5.314   8.436  1.1348  0.6417 -0.9114
  167SAPE  C31818914   1.137   5.416   8.482 -0.4704  0.4081  0.6464
  167SAPE  H18X18915   1.079   5.322   8.466 -1.1905  0.4267  2.9901
  167SAPE  H18Y18916   1.082   5.506   8.450 -0.1240  0.2216 -0.5240
  167SAPE  H18Z18917   1.164   5.413   8.589 -1.1382  0.3864  0.8164
  168SAPE     N18918   3.153   0.390   6.245 -0.3419  0.1071  0.3440
  168SAPE   HN118919   3.099   0.343   6.320 -0.2635  0.9068  0.9021
  168SAPE   HN218920   3.100   0.381   6.155  0.5564 -0.3673 -0.1451
  168SAPE   HN318921   3.245   0.341   6.246 -0.0583  0.6363  0.4423
  168SAPE   C1218922   3.166   0.529   6.295 -0.1956  0.4515 -0.6208
  168SAPE  H12A18923   3.169   0.600   6.210  0.2059  1.4232  0.1967
  168SAPE  H12B18924   3.268   0.541   6.337 -1.2740  0.1022  2.1961
  168SAPE   C1118925   3.063   0.539   6.411 -1.1184  0.4847 -1.1294
  168SAPE  H11A18926   3.071   0.643   6.447  2.2604  0.3978 -1.4253
  168SAPE  H11B18927   3.092   0.487   6.505 -2.3401  2.0242  0.1270
  168SAPE     P18928   2.833   0.598   6.300  0.2275  0.1038  0.2433
  168SAPE   O1318929   2.906   0.668   6.194  0.1864 -0.7063 -0.4973
  168SAPE   O1418930   2.722   0.513   6.249  0.1215 -0.0441  0.0321
  168SAPE   O1218931   2.930   0.506   6.374  0.4333 -0.1683 -0.7478
  168SAPE   O1118932   2.772   0.709   6.401  0.0871 -0.2574 -0.4744
  168SAPE    C118933   2.683   0.653   6.502 -0.6438 -0.3605 -0.4221
  168SAPE    HA18934   2.640   0.742   6.553 -1.5016 -0.4202 -1.0227
  168SAPE    HB18935   2.599   0.600   6.453 -0.6145 -1.1995  0.4217
  168SAPE    C218936   2.749   0.560   6.610 -0.4518  0.1237  0.5534
  168SAPE    HS18937   2.860   0.561   6.597 -0.5573  0.9540 -0.2778
  168SAPE   O2118938   2.700   0.431   6.567 -0.2966 -0.2627 -0.7054
  168SAPE   C2118939   2.773   0.324   6.598 -0.0978  0.6913 -0.0758
  168SAPE   O2218940   2.881   0.335   6.654  0.6080  0.1485  0.3360
  168SAPE   C2218941   2.697   0.205   6.546 -0.8066 -0.6828 -0.4496
  168SAPE   H2R18942   2.609   0.184   6.610 -0.3339  0.8408  0.7105
  168SAPE   H2S18943   2.685   0.231   6.438 -1.0846  1.4108  0.0696
  168SAPE    C318944   2.705   0.595   6.754  0.1448 -0.0172 -0.4683
  168SAPE    HX18945   2.598   0.619   6.740 -0.7801 -3.4968  0.1773
  168SAPE    HY18946   2.752   0.687   6.793 -2.9205  1.2662  0.3614
  168SAPE   O3118947   2.734   0.493   6.853  0.0131  0.0051 -0.0526
  168SAPE   C3118948   2.852   0.502   6.917 -0.7887  0.5193 -0.0200
  168SAPE   O3218949   2.940   0.582   6.899 -0.0811 -0.1136  0.1209
  168SAPE   C3218950   2.856   0.386   7.022  0.0542 -0.7905 -0.6437
  168SAPE   H2X18951   2.948   0.327   7.000  0.9163  0.5766 -0.7165
  168SAPE   H2Y18952   2.766   0.323   7.004 -0.3241 -0.1649 -0.9280
  168SAPE   C2318953   2.780   0.076   6.547  0.1930  0.6841 -0.7529
  168SAPE   H3R18954   2.881   0.106   6.511  0.5329  0.4147 -0.0322
  168SAPE   H3S18955   2.750   0.003   6.468 -3.0454  1.6901 -0.5505
  168SAPE   C2418956   2.789   0.011   6.689  0.2544  0.6327 -0.3991
  168SAPE   H4R18957   2.836   0.085   6.758 -0.7809  0.4241  0.5316
  168SAPE   H4S18958   2.873  -0.060   6.675  0.3872  0.8953 -0.9490
  168SAPE   C2518959   2.659  -0.046   6.735  0.5101  0.4923 -0.5083
  168SAPE   H5R18960   2.626  -0.140   6.689 -2.8112 -0.3394  3.2526
  168SAPE   C2618961   2.584   0.007   6.830  0.2685 -0.2438  0.3477
  168SAPE   H6R18962   2.490  -0.045   6.851  0.1954  0.8209  2.7838
  168SAPE   C2718963   2.603   0.138   6.909  0.0172  0.2404  0.0050
  168SAPE   H7R18964   2.520   0.202   6.872 -1.1531 -0.8853  0.6237
  168SAPE   H7S18965   2.701   0.186   6.888 -1.5610  3.2552 -0.6884
  168SAPE   C2818966   2.590   0.127   7.058 -0.1547  1.3233  0.4344
  168SAPE   H8R18967   2.689   0.120   7.106 -0.1896 -1.1837  0.1828
  168SAPE   C2918968   2.482   0.123   7.140  0.6347  0.3701 -0.3561
  168SAPE   H9R18969   2.501   0.114   7.248  3.4019 -1.8549 -0.9754
  168SAPE  C21018970   2.336   0.145   7.097  0.4943 -0.0141  0.3146
  168SAPE  H10R18971   2.320   0.234   7.033  0.3227 -0.1303  0.1953
  168SAPE  H10S18972   2.275   0.168   7.186 -2.1812 -1.7005 -1.0114
  168SAPE  C21118973   2.270   0.026   7.030  0.5679  0.0553  0.1944
  168SAPE  H11R18974   2.294   0.027   6.923 -0.7387  0.5864 -0.1057
  168SAPE  C21218975   2.187  -0.063   7.081  0.1402  0.6769 -0.6995
  168SAPE  H12R18976   2.141  -0.140   7.017 -1.7967  0.1146  1.3214
  168SAPE  C21318977   2.135  -0.071   7.217 -0.3588 -0.0617 -0.5851
  168SAPE  H13R18978   2.025  -0.085   7.220 -0.4681  0.8543 -0.0519
  168SAPE  H13S18979   2.146   0.024   7.273  0.2907 -0.7228  0.4283
  168SAPE  C21418980   2.189  -0.181   7.303 -0.6472  0.0403 -0.0911
  168SAPE  H14R18981   2.285  -0.224   7.274 -0.0711  0.2368  1.4912
  168SAPE  C21518982   2.136  -0.233   7.416 -0.2600 -0.1136  0.0559
  168SAPE  H15R18983   2.190  -0.313   7.468  0.4512  1.5152  1.8589
  168SAPE  C21618984   2.006  -0.188   7.468  0.0219  0.3603  0.1781
  168SAPE  H16R18985   1.936  -0.187   7.381  0.8528  0.8941 -0.4926
  168SAPE  H16S18986   2.013  -0.084   7.506 -1.1601  0.1887  0.9082
  168SAPE  C21718987   1.959  -0.269   7.588  0.0658 -0.4464 -0.8099
  168SAPE  H17R18988   1.947  -0.372   7.548 -0.7575  0.1832 -2.2550
  168SAPE  H17S18989   1.856  -0.236   7.612  0.5991  0.9047 -0.2959
  168SAPE  C21818990   2.048  -0.256   7.715 -0.1092 -0.0713  0.0726
  168SAPE  H18R18991   2.065  -0.152   7.750 -0.4201  0.2774 -0.8028
  168SAPE  H18S18992   2.141  -0.307   7.682  3.1062  3.5389  3.0955
  168SAPE  C21918993   1.977  -0.329   7.828  0.6205  0.1346  0.2564
  168SAPE  H19R18994   1.941  -0.429   7.794  0.1743  0.6268 -0.7385
  168SAPE  H19S18995   1.891  -0.268   7.865  0.5732 -0.0368  0.4333
  168SAPE  C22018996   2.062  -0.331   7.949 -0.1826 -0.9781  0.3413
  168SAPE  H20R18997   2.038  -0.416   8.017 -0.2334 -0.2015  1.2930
  168SAPE  H20S18998   2.047  -0.237   8.005  0.0521 -0.8975  0.2699
  168SAPE  H20T18999   2.168  -0.342   7.919  0.3873 -2.0675  2.6687
  168SAPE   C3319000   2.863   0.433   7.168  0.0903  0.1725  0.3869
  168SAPE   H3X19001   2.780   0.502   7.194  0.3679  0.3210  0.9013
  168SAPE   H3Y19002   2.952   0.497   7.187  0.1132  0.2266  0.0882
  168SAPE   C3419003   2.836   0.309   7.263  0.1446 -0.2964  0.6200
  168SAPE   H4X19004   2.909   0.232   7.233  0.5004  0.3722 -0.2772
  168SAPE   H4Y19005   2.734   0.278   7.231 -0.5756 -0.4778  3.0466
  168SAPE   C3519006   2.841   0.353   7.410  0.0159 -0.2302 -0.5991
  168SAPE   H5X19007   2.761   0.430   7.421  1.1360  0.7388  0.8977
  168SAPE   H5Y19008   2.940   0.401   7.427 -0.2756  0.1257  0.1270
  168SAPE   C3619009   2.814   0.243   7.506 -0.5457 -1.3424  0.3453
  168SAPE   H6X19010   2.902   0.175   7.504  0.6504  0.0963  2.2206
  168SAPE   H6Y19011   2.721   0.188   7.482 -0.9537 -0.2433 -0.6259
  168SAPE   C3719012   2.818   0.298   7.651  0.3151  0.3198 -0.7463
  168SAPE   H7X19013   2.745   0.381   7.653  1.8416  1.7824 -3.4011
  168SAPE   H7Y19014   2.915   0.345   7.677  0.2577  0.5736 -0.9907
  168SAPE   C3819015   2.780   0.198   7.764 -0.0647  0.3210 -0.4417
  168SAPE   H8X19016   2.878   0.176   7.811  0.5017  2.3479 -0.6045
  168SAPE   H8Y19017   2.738   0.106   7.719  0.2528  0.5812 -1.2700
  168SAPE   C3919018   2.694   0.269   7.866 -0.0609 -0.4135 -0.5148
  168SAPE   H9X19019   2.595   0.292   7.821  0.3964  1.8648 -0.4314
  168SAPE   H9Y19020   2.748   0.364   7.885 -0.7151  0.3960 -2.5899
  168SAPE  C31019021   2.678   0.194   7.995 -0.1705 -0.4462 -0.1571
  168SAPE  H10X19022   2.659   0.086   7.978  0.5103 -0.8329  1.4465
  168SAPE  H10Y19023   2.592   0.232   8.054 -1.2878 -0.0782 -1.9870
  168SAPE  C31119024   2.797   0.197   8.086 -0.3498  0.4880  0.2118
  168SAPE  H11X19025   2.821   0.298   8.125  1.8206  0.9908 -2.3524
  168SAPE  H11Y19026   2.888   0.153   8.040 -0.7506  0.1130 -0.2387
  168SAPE  C31219027   2.771   0.107   8.209  0.4160  0.4255 -0.8037
  168SAPE  H12X19028   2.743   0.003   8.181  0.1464  0.5921 -1.1669
  168SAPE  H12Y19029   2.683   0.155   8.257 -2.3392 -3.0080 -2.1410
  168SAPE  C31319030   2.879   0.105   8.315  0.5846  0.1935 -0.1535
  168SAPE  H13X19031   2.974   0.078   8.264 -0.0495  2.1780 -2.4833
  168SAPE  H13Y19032   2.845   0.021   8.379 -0.0361  0.1915 -0.4798
  168SAPE  C31419033   2.878   0.232   8.397 -0.3107 -0.3997 -0.3019
  168SAPE  H14X19034   2.773   0.269   8.400 -0.0789  0.1712  1.2612
  168SAPE  H14Y19035   2.935   0.313   8.346  0.4594  0.0971  1.3011
  168SAPE  C31519036   2.934   0.215   8.534  0.1178  0.3178 -0.0109
  168SAPE  H15X19037   3.034   0.167   8.527  1.1185  2.5429 -1.9391
  168SAPE  H15Y19038   2.866   0.153   8.595  0.2828 -0.4572 -0.5989
  168SAPE  C31619039   2.952   0.337   8.622  0.3016 -0.0065 -0.2292
  168SAPE  H16X19040   3.026   0.407   8.576 -2.1325  1.3910 -2.1581
  168SAPE  H16Y19041   2.998   0.298   8.715  0.8121 -0.2353 -0.5708
  168SAPE  C31719042   2.815   0.410   8.651 -0.4064  0.3474 -0.0298
  168SAPE  H17X19043   2.749   0.328   8.686 -1.3488  1.8539  1.8258
  168SAPE  H17Y19044   2.772   0.450   8.557 -3.7479 -2.2989  0.2985
  168SAPE  C31819045   2.829   0.508   8.760 -0.6556  0.1448  0.4139
  168SAPE  H18X19046   2.741   0.574   8.776  0.7069  1.6510  1.8605
  168SAPE  H18Y19047   2.912   0.578   8.738  0.8098 -1.8488 -0.5694
  168SAPE  H18Z19048   2.848   0.459   8.858  0.2181  1.8528  1.1198
  169SAPE     N19049   2.615   2.138   6.335  0.2589 -0.8420  0.7567
  169SAPE   HN119050   2.713   2.114   6.311 -0.1507 -0.4241 -1.5206
  169SAPE   HN219051   2.550   2.117   6.256  3.0887 -2.0838 -1.3321
  169SAPE   HN319052   2.614   2.239   6.359  1.2912 -0.9001  1.0804
  169SAPE   C1219053   2.542   2.050   6.438 -0.4435  0.4486  0.7556
  169SAPE  H12A19054   2.611   2.046   6.526 -0.4808  0.9738  0.8101
  169SAPE  H12B19055   2.525   1.951   6.391  1.7609  0.2003  0.3876
  169SAPE   C1119056   2.416   2.124   6.491 -0.0916  0.2001  0.6973
  169SAPE  H11A19057   2.448   2.220   6.537 -1.5418  0.6228  0.8681
  169SAPE  H11B19058   2.359   2.051   6.552 -0.2778  0.3994  0.7624
  169SAPE     P19059   2.197   2.223   6.401 -0.7326 -0.4996  0.0644
  169SAPE   O1319060   2.214   2.362   6.453 -0.4133  0.0475  0.3296
  169SAPE   O1419061   2.114   2.213   6.279 -0.0942  0.5944  0.4183
  169SAPE   O1219062   2.336   2.157   6.375 -0.2686 -0.1889 -0.6362
  169SAPE   O1119063   2.140   2.129   6.511 -0.1319 -0.0680 -0.1756
  169SAPE    C119064   2.005   2.096   6.532 -0.5656  0.2115  0.2631
  169SAPE    HA19065   1.938   2.174   6.489  1.9776  1.1714 -2.0999
  169SAPE    HB19066   1.986   2.012   6.461  1.0269 -2.7973  3.2210
  169SAPE    C219067   1.988   2.046   6.677 -0.3471 -0.4796 -0.5661
  169SAPE    HS19068   1.884   2.007   6.670 -0.4491 -0.3155 -0.0406
  169SAPE   O2119069   1.998   2.156   6.767 -0.5600 -0.3740  0.0777
  169SAPE   C2119070   1.898   2.241   6.750  0.9179  0.1377 -0.2814
  169SAPE   O2219071   1.793   2.215   6.686 -0.0332  0.2315 -0.7161
  169SAPE   C2219072   1.934   2.385   6.799  0.1817  0.5220 -0.1060
  169SAPE   H2R19073   1.963   2.364   6.904  0.8614 -1.8347 -0.7464
  169SAPE   H2S19074   2.019   2.416   6.735  0.6853  0.6806  0.6427
  169SAPE    C319075   2.080   1.934   6.729 -0.1123  0.0695  0.0541
  169SAPE    HX19076   2.184   1.974   6.728 -0.5061  1.2641  2.6434
  169SAPE    HY19077   2.076   1.844   6.664  0.1607  2.2178 -3.0881
  169SAPE   O3119078   2.056   1.896   6.869  0.4984 -0.2835 -0.0180
  169SAPE   C3119079   1.956   1.821   6.891  0.2490  0.1297  0.4074
  169SAPE   O3219080   1.877   1.772   6.808  0.9524 -0.3736 -0.0574
  169SAPE   C3219081   1.954   1.809   7.046 -0.1073  0.2339  0.7234
  169SAPE   H2X19082   1.961   1.914   7.084 -2.2657  1.3992 -1.9116
  169SAPE   H2Y19083   2.047   1.757   7.079 -0.0804  0.8504  1.6465
  169SAPE   C2319084   1.815   2.483   6.771 -0.3448  0.4009 -0.4454
  169SAPE   H3R19085   1.761   2.466   6.676  0.2360  0.8596 -0.8635
  169SAPE   H3S19086   1.860   2.584   6.761 -1.8110  1.3501  1.9772
  169SAPE   C2419087   1.724   2.489   6.887  0.1102  0.1393 -0.5517
  169SAPE   H4R19088   1.637   2.551   6.857 -0.8368  0.7634  3.1754
  169SAPE   H4S19089   1.770   2.554   6.965 -0.6809  0.5181 -0.3919
  169SAPE   C2519090   1.677   2.357   6.934  0.0876 -0.0316  0.5916
  169SAPE   H5R19091   1.616   2.314   6.853  0.6441 -0.2670  0.2954
  169SAPE   C2619092   1.696   2.291   7.050 -0.6951 -0.4697 -0.2436
  169SAPE   H6R19093   1.643   2.195   7.057 -1.6041 -0.0347 -1.1534
  169SAPE   C2719094   1.770   2.341   7.172 -0.6990 -0.3653 -0.5710
  169SAPE   H7R19095   1.697   2.374   7.248  1.8524 -2.4612  2.9755
  169SAPE   H7S19096   1.828   2.434   7.153  2.4181 -1.5898  2.2492
  169SAPE   C2819097   1.869   2.241   7.226  0.0678 -0.1359  0.3065
  169SAPE   H8R19098   1.950   2.224   7.153 -2.2831 -0.6017 -2.2632
  169SAPE   C2919099   1.881   2.188   7.345  1.0234 -0.3492  0.8241
  169SAPE   H9R19100   1.968   2.128   7.374  1.3763 -0.2601 -0.0576
  169SAPE  C21019101   1.790   2.214   7.462 -0.9913 -0.2764  0.7026
  169SAPE  H10R19102   1.692   2.180   7.425  0.0568 -0.8621 -1.6179
  169SAPE  H10S19103   1.780   2.322   7.487 -0.1554  0.4578 -1.9884
  169SAPE  C21119104   1.814   2.133   7.582  0.0191  0.7261  0.1674
  169SAPE  H11R19105   1.780   2.029   7.569 -1.4789  1.3135 -0.8506
  169SAPE  C21219106   1.866   2.177   7.697 -0.0031  0.1189 -0.5180
  169SAPE  H12R19107   1.878   2.094   7.768  1.9602  0.1190 -0.8073
  169SAPE  C21319108   1.908   2.310   7.731 -0.9046  0.8851  0.3381
  169SAPE  H13R19109   1.868   2.337   7.831 -0.4789 -1.0922  1.0660
  169SAPE  H13S19110   1.869   2.385   7.659 -2.0877  0.4161  0.4900
  169SAPE  C21419111   2.056   2.313   7.743 -0.2034  0.3025  0.0817
  169SAPE  H14R19112   2.097   2.278   7.646 -1.2856 -4.0214  1.1140
  169SAPE  C21519113   2.137   2.331   7.848 -0.6579  0.5455  0.0255
  169SAPE  H15R19114   2.246   2.328   7.832 -0.4333 -1.4489  1.7149
  169SAPE  C21619115   2.087   2.382   7.983 -0.4772  0.0719  0.1196
  169SAPE  H16R19116   1.979   2.357   7.998  0.2025 -2.1427  1.5313
  169SAPE  H16S19117   2.102   2.490   8.004 -2.3047 -0.0293  2.1731
  169SAPE  C21719118   2.147   2.292   8.097  0.3738 -0.3509  0.4934
  169SAPE  H17R19119   2.136   2.341   8.196  2.8633  0.9151  0.1888
  169SAPE  H17S19120   2.257   2.282   8.087  0.1291  0.8156 -5.2839
  169SAPE  C21819121   2.080   2.149   8.102 -0.1158  0.5004  0.3225
  169SAPE  H18R19122   2.103   2.092   8.010  0.5714 -1.9819  1.9721
  169SAPE  H18S19123   1.971   2.166   8.111 -0.6220 -1.8159 -0.9452
  169SAPE  C21919124   2.115   2.067   8.229 -0.2993 -0.4770  0.1078
  169SAPE  H19R19125   2.091   2.110   8.329 -1.7742 -2.0320  0.4491
  169SAPE  H19S19126   2.226   2.063   8.233 -0.2605  1.2339  1.3661
  169SAPE  C22019127   2.063   1.923   8.223 -0.1873 -0.4459  0.1193
  169SAPE  H20R19128   2.107   1.857   8.300 -0.7753 -0.2106  0.6627
  169SAPE  H20S19129   2.086   1.874   8.126  0.4462 -2.4548  1.2653
  169SAPE  H20T19130   1.953   1.935   8.230 -0.6376 -3.7538 -0.6518
  169SAPE   C3319131   1.818   1.757   7.081 -0.0678  0.4626  0.3098
  169SAPE   H3X19132   1.784   1.667   7.025  1.7183  0.5884 -0.9926
  169SAPE   H3Y19133   1.747   1.838   7.053  0.1913  0.7441  0.4579
  169SAPE   C3419134   1.802   1.724   7.236  0.2116 -0.8907  0.1669
  169SAPE   H4X19135   1.693   1.714   7.255 -0.9465  1.9224 -4.1761
  169SAPE   H4Y19136   1.833   1.822   7.276  0.2174  0.1549 -2.3117
  169SAPE   C3519137   1.873   1.607   7.292 -0.1080  0.1893 -0.1175
  169SAPE   H5X19138   1.981   1.612   7.263 -0.1400 -0.7528 -0.4353
  169SAPE   H5Y19139   1.845   1.509   7.248  2.1760 -0.8875  0.7231
  169SAPE   C3619140   1.858   1.585   7.443  0.6048  0.2316 -0.3011
  169SAPE   H6X19141   1.896   1.487   7.477 -3.7532 -1.5986 -0.4986
  169SAPE   H6Y19142   1.747   1.580   7.450  0.8086 -3.5274  1.3977
  169SAPE   C3719143   1.915   1.704   7.519  0.2363 -0.3031 -0.5523
  169SAPE   H7X19144   1.870   1.795   7.475 -1.5065  0.4188  2.5977
  169SAPE   H7Y19145   2.024   1.708   7.497 -0.1080  2.9694 -1.9846
  169SAPE   C3819146   1.885   1.713   7.672 -0.5283 -0.6715  0.6728
  169SAPE   H8X19147   1.935   1.810   7.694  1.0842 -0.9938 -1.3600
  169SAPE   H8Y19148   1.927   1.628   7.731  0.4538 -0.6035  0.0698
  169SAPE   C3919149   1.735   1.727   7.710 -0.1259  0.2804 -0.2695
  169SAPE   H9X19150   1.670   1.644   7.676 -0.2231  0.4344 -0.4590
  169SAPE   H9Y19151   1.696   1.821   7.666  2.6706  1.7858  0.3219
  169SAPE  C31019152   1.718   1.732   7.861  0.4601 -0.3296 -0.4211
  169SAPE  H10X19153   1.767   1.824   7.899  0.2650 -1.1059  1.7462
  169SAPE  H10Y19154   1.761   1.643   7.911  0.3856  0.7399  1.6132
  169SAPE  C31119155   1.569   1.747   7.889 -0.1990  0.3046 -0.2917
  169SAPE  H11X19156   1.515   1.673   7.827 -0.7999  0.9114 -0.5040
  169SAPE  H11Y19157   1.531   1.847   7.859  0.3614  0.3065 -1.0278
  169SAPE  C31219158   1.535   1.723   8.038  0.4178 -0.2191 -0.6238
  169SAPE  H12X19159   1.579   1.628   8.073 -0.6220 -0.5822 -0.2712
  169SAPE  H12Y19160   1.424   1.710   8.042  0.3009  0.4204 -1.4534
  169SAPE  C31319161   1.580   1.832   8.136  0.3256  0.0339  0.2919
  169SAPE  H13X19162   1.547   1.931   8.098 -0.3747 -0.9978 -1.8354
  169SAPE  H13Y19163   1.691   1.822   8.140  0.4887  1.8219  0.4335
  169SAPE  C31419164   1.543   1.806   8.281  0.2285 -0.5266 -0.1531
  169SAPE  H14X19165   1.432   1.795   8.281  0.4372 -2.7250 -1.4699
  169SAPE  H14Y19166   1.579   1.894   8.339 -0.4290 -1.1141  1.1887
  169SAPE  C31519167   1.629   1.689   8.344  0.4848  0.4021 -0.1122
  169SAPE  H15X19168   1.734   1.716   8.323 -0.0191  2.3461 -0.2481
  169SAPE  H15Y19169   1.608   1.593   8.291  1.6433  0.3670 -0.5134
  169SAPE  C31619170   1.598   1.659   8.501 -0.5951 -0.0588  0.2345
  169SAPE  H16X19171   1.638   1.563   8.539  0.3270  0.8601  1.6391
  169SAPE  H16Y19172   1.489   1.667   8.520 -0.2229 -0.2263  2.5327
  169SAPE  C31719173   1.663   1.778   8.580 -0.0994 -0.1868 -0.3138
  169SAPE  H17X19174   1.629   1.771   8.686  1.1842 -0.2138  0.1083
  169SAPE  H17Y19175   1.629   1.879   8.548  0.1021  0.7436  2.3004
  169SAPE  C31819176   1.816   1.783   8.567  0.5369  0.4986 -0.8247
  169SAPE  H18X19177   1.851   1.678   8.570 -1.9568 -0.4489 -2.7463
  169SAPE  H18Y19178   1.854   1.848   8.648  0.4760  0.1080 -0.4828
  169SAPE  H18Z19179   1.827   1.833   8.468 -1.1068  4.5990  0.9723
  170SAPE     N19180   2.994   6.225   6.236 -0.2434  0.7430 -0.3662
  170SAPE   HN119181   3.012   6.139   6.180 -1.0703  1.0302 -1.0657
  170SAPE   HN219182   3.052   6.302   6.196  2.4077 -0.6195  0.6652
  170SAPE   HN319183   3.027   6.209   6.334 -2.7738 -1.0535  0.2156
  170SAPE   C1219184   2.847   6.265   6.250  0.2646  0.2126 -0.0510
  170SAPE  H12A19185   2.846   6.372   6.282 -0.1039  1.0048 -2.5788
  170SAPE  H12B19186   2.806   6.200   6.330  2.2916 -0.4526  0.4612
  170SAPE   C1119187   2.764   6.246   6.124  0.5957 -0.0162 -0.1953
  170SAPE  H11A19188   2.815   6.317   6.055  0.7911 -0.4398 -0.4892
  170SAPE  H11B19189   2.661   6.286   6.140  0.2664 -0.0007 -2.2013
  170SAPE     P19190   2.652   6.008   6.106  0.1881  0.0784 -0.3413
  170SAPE   O1319191   2.517   6.063   6.086  0.9112 -0.5783  0.5308
  170SAPE   O1419192   2.685   5.887   6.035 -0.3513 -0.0087  0.0609
  170SAPE   O1219193   2.762   6.112   6.073 -0.2847  0.4431 -0.5399
  170SAPE   O1119194   2.682   5.978   6.258 -0.2973  0.5440 -0.0230
  170SAPE    C119195   2.583   5.947   6.355 -0.8975 -0.7839 -0.4522
  170SAPE    HA19196   2.492   5.912   6.302  0.3209 -3.5120 -0.7782
  170SAPE    HB19197   2.608   5.851   6.404 -1.2967  0.0884  1.5207
  170SAPE    C219198   2.537   6.055   6.457  0.0473  0.6827 -0.0410
  170SAPE    HS19199   2.494   6.138   6.397 -1.6737  0.5248  0.9452
  170SAPE   O2119200   2.655   6.095   6.529 -0.3068  0.3293 -0.1385
  170SAPE   C2119201   2.652   6.212   6.594  0.1892 -0.0920 -0.9945
  170SAPE   O2219202   2.569   6.296   6.588  0.2358 -0.5767 -0.1371
  170SAPE   C2219203   2.775   6.214   6.684  0.2078 -0.5449 -0.2384
  170SAPE   H2R19204   2.766   6.138   6.765 -0.0089  0.2355  0.4690
  170SAPE   H2S19205   2.862   6.187   6.621 -0.7367  1.1780 -2.3133
  170SAPE    C319206   2.423   6.004   6.552  0.2894  0.6949 -0.5959
  170SAPE    HX19207   2.343   5.983   6.478  2.3084  0.7315 -2.8645
  170SAPE    HY19208   2.405   6.091   6.618 -2.1630  0.7160 -1.2368
  170SAPE   O3119209   2.454   5.881   6.619  0.5322 -0.6804 -0.3995
  170SAPE   C3119210   2.518   5.882   6.739  0.0830  0.4709  0.5873
  170SAPE   O3219211   2.549   5.980   6.803  0.1066  0.4096 -0.0813
  170SAPE   C3219212   2.525   5.736   6.787 -0.4268 -0.1234  0.1964
  170SAPE   H2X19213   2.606   5.677   6.741 -0.0724 -1.0252  1.9468
  170SAPE   H2Y19214   2.433   5.681   6.759  0.8596 -1.8545 -0.6826
  170SAPE   C2319215   2.810   6.352   6.759  0.2888  0.1749  0.1162
  170SAPE   H3R19216   2.803   6.425   6.675  1.5863  0.5613  0.3355
  170SAPE   H3S19217   2.911   6.352   6.805 -0.1797 -0.1831  1.1700
  170SAPE   C2419218   2.709   6.385   6.867 -0.5177 -0.7007 -0.4960
  170SAPE   H4R19219   2.614   6.342   6.831 -2.2185  2.5727 -0.1098
  170SAPE   H4S19220   2.688   6.494   6.858 -0.7480 -0.7027  0.0490
  170SAPE   C2519221   2.741   6.315   6.994 -0.3230  0.6483 -0.2027
  170SAPE   H5R19222   2.744   6.205   6.994  0.5086  0.6562 -1.6697
  170SAPE   C2619223   2.762   6.379   7.110 -0.2201 -0.2663  0.6302
  170SAPE   H6R19224   2.778   6.317   7.200  1.1390  1.8727  1.9278
  170SAPE   C2719225   2.754   6.530   7.133 -0.2835 -0.5291  0.0990
  170SAPE   H7R19226   2.756   6.592   7.040 -0.3154  2.7358  2.1885
  170SAPE   H7S19227   2.844   6.563   7.189 -0.5959 -1.5012  1.1782
  170SAPE   C2819228   2.642   6.588   7.223 -0.1913  0.2657  0.2406
  170SAPE   H8R19229   2.580   6.663   7.172 -0.2827 -0.0264 -0.0760
  170SAPE   C2919230   2.632   6.586   7.352  0.4956  0.2159 -0.3076
  170SAPE   H9R19231   2.532   6.617   7.385  0.4379  0.2149 -0.4789
  170SAPE  C21019232   2.726   6.517   7.456  0.2871 -0.4816  1.1940
  170SAPE  H10R19233   2.778   6.428   7.414  2.3001  0.8331  0.8299
  170SAPE  H10S19234   2.665   6.467   7.534 -1.3320  1.9189  1.5008
  170SAPE  C21119235   2.821   6.623   7.510  0.2046 -0.0506 -0.3579
  170SAPE  H11R19236   2.838   6.700   7.434  1.6120 -0.3832 -0.3893
  170SAPE  C21219237   2.885   6.630   7.629  0.2740 -0.9712  0.4215
  170SAPE  H12R19238   2.937   6.725   7.651  0.9543 -1.4016  0.7120
  170SAPE  C21319239   2.876   6.526   7.736  0.2643 -0.3033  0.9071
  170SAPE  H13R19240   2.824   6.440   7.690  0.4911 -0.1706  0.4027
  170SAPE  H13S19241   2.812   6.578   7.811 -0.9912 -0.3911 -0.0834
  170SAPE  C21419242   3.015   6.497   7.790  0.1109 -0.1214 -0.5012
  170SAPE  H14R19243   3.097   6.508   7.717  0.9840 -0.6232  0.4031
  170SAPE  C21519244   3.053   6.447   7.912  0.1036 -0.8511 -0.4834
  170SAPE  H15R19245   3.160   6.425   7.932  1.1641  1.3783 -3.4076
  170SAPE  C21619246   2.965   6.421   8.030 -0.2487 -0.2905 -0.6437
  170SAPE  H16R19247   2.983   6.314   8.054 -1.2346 -0.9263 -2.5931
  170SAPE  H16S19248   2.860   6.423   7.993 -1.1149 -1.7750  1.6713
  170SAPE  C21719249   2.969   6.511   8.148  0.2430 -0.2270 -0.5304
  170SAPE  H17R19250   2.888   6.474   8.214  0.5854 -0.2972 -0.1509
  170SAPE  H17S19251   2.944   6.618   8.133 -1.3136 -0.7841 -1.9725
  170SAPE  C21819252   3.101   6.507   8.224  0.2602 -0.2432 -0.6178
  170SAPE  H18R19253   3.154   6.601   8.198  1.7164 -1.3582 -1.7465
  170SAPE  H18S19254   3.167   6.419   8.205  0.0865 -1.3111  3.1928
  170SAPE  C21919255   3.085   6.512   8.379 -0.3748 -0.4840 -0.3226
  170SAPE  H19R19256   3.019   6.595   8.411 -0.2587 -1.7247  3.4362
  170SAPE  H19S19257   3.184   6.545   8.416 -1.2438  0.5420  1.1654
  170SAPE  C22019258   3.058   6.382   8.443  0.2938  0.2367 -0.6460
  170SAPE  H20R19259   2.949   6.359   8.439 -0.3526  2.8031  0.9607
  170SAPE  H20S19260   3.095   6.388   8.548  1.1213  2.2324 -1.0108
  170SAPE  H20T19261   3.123   6.300   8.407 -1.0516  0.1426 -2.9769
  170SAPE   C3319262   2.539   5.731   6.940 -0.2098 -0.6361 -0.0033
  170SAPE   H3X19263   2.616   5.804   6.973 -0.1163 -0.9514  0.4869
  170SAPE   H3Y19264   2.571   5.627   6.965  0.4007 -0.1372  1.3232
  170SAPE   C3419265   2.413   5.758   7.022 -0.4637 -0.2960 -0.3963
  170SAPE   H4X19266   2.337   5.688   6.981 -0.1201 -1.2635  0.6033
  170SAPE   H4Y19267   2.398   5.867   7.003 -0.0678 -0.4070 -1.4280
  170SAPE   C3519268   2.447   5.741   7.174 -0.3374 -0.7669 -0.1446
  170SAPE   H5X19269   2.519   5.818   7.209 -2.0518  1.1167 -0.6027
  170SAPE   H5Y19270   2.494   5.642   7.187  2.5965  0.4216 -1.2967
  170SAPE   C3619271   2.317   5.755   7.248  0.8333 -0.1381  0.1620
  170SAPE   H6X19272   2.243   5.690   7.196  1.0412 -1.5901  1.6679
  170SAPE   H6Y19273   2.288   5.862   7.239  1.5371  0.0285 -0.1747
  170SAPE   C3719274   2.310   5.709   7.393  0.5657  0.6019 -0.3217
  170SAPE   H7X19275   2.352   5.606   7.395 -0.8168  0.0128 -0.7093
  170SAPE   H7Y19276   2.205   5.697   7.429  1.5247 -0.2669  2.2861
  170SAPE   C3819277   2.391   5.805   7.471  0.6549 -0.9674 -0.3622
  170SAPE   H8X19278   2.358   5.910   7.457 -0.2430 -0.8092  2.7187
  170SAPE   H8Y19279   2.496   5.791   7.435  2.0485  0.7530  2.8250
  170SAPE   C3919280   2.400   5.783   7.622  0.1465  0.2192 -0.2865
  170SAPE   H9X19281   2.470   5.861   7.659  0.3914 -0.3586  0.4737
  170SAPE   H9Y19282   2.435   5.684   7.659  0.5616  0.4914  0.0539
  170SAPE  C31019283   2.257   5.790   7.687  0.8106 -0.2955 -0.6807
  170SAPE  H10X19284   2.201   5.701   7.654  0.4926  0.0282 -1.0102
  170SAPE  H10Y19285   2.201   5.880   7.653 -1.6012 -0.9657  1.3698
  170SAPE  C31119286   2.255   5.793   7.831  0.7185 -0.5387 -0.1883
  170SAPE  H11X19287   2.161   5.743   7.865  1.0857 -0.9612  0.2254
  170SAPE  H11Y19288   2.241   5.897   7.866 -1.3210 -0.0440 -2.3142
  170SAPE  C31219289   2.373   5.713   7.898  0.3087 -0.5379  0.0072
  170SAPE  H12X19290   2.461   5.772   7.867 -1.2894  3.4664  2.6712
  170SAPE  H12Y19291   2.382   5.607   7.865 -0.0487 -0.7398  0.5488
  170SAPE  C31319292   2.343   5.700   8.048 -0.7098  0.3918 -0.5144
  170SAPE  H13X19293   2.256   5.632   8.062 -0.6934  0.6930  1.1099
  170SAPE  H13Y19294   2.323   5.795   8.102  0.5881  0.8866 -0.8776
  170SAPE  C31419295   2.461   5.635   8.119 -0.0290  0.1559 -0.0370
  170SAPE  H14X19296   2.543   5.693   8.072  1.2400 -0.2309  1.6720
  170SAPE  H14Y19297   2.471   5.529   8.087 -0.8493  0.7870 -2.5495
  170SAPE  C31519298   2.476   5.667   8.274  0.0278  0.3249  0.0751
  170SAPE  H15X19299   2.510   5.772   8.290  1.4168  0.0916 -1.2604
  170SAPE  H15Y19300   2.553   5.604   8.323 -0.6251 -0.1066  0.5333
  170SAPE  C31619301   2.335   5.636   8.336 -0.3143  0.0728  0.2628
  170SAPE  H16X19302   2.314   5.530   8.310 -1.9971  0.1226  1.3184
  170SAPE  H16Y19303   2.251   5.698   8.298  0.4497  1.9025  1.4528
  170SAPE  C31719304   2.347   5.658   8.491 -0.3314 -0.4054  0.4100
  170SAPE  H17X19305   2.329   5.765   8.516  2.6061  0.9316 -2.8499
  170SAPE  H17Y19306   2.450   5.626   8.517 -0.8719 -2.1999  0.4412
  170SAPE  C31819307   2.254   5.575   8.584 -0.1208  0.0008  0.3303
  170SAPE  H18X19308   2.278   5.468   8.566 -0.6594 -0.3267  1.4560
  170SAPE  H18Y19309   2.146   5.582   8.559 -0.0637  2.3594  0.6388
  170SAPE  H18Z19310   2.273   5.588   8.693  0.5054  2.8060 -0.0787
  171SAPE     N19311   3.805   0.617   6.261  0.1795  0.0613 -0.4766
  171SAPE   HN119312   3.866   0.532   6.261 -0.6738 -0.5861  1.2984
  171SAPE   HN219313   3.750   0.622   6.173  0.5934 -0.6141 -0.7833
  171SAPE   HN319314   3.858   0.705   6.275 -0.5142  0.3547  0.3511
  171SAPE   C1219315   3.699   0.591   6.367 -0.4529  0.4118 -0.2207
  171SAPE  H12A19316   3.663   0.695   6.382  0.4932  0.9065 -1.3147
  171SAPE  H12B19317   3.761   0.549   6.450 -1.0044 -0.1045 -0.0634
  171SAPE   C1119318   3.593   0.489   6.327  0.5592  0.0363  0.1888
  171SAPE  H11A19319   3.523   0.534   6.254  0.3367 -0.6973 -0.0569
  171SAPE  H11B19320   3.533   0.477   6.420  2.1692 -1.4948  1.0596
  171SAPE     P19321   3.537   0.252   6.275 -0.0447 -0.3231  0.1477
  171SAPE   O1319322   3.400   0.299   6.232 -0.0728  0.0426 -0.1125
  171SAPE   O1419323   3.603   0.143   6.204 -0.2104 -0.4677  0.3994
  171SAPE   O1219324   3.643   0.367   6.279  0.4481  0.0889 -0.0934
  171SAPE   O1119325   3.525   0.223   6.426  0.7360 -0.0400 -0.4179
  171SAPE    C119326   3.627   0.167   6.498  0.3618 -0.4425  0.0985
  171SAPE    HA19327   3.654   0.069   6.452 -1.3868 -1.0568  0.3440
  171SAPE    HB19328   3.716   0.234   6.497  0.1310 -0.1150  1.4352
  171SAPE    C219329   3.592   0.155   6.653  0.4369 -0.0648 -0.0198
  171SAPE    HS19330   3.495   0.101   6.663  0.5292 -0.1627  0.3780
  171SAPE   O2119331   3.581   0.287   6.711  0.2265 -0.1233 -0.4500
  171SAPE   C2119332   3.494   0.304   6.807 -0.0824  0.1498 -0.0175
  171SAPE   O2219333   3.450   0.212   6.880  0.0803 -0.0059 -0.0996
  171SAPE   C2219334   3.448   0.444   6.842  0.5775 -0.1129 -0.4890
  171SAPE   H2R19335   3.377   0.468   6.760  1.0136  0.5590 -0.6702
  171SAPE   H2S19336   3.392   0.442   6.938  2.2404  2.4170  0.5682
  171SAPE    C319337   3.698   0.059   6.703 -0.1007  0.5716 -0.1779
  171SAPE    HX19338   3.796   0.105   6.676  0.8421 -2.0909 -1.4315
  171SAPE    HY19339   3.693  -0.040   6.654 -2.9850  0.2895  0.6025
  171SAPE   O3119340   3.689   0.036   6.851 -0.3869 -0.0306 -0.0060
  171SAPE   C3119341   3.596  -0.057   6.888 -0.8467 -0.4466  0.0019
  171SAPE   O3219342   3.544  -0.134   6.810 -0.0215 -0.2747 -0.0315
  171SAPE   C3219343   3.591  -0.053   7.041 -1.0671  0.0583  0.0211
  171SAPE   H2X19344   3.543   0.042   7.072  0.2838  0.0583  2.2161
  171SAPE   H2Y19345   3.695  -0.047   7.081 -1.7318  3.5733  1.4111
  171SAPE   C2319346   3.567   0.546   6.828  0.2847  0.1114 -0.4797
  171SAPE   H3R19347   3.520   0.644   6.804  0.1950  0.3381  0.6027
  171SAPE   H3S19348   3.635   0.539   6.740  0.3457 -1.7132 -0.3007
  171SAPE   C2419349   3.654   0.568   6.960  0.9648  0.2007  0.6251
  171SAPE   H4R19350   3.583   0.561   7.045 -1.4397  1.1321 -1.2346
  171SAPE   H4S19351   3.705   0.666   6.951 -0.7406  0.9947 -0.6756
  171SAPE   C2519352   3.748   0.447   6.958 -0.3018  0.3803 -0.2679
  171SAPE   H5R19353   3.843   0.451   6.902  0.4964  0.7876  1.1052
  171SAPE   C2619354   3.745   0.334   7.040  0.0769  0.4795  0.5829
  171SAPE   H6R19355   3.825   0.259   7.033  0.9142  1.2631  1.5485
  171SAPE   C2719356   3.655   0.308   7.156  0.4371 -0.4183  0.3107
  171SAPE   H7R19357   3.647   0.200   7.181 -0.6001 -0.3476  0.3289
  171SAPE   H7S19358   3.553   0.329   7.117  0.6768  0.6953  0.2466
  171SAPE   C2819359   3.685   0.402   7.272 -0.0152  0.1337 -0.5078
  171SAPE   H8R19360   3.653   0.504   7.248  0.4560 -0.0183 -1.8653
  171SAPE   C2919361   3.742   0.369   7.391 -0.6578  0.3683  0.5979
  171SAPE   H9R19362   3.770   0.460   7.447  0.4276  0.6469 -0.3464
  171SAPE  C21019363   3.790   0.231   7.445 -0.1928  0.3196 -0.2784
  171SAPE  H10R19364   3.897   0.238   7.473 -0.7410 -2.1695  2.6681
  171SAPE  H10S19365   3.799   0.154   7.365  3.0053  1.1041 -0.7254
  171SAPE  C21119366   3.701   0.184   7.563  0.0640  0.7969  0.4041
  171SAPE  H11R19367   3.636   0.100   7.537  1.8295  0.1811 -2.3033
  171SAPE  C21219368   3.697   0.224   7.688  0.5913 -0.2983  0.5040
  171SAPE  H12R19369   3.620   0.176   7.751 -0.6414  0.2290 -0.5804
  171SAPE  C21319370   3.779   0.330   7.760 -0.0164 -0.3003 -0.3167
  171SAPE  H13R19371   3.710   0.412   7.790  0.5792 -0.0220  0.2979
  171SAPE  H13S19372   3.856   0.380   7.697  0.1926  1.1038  1.0266
  171SAPE  C21419373   3.847   0.266   7.879 -0.5191  0.0692 -0.1420
  171SAPE  H14R19374   3.901   0.178   7.843  0.2711  0.5707 -0.1940
  171SAPE  C21519375   3.869   0.318   7.999  0.4442  0.3569  0.2545
  171SAPE  H15R19376   3.924   0.257   8.073 -0.2928  0.1081  0.6026
  171SAPE  C21619377   3.821   0.448   8.068  0.5730  0.1805  0.8418
  171SAPE  H16R19378   3.740   0.498   8.011  1.0065  0.8073  0.7785
  171SAPE  H16S19379   3.901   0.525   8.066  2.2272 -1.4430  1.9674
  171SAPE  C21719380   3.788   0.444   8.218  0.1761  0.5685  0.2695
  171SAPE  H17R19381   3.701   0.377   8.237 -0.7043  1.4260 -0.6671
  171SAPE  H17S19382   3.757   0.546   8.248 -0.2343  0.5242  0.0041
  171SAPE  C21819383   3.898   0.389   8.309 -0.2184  0.2634  0.0072
  171SAPE  H18R19384   3.997   0.437   8.294 -0.3897  0.7274  0.3547
  171SAPE  H18S19385   3.899   0.278   8.298 -0.7916  0.5013 -2.9698
  171SAPE  C21919386   3.868   0.418   8.456  0.2982  0.2297 -0.2115
  171SAPE  H19R19387   3.937   0.364   8.525 -1.8795  1.5453  3.1175
  171SAPE  H19S19388   3.768   0.389   8.494  1.1615 -0.8468  1.2958
  171SAPE  C22019389   3.905   0.565   8.494 -0.4137  0.8254 -0.8307
  171SAPE  H20R19390   3.845   0.631   8.427  0.0890  0.3883 -1.7194
  171SAPE  H20S19391   4.009   0.585   8.461  1.3767 -2.0141  2.7221
  171SAPE  H20T19392   3.881   0.579   8.602 -0.3193  1.7350 -0.9259
  171SAPE   C3319393   3.524  -0.167   7.120 -0.5039  0.1365 -0.1626
  171SAPE   H3X19394   3.479  -0.243   7.052 -1.4897  1.1636 -0.6598
  171SAPE   H3Y19395   3.436  -0.125   7.173 -0.5350  0.6882 -0.6539
  171SAPE   C3419396   3.622  -0.243   7.211  0.2210  0.3130 -0.0309
  171SAPE   H4X19397   3.715  -0.245   7.150  0.8522 -0.2977  0.9513
  171SAPE   H4Y19398   3.584  -0.341   7.247  1.8468 -0.1512  0.4612
  171SAPE   C3519399   3.661  -0.169   7.340 -0.1862  0.1168 -0.0347
  171SAPE   H5X19400   3.568  -0.158   7.400 -0.0843  1.2742 -0.0713
  171SAPE   H5Y19401   3.700  -0.069   7.311 -0.0520  0.5444  1.5863
  171SAPE   C3619402   3.780  -0.236   7.413 -0.1262 -0.7088 -0.5658
  171SAPE   H6X19403   3.864  -0.244   7.341  0.1013 -2.2503 -0.1620
  171SAPE   H6Y19404   3.754  -0.340   7.442 -0.3109 -1.4467 -3.3002
  171SAPE   C3719405   3.827  -0.167   7.539  0.2157  0.1616 -0.2611
  171SAPE   H7X19406   3.847  -0.058   7.528 -0.3606  0.4374  1.2731
  171SAPE   H7Y19407   3.925  -0.215   7.563  0.8227  1.0200 -0.9730
  171SAPE   C3819408   3.751  -0.199   7.669  0.5374  0.1921 -0.4175
  171SAPE   H8X19409   3.756  -0.309   7.688  1.5631  0.1297 -0.9688
  171SAPE   H8Y19410   3.650  -0.163   7.642  0.1448  1.6883  2.9007
  171SAPE   C3919411   3.797  -0.113   7.789  0.7586  0.0705 -0.3750
  171SAPE   H9X19412   3.707  -0.080   7.845  0.5888 -3.4843  1.6036
  171SAPE   H9Y19413   3.846  -0.023   7.746  0.6709 -0.3721 -1.3949
  171SAPE  C31019414   3.892  -0.195   7.882  0.0736  0.3002 -0.4481
  171SAPE  H10X19415   3.982  -0.224   7.824  0.1581 -0.9968  0.3035
  171SAPE  H10Y19416   3.839  -0.287   7.914  1.6145 -0.7350 -0.8257
  171SAPE  C31119417   3.953  -0.128   8.001  0.4150  0.4484 -0.5088
  171SAPE  H11X19418   4.010  -0.039   7.964  1.0090  1.2773  2.2824
  171SAPE  H11Y19419   4.031  -0.192   8.046  0.5156  2.8010  2.8568
  171SAPE  C31219420   3.853  -0.089   8.117  0.4500  0.1781  0.4401
  171SAPE  H12X19421   3.821  -0.193   8.142  1.3127  0.2085  1.6707
  171SAPE  H12Y19422   3.773  -0.033   8.063  0.5699  0.2614  0.3488
  171SAPE  C31319423   3.920  -0.011   8.228  0.2161 -0.4619 -0.0887
  171SAPE  H13X19424   3.853  -0.007   8.316  1.6572 -1.0502  1.0579
  171SAPE  H13Y19425   3.931   0.085   8.174 -1.5138 -1.2817 -1.9663
  171SAPE  C31419426   4.067  -0.051   8.271  0.1804 -0.2760  0.2427
  171SAPE  H14X19427   4.135  -0.022   8.188  0.7317  0.3575  0.9104
  171SAPE  H14Y19428   4.065  -0.161   8.289  0.5975  0.0424  2.3347
  171SAPE  C31519429   4.100   0.013   8.410 -0.5605  0.2135  0.3019
  171SAPE  H15X19430   4.010   0.000   8.475 -0.7101 -1.0653 -0.1433
  171SAPE  H15Y19431   4.120   0.122   8.402  3.7201 -0.3632  1.7037
  171SAPE  C31619432   4.210  -0.058   8.484  0.2694  0.3599 -0.1463
  171SAPE  H16X19433   4.307  -0.026   8.440 -0.5429  2.1952 -0.6776
  171SAPE  H16Y19434   4.206  -0.169   8.484 -0.1577  0.3566  2.0850
  171SAPE  C31719435   4.218  -0.033   8.640 -0.0395  0.4951 -0.5246
  171SAPE  H17X19436   4.123  -0.078   8.674  2.5884 -4.3259  0.9642
  171SAPE  H17Y19437   4.221   0.073   8.671  0.7789  0.1220  0.7287
  171SAPE  C31819438   4.331  -0.106   8.713 -0.0337  0.3464 -0.5698
  171SAPE  H18X19439   4.307  -0.214   8.720  2.4779 -0.3075 -1.3918
  171SAPE  H18Y19440   4.347  -0.065   8.815 -3.0489 -1.0871  0.5206
  171SAPE  H18Z19441   4.429  -0.093   8.662  0.1301  1.4897  0.0109
  172SAPE     N19442   3.623   5.633   5.895  0.2763 -0.1983 -0.7626
  172SAPE   HN119443   3.706   5.686   5.862 -0.4988  1.1223 -0.6365
  172SAPE   HN219444   3.555   5.640   5.816  1.3693  0.2544 -1.6848
  172SAPE   HN319445   3.576   5.688   5.970  0.7450 -0.6592 -0.1234
  172SAPE   C1219446   3.647   5.489   5.935 -0.5900  0.3557  0.1511
  172SAPE  H12A19447   3.728   5.450   5.869  0.3222  0.9595  0.9061
  172SAPE  H12B19448   3.549   5.439   5.920 -1.8589  2.2168  1.9078
  172SAPE   C1119449   3.692   5.491   6.083 -0.5081  0.0507 -0.3985
  172SAPE  H11A19450   3.710   5.387   6.117 -1.6846 -0.0307 -0.0010
  172SAPE  H11B19451   3.614   5.527   6.154  0.2212 -0.8122  0.8761
  172SAPE     P19452   3.917   5.531   6.202  0.1310  0.0186 -0.0085
  172SAPE   O1319453   3.975   5.400   6.151  0.3208 -0.2510  0.0230
  172SAPE   O1419454   4.011   5.647   6.218  0.3009 -0.5559  0.2221
  172SAPE   O1219455   3.810   5.574   6.097  0.4356 -0.2034  0.2535
  172SAPE   O1119456   3.842   5.504   6.343  0.3725 -0.2561 -0.1608
  172SAPE    C119457   3.751   5.604   6.386 -0.3359 -0.4546 -0.3363
  172SAPE    HA19458   3.816   5.692   6.403 -1.1051  0.2306 -0.9241
  172SAPE    HB19459   3.677   5.638   6.311 -0.7832  1.0709  0.7836
  172SAPE    C219460   3.685   5.559   6.518  1.3266  0.0372  0.5445
  172SAPE    HS19461   3.628   5.636   6.573 -0.6641 -2.5642  2.2543
  172SAPE   O2119462   3.783   5.503   6.608  0.1169  0.5408 -0.5213
  172SAPE   C2119463   3.868   5.586   6.665 -0.5652  0.6540 -0.1696
  172SAPE   O2219464   3.876   5.702   6.639 -0.2409 -0.1736  0.2628
  172SAPE   C2219465   3.958   5.508   6.756 -0.0365 -0.1498 -0.5399
  172SAPE   H2R19466   3.908   5.482   6.852  1.5937  1.4011  0.7505
  172SAPE   H2S19467   3.982   5.411   6.707 -3.0935 -2.3175  1.9648
  172SAPE    C319468   3.578   5.441   6.496  0.4807 -0.1843  0.5518
  172SAPE    HX19469   3.637   5.355   6.458 -0.0547 -0.2239 -0.1909
  172SAPE    HY19470   3.502   5.471   6.421 -1.3014 -1.2775  1.8785
  172SAPE   O3119471   3.507   5.416   6.620 -0.3916 -0.4891 -0.8446
  172SAPE   C3119472   3.439   5.300   6.608  0.8139  0.2271  0.3471
  172SAPE   O3219473   3.431   5.239   6.505  0.1242  0.7205 -0.0779
  172SAPE   C3219474   3.368   5.253   6.738  0.4683  0.3754 -0.0162
  172SAPE   H2X19475   3.438   5.276   6.821  0.3891 -0.4775  0.2951
  172SAPE   H2Y19476   3.371   5.142   6.739  0.8757  0.3230 -3.2301
  172SAPE   C2319477   4.090   5.583   6.785 -0.1860 -0.5298  0.6835
  172SAPE   H3R19478   4.076   5.678   6.840 -1.2795 -0.1326 -0.2838
  172SAPE   H3S19479   4.134   5.616   6.689 -1.1597  0.1440  0.4652
  172SAPE   C2419480   4.200   5.490   6.846  0.5153 -0.2251 -0.2456
  172SAPE   H4R19481   4.294   5.549   6.847  1.5867 -1.8119 -2.8307
  172SAPE   H4S19482   4.220   5.415   6.767  0.8703  2.1748 -2.5274
  172SAPE   C2519483   4.173   5.430   6.982  0.7758  0.0509  0.1968
  172SAPE   H5R19484   4.093   5.354   6.976  0.8082  0.1702 -2.0465
  172SAPE   C2619485   4.242   5.452   7.094  0.5773  0.3261 -0.1578
  172SAPE   H6R19486   4.207   5.409   7.189 -0.2785 -0.3922 -0.7915
  172SAPE   C2719487   4.356   5.546   7.117 -0.0552 -0.0403  0.1567
  172SAPE   H7R19488   4.334   5.615   7.201  1.7081 -1.7135  2.0571
  172SAPE   H7S19489   4.367   5.613   7.029 -1.0359  0.7582  0.6385
  172SAPE   C2819490   4.478   5.465   7.138  0.5051  0.6964 -0.0284
  172SAPE   H8R19491   4.524   5.418   7.050 -1.8250  0.4774 -1.1817
  172SAPE   C2919492   4.536   5.449   7.257 -0.2190  0.0185  0.1148
  172SAPE   H9R19493   4.619   5.377   7.267  1.8737  2.3278 -0.0574
  172SAPE  C21019494   4.508   5.511   7.390 -0.2709 -1.4671 -0.2921
  172SAPE  H10R19495   4.410   5.563   7.384 -0.5643 -1.8862  0.7880
  172SAPE  H10S19496   4.571   5.600   7.410 -0.6337 -0.2840 -3.9818
  172SAPE  C21119497   4.493   5.426   7.516  0.5675 -0.3879 -0.5581
  172SAPE  H11R19498   4.392   5.386   7.529  0.6238  0.2314  1.8690
  172SAPE  C21219499   4.589   5.385   7.604 -0.3350 -0.6524 -1.5949
  172SAPE  H12R19500   4.560   5.315   7.684  1.1165  1.3187  0.7107
  172SAPE  C21319501   4.731   5.434   7.603  0.2390  0.3411 -0.7057
  172SAPE  H13R19502   4.754   5.481   7.505  2.1332 -2.7910 -1.8311
  172SAPE  H13S19503   4.800   5.348   7.616  0.7360  1.1550  2.7623
  172SAPE  C21419504   4.757   5.545   7.709 -0.5012  0.3618 -0.4675
  172SAPE  H14R19505   4.761   5.649   7.673 -0.8285  0.5051 -0.1004
  172SAPE  C21519506   4.790   5.536   7.834  0.1994 -0.4693 -0.7501
  172SAPE  H15R19507   4.805   5.629   7.891 -1.8112 -0.6309  0.0616
  172SAPE  C21619508   4.805   5.407   7.918  0.6149  0.1639 -0.0845
  172SAPE  H16R19509   4.849   5.325   7.858  1.2913  0.1140  0.4670
  172SAPE  H16S19510   4.701   5.381   7.948  0.6828  1.2417  1.1638
  172SAPE  C21719511   4.873   5.427   8.061  0.4500  0.1761 -0.1075
  172SAPE  H17R19512   4.878   5.331   8.116  1.0060 -0.9473 -2.0948
  172SAPE  H17S19513   4.836   5.509   8.126 -0.5024 -0.4749  0.1783
  172SAPE  C21819514   5.023   5.451   8.039 -0.9352  0.4628 -0.3050
  172SAPE  H18R19515   5.036   5.546   7.983  0.6102  0.5246  0.1585
  172SAPE  H18S19516   5.070   5.372   7.977 -0.8380  0.6970 -0.5305
  172SAPE  C21919517   5.106   5.461   8.170  0.4743 -0.4617  0.2697
  172SAPE  H19R19518   5.208   5.501   8.153  0.2759  0.6465  1.6326
  172SAPE  H19S19519   5.122   5.366   8.225 -0.7595 -0.6547  0.3163
  172SAPE  C22019520   5.045   5.558   8.271  0.0360 -0.5087  0.0133
  172SAPE  H20R19521   4.986   5.641   8.228  2.0044  1.9468  1.8938
  172SAPE  H20S19522   5.129   5.604   8.327 -0.3835  1.6344 -1.0836
  172SAPE  H20T19523   4.967   5.507   8.332  0.1641  0.2830  0.8400
  172SAPE   C3319524   3.225   5.310   6.773  0.2833  0.6333 -0.2024
  172SAPE   H3X19525   3.179   5.240   6.845  1.5592  0.0661  0.0797
  172SAPE   H3Y19526   3.161   5.301   6.682 -0.0384  1.5722 -0.0762
  172SAPE   C3419527   3.240   5.450   6.821  0.6688  0.1932 -0.2766
  172SAPE   H4X19528   3.143   5.501   6.803  0.9321 -0.0491 -2.4672
  172SAPE   H4Y19529   3.310   5.505   6.754  2.7207  0.8471  2.2571
  172SAPE   C3519530   3.297   5.449   6.964 -0.3670 -0.2288  0.3409
  172SAPE   H5X19531   3.407   5.434   6.966 -0.2677  0.4282  0.1298
  172SAPE   H5Y19532   3.243   5.370   7.021  0.4223  0.2517  1.7871
  172SAPE   C3619533   3.259   5.572   7.049  0.3690  0.1492  0.1291
  172SAPE   H6X19534   3.151   5.578   7.024  0.5225  1.9698 -0.1524
  172SAPE   H6Y19535   3.310   5.658   7.001  1.7930  0.5640  2.3267
  172SAPE   C3719536   3.278   5.560   7.196 -0.2273 -0.7021 -0.1487
  172SAPE   H7X19537   3.387   5.553   7.217 -0.5584 -1.7092  1.3017
  172SAPE   H7Y19538   3.225   5.469   7.230  0.2466 -0.1722  2.0500
  172SAPE   C3819539   3.234   5.682   7.276 -0.7887  0.0494  0.1090
  172SAPE   H8X19540   3.255   5.648   7.380  0.6410 -3.7711 -1.3408
  172SAPE   H8Y19541   3.126   5.701   7.259 -0.1790  2.5969 -1.0899
  172SAPE   C3919542   3.314   5.814   7.264  0.3944 -0.0391  0.2817
  172SAPE   H9X19543   3.314   5.847   7.158 -0.5106 -1.8431 -0.3093
  172SAPE   H9Y19544   3.419   5.793   7.295  0.5973 -0.8733 -0.8935
  172SAPE  C31019545   3.268   5.931   7.358 -0.1732 -0.4459 -0.2622
  172SAPE  H10X19546   3.158   5.943   7.358 -0.2625 -1.1172  1.2754
  172SAPE  H10Y19547   3.326   6.019   7.324  1.0449 -1.4200 -0.7104
  172SAPE  C31119548   3.314   5.905   7.503 -0.3847 -0.3109  0.8895
  172SAPE  H11X19549   3.423   5.924   7.505 -0.6724  1.5293  0.1341
  172SAPE  H11Y19550   3.329   5.797   7.525  0.5673 -0.5502 -0.8783
  172SAPE  C31219551   3.232   5.963   7.614  0.6032  0.5395 -0.2844
  172SAPE  H12X19552   3.126   5.933   7.608  0.9218 -1.3466  2.7045
  172SAPE  H12Y19553   3.225   6.073   7.600  1.1404  0.5188 -0.7354
  172SAPE  C31319554   3.289   5.929   7.756 -0.8592  0.0866  0.2594
  172SAPE  H13X19555   3.328   5.826   7.758  4.0419  1.8125  1.1172
  172SAPE  H13Y19556   3.211   5.940   7.834 -3.4508 -2.2905 -1.8873
  172SAPE  C31419557   3.415   6.011   7.779 -0.4819 -0.5827 -0.0252
  172SAPE  H14X19558   3.389   6.110   7.823  1.3068  0.4108 -1.1094
  172SAPE  H14Y19559   3.475   6.028   7.687 -0.3700  0.1229  0.1698
  172SAPE  C31519560   3.525   5.959   7.875  0.1768 -0.0840 -0.2715
  172SAPE  H15X19561   3.571   5.869   7.828 -0.2706 -0.7749  0.6010
  172SAPE  H15Y19562   3.472   5.934   7.969  0.6317 -0.4276 -0.1021
  172SAPE  C31619563   3.630   6.059   7.920 -0.1648 -0.1087  0.1333
  172SAPE  H16X19564   3.580   6.146   7.967 -0.8256  0.1551 -1.0183
  172SAPE  H16Y19565   3.690   6.089   7.831 -0.1720  1.4188  0.6245
  172SAPE  C31719566   3.727   6.003   8.026 -0.6488  0.2610 -0.7727
  172SAPE  H17X19567   3.814   6.073   8.032 -0.1223 -0.2679 -2.1440
  172SAPE  H17Y19568   3.759   5.903   7.991 -0.7752 -0.4035  0.9708
  172SAPE  C31819569   3.662   5.999   8.165  0.1204  0.1250  0.3781
  172SAPE  H18X19570   3.603   6.092   8.175 -0.4719 -0.2384  0.2944
  172SAPE  H18Y19571   3.731   5.987   8.252  1.2252  0.7266 -0.4012
  172SAPE  H18Z19572   3.591   5.913   8.174 -1.2881  1.0952 -1.2448
  173SOPE     N19573   4.176   3.426  10.946 -0.2290  0.0777 -0.4604
  173SOPE   HN119574   4.107   3.369  11.000  1.1049 -0.1865  0.9882
  173SOPE   HN219575   4.271   3.384  10.954 -0.3288  0.0236  0.4305
  173SOPE   HN319576   4.190   3.517  10.994 -0.6306 -0.6129  0.9996
  173SOPE   C1219577   4.132   3.436  10.801  0.3924  0.4569 -0.3801
  173SOPE  H12A19578   4.225   3.468  10.750  1.5441 -2.5667 -0.3005
  173SOPE  H12B19579   4.058   3.518  10.796  0.8990  0.9092 -0.4320
  173SOPE   C1119580   4.068   3.301  10.750 -0.9656  0.5423 -0.4026
  173SOPE  H11A19581   4.053   3.303  10.640  0.8745 -0.9573 -0.7221
  173SOPE  H11B19582   3.970   3.286  10.800 -1.3881  1.8442 -0.8269
  173SOPE     P19583   4.116   3.049  10.804 -0.1292  0.2720  0.1904
  173SOPE   O1319584   4.075   3.031  10.944 -0.0155 -0.6694 -0.2380
  173SOPE   O1419585   4.211   2.950  10.746 -0.1681 -0.1455 -0.0484
  173SOPE   O1219586   4.155   3.191  10.774  0.7514 -0.4493  0.3393
  173SOPE   O1119587   3.985   3.025  10.721 -0.4489  0.4275  0.1471
  173SOPE    C119588   3.964   3.036  10.584  0.1703  0.2377 -0.4601
  173SOPE    HA19589   4.019   3.120  10.536 -0.1032  0.9614  0.4881
  173SOPE    HB19590   3.858   3.062  10.565  0.0422  0.1729  0.1669
  173SOPE    C219591   4.010   2.904  10.510 -0.1678  0.5357  0.4521
  173SOPE    HS19592   4.120   2.912  10.521 -0.2702 -1.3738  3.2994
  173SOPE   O2119593   3.967   2.898  10.369 -0.4726  0.2634 -0.1152
  173SOPE   C2119594   4.020   2.986  10.287 -0.3093 -0.1188 -0.1248
  173SOPE   O2219595   4.105   3.067  10.319 -0.5007  0.0875 -0.1061
  173SOPE   C2219596   3.969   2.964  10.147 -0.0768  0.4468  0.5759
  173SOPE   H2R19597   3.860   2.986  10.147 -0.1057  0.3085  0.1852
  173SOPE   H2S19598   3.977   2.857  10.120  1.8259  0.6739  0.1644
  173SOPE    C319599   3.968   2.770  10.581 -0.1420  0.3607  0.4535
  173SOPE    HX19600   3.859   2.782  10.601  0.0531  2.7369  0.2532
  173SOPE    HY19601   4.015   2.764  10.682 -3.0872  0.2797  1.8762
  173SOPE   O3119602   3.997   2.652  10.514 -0.1157 -0.8173 -0.3312
  173SOPE   C3119603   4.120   2.615  10.488 -0.2212 -0.5914 -0.3434
  173SOPE   O3219604   4.220   2.666  10.542 -0.2231 -0.3625  0.0160
  173SOPE   C3219605   4.131   2.496  10.404 -1.2280  0.2452 -0.3501
  173SOPE   H2X19606   4.070   2.412  10.444 -1.5085  0.1307 -1.0167
  173SOPE   H2Y19607   4.235   2.460  10.392 -0.1385  2.6217  1.5395
  173SOPE   C2319608   4.040   3.060  10.049 -0.1411 -0.1142 -0.2655
  173SOPE   H3R19609   4.148   3.035  10.056  0.3662  1.9632 -0.4565
  173SOPE   H3S19610   4.029   3.165  10.084  2.0395 -0.5719  1.9074
  173SOPE   C2419611   3.988   3.048   9.908  0.4339  0.0510  0.1414
  173SOPE   H4R19612   3.999   2.946   9.866  0.7958  0.8383 -1.6973
  173SOPE   H4S19613   3.879   3.070   9.902  0.8945  2.2786 -0.3096
  173SOPE   C2519614   4.068   3.149   9.820 -0.1783  1.3096 -0.0452
  173SOPE   H5R19615   4.035   3.246   9.862 -2.5116 -0.1121  1.5305
  173SOPE   H5S19616   4.179   3.140   9.828 -0.2979  0.6640  0.9699
  173SOPE   C2619617   4.040   3.152   9.670  0.7916  1.6078 -0.5774
  173SOPE   H6R19618   4.087   3.243   9.628  2.5514  1.1949  0.4284
  173SOPE   H6S19619   4.095   3.067   9.624 -0.7368  0.0210  0.4676
  173SOPE   C2719620   3.890   3.133   9.639  0.4258 -0.3250 -0.3635
  173SOPE   H7R19621   3.856   3.035   9.678  2.2837  0.4263  3.3498
  173SOPE   H7S19622   3.829   3.216   9.680  0.9678  0.0857 -0.3851
  173SOPE   C2819623   3.868   3.133   9.485 -0.1228 -0.6199  0.2469
  173SOPE   H8R19624   3.935   3.213   9.448  0.4026 -1.1404  0.0702
  173SOPE   H8S19625   3.892   3.034   9.440  0.7570  0.4578 -1.7033
  173SOPE   C2919626   3.730   3.167   9.442 -0.3226  0.2038  0.1150
  173SOPE   H9119627   3.681   3.228   9.520  0.4079  1.0604 -0.1016
  173SOPE  C21019628   3.660   3.141   9.324 -0.2532  0.8143  0.3734
  173SOPE  H10119629   3.567   3.197   9.310 -1.1749 -0.6071  0.6033
  173SOPE  C21119630   3.699   3.053   9.209  0.0038 -0.1886 -0.6354
  173SOPE  H11R19631   3.603   3.014   9.170  0.9428 -2.4136 -0.7575
  173SOPE  H11S19632   3.747   2.965   9.256 -4.4812 -2.1105  0.5091
  173SOPE  C21219633   3.781   3.111   9.092  0.3864 -0.2655 -0.3027
  173SOPE  H12R19634   3.823   3.027   9.033  1.7425 -1.3762  2.1596
  173SOPE  H12S19635   3.850   3.187   9.137 -0.3857  0.4473 -0.3083
  173SOPE  C21319636   3.704   3.203   8.993 -0.0753 -0.2460 -0.4051
  173SOPE  H13R19637   3.781   3.256   8.934 -0.3738 -0.7449 -1.2442
  173SOPE  H13S19638   3.649   3.283   9.048  0.7895 -0.6227  1.0421
  173SOPE  C21419639   3.609   3.134   8.894 -0.5835  0.0534 -0.1173
  173SOPE  H14R19640   3.537   3.075   8.954  0.6091 -0.4725  0.8129
  173SOPE  H14S19641   3.670   3.062   8.835  0.3038  2.0496 -1.7037
  173SOPE  C21519642   3.533   3.226   8.796 -0.6834  0.9047 -0.4010
  173SOPE  H15R19643   3.605   3.288   8.738  0.8425  1.0415  1.5894
  173SOPE  H15S19644   3.463   3.299   8.841 -1.5240 -0.8914  1.2455
  173SOPE  C21619645   3.459   3.145   8.689 -0.3553 -0.1646 -0.5622
  173SOPE  H16R19646   3.376   3.090   8.739 -1.6358  0.8132 -1.5838
  173SOPE  H16S19647   3.527   3.073   8.640 -1.2833 -2.3440  1.2519
  173SOPE  C21719648   3.397   3.237   8.580  0.0624 -0.3045 -0.2430
  173SOPE  H17R19649   3.347   3.322   8.630 -0.3161 -2.8619  3.9478
  173SOPE  H17S19650   3.328   3.170   8.524 -0.5786 -0.6521  0.9604
  173SOPE  C21819651   3.495   3.304   8.484  1.3327  0.5664 -0.6857
  173SOPE  H18R19652   3.533   3.218   8.424 -0.3321 -1.0590  0.5731
  173SOPE  H18S19653   3.575   3.365   8.530  0.6549  0.9465 -0.0085
  173SOPE  H18T19654   3.442   3.376   8.418  0.7893  1.2328  0.4605
  173SOPE   C3319655   4.083   2.528  10.258 -0.4564 -0.2123 -0.1628
  173SOPE   H3X19656   4.137   2.619  10.223 -0.4639  0.1040  0.6228
  173SOPE   H3Y19657   3.973   2.544  10.258 -0.3622  0.5249  1.0812
  173SOPE   C3419658   4.096   2.422  10.146 -0.4408  1.1704 -0.0639
  173SOPE   H4X19659   4.206   2.402  10.142 -0.6599 -0.3579  1.1649
  173SOPE   H4Y19660   4.061   2.464  10.049  1.3745 -2.8875 -2.6133
  173SOPE   C3519661   4.015   2.293  10.180 -0.6654  0.2476 -0.6619
  173SOPE   H5X19662   3.909   2.316  10.203 -0.6478  2.2212 -2.3619
  173SOPE   H5Y19663   4.048   2.246  10.275 -0.0414 -2.3965 -2.1378
  173SOPE   C3619664   4.019   2.181  10.077  0.2072 -0.3802 -0.0933
  173SOPE   H6X19665   3.974   2.091  10.126 -0.7671  0.5798  0.8115
  173SOPE   H6Y19666   4.121   2.150  10.046 -0.4979 -3.3236  0.3572
  173SOPE   C3719667   3.940   2.214   9.948  0.6331 -0.1250 -0.3099
  173SOPE   H7X19668   3.987   2.306   9.908  0.6776  0.2004  0.4983
  173SOPE   H7Y19669   3.831   2.232   9.959  1.1169  0.6377  4.1277
  173SOPE   C3819670   3.952   2.101   9.838 -0.6639 -0.1023 -0.3656
  173SOPE   H8X19671   3.919   2.009   9.891 -1.1904  0.0215 -0.4792
  173SOPE   H8Y19672   4.057   2.092   9.804 -0.6899 -0.2059 -0.4188
  173SOPE   C3919673   3.857   2.120   9.722 -0.2790  0.1887  0.3888
  173SOPE   H9X19674   3.898   2.201   9.659  0.3327 -0.4391 -0.0236
  173SOPE   H9Y19675   3.755   2.146   9.759 -1.1390  0.3539 -1.9860
  173SOPE  C31019676   3.864   2.000   9.630 -0.2785  0.5076 -0.4641
  173SOPE  H10X19677   3.791   1.926   9.670 -0.3454  1.0553  0.4524
  173SOPE  H10Y19678   3.960   1.944   9.632 -0.3259  0.3284 -2.2203
  173SOPE  C31119679   3.837   2.020   9.472  0.0711  0.0220  0.0950
  173SOPE  H11X19680   3.901   2.097   9.423 -1.2540  1.1352  0.0555
  173SOPE  H11Y19681   3.735   2.064   9.475  0.6084  1.2742  1.2375
  173SOPE  C31219682   3.821   1.884   9.393 -0.2424  0.3605  0.5392
  173SOPE  H12X19683   3.744   1.820   9.442  0.0139 -0.1588  0.2662
  173SOPE  H12Y19684   3.921   1.835   9.403 -0.0544  0.6163 -0.0609
  173SOPE  C31319685   3.783   1.909   9.240  0.0282  0.1931  0.3985
  173SOPE  H13X19686   3.784   1.809   9.190 -0.1242  0.8190 -0.8768
  173SOPE  H13Y19687   3.862   1.978   9.204 -0.3562 -0.4908 -1.8188
  173SOPE  C31419688   3.649   1.972   9.216 -0.3370 -0.6795 -0.1840
  173SOPE  H14X19689   3.661   2.075   9.256 -0.5463 -0.0153 -1.8015
  173SOPE  H14Y19690   3.564   1.912   9.255  0.2979 -1.3370  0.1869
  173SOPE  C31519691   3.615   1.979   9.063 -0.8985 -0.1492 -0.8709
  173SOPE  H15X19692   3.702   2.033   9.019 -0.3990  1.3110  1.7976
  173SOPE  H15Y19693   3.525   2.043   9.051 -0.3576  0.4404 -1.9062
  173SOPE  C31619694   3.594   1.840   8.998  0.0629 -0.2113  0.3015
  173SOPE  H16X19695   3.506   1.802   9.053  0.3725 -0.6367  0.5060
  173SOPE  H16Y19696   3.686   1.778   9.014  0.0667  0.0164  1.1902
  173SOPE  C31719697   3.560   1.863   8.848 -0.1127 -0.5081 -0.5262
  173SOPE  H17X19698   3.646   1.915   8.800  0.6334 -0.1472  1.1532
  173SOPE  H17Y19699   3.477   1.937   8.847  2.9867  3.1493  0.6372
  173SOPE  C31819700   3.538   1.738   8.758  0.0323 -0.1848 -0.6080
  173SOPE  H18X19701   3.477   1.658   8.804 -0.0326  0.8408  1.1555
  173SOPE  H18Y19702   3.640   1.703   8.730  2.1880  4.3132  1.1615
  173SOPE  H18Z19703   3.477   1.764   8.670  0.1144 -0.4860 -0.7555
  174SOPE     N19704   3.558   1.647  10.553 -0.6182 -0.0178 -0.0637
  174SOPE   HN119705   3.592   1.603  10.465 -2.9279 -1.9828 -0.0052
  174SOPE   HN219706   3.505   1.574  10.604  3.6709 -0.7587  3.6906
  174SOPE   HN319707   3.491   1.724  10.536 -0.1126  0.5044  0.2704
  174SOPE   C1219708   3.659   1.714  10.635 -0.2031  0.1399 -0.5062
  174SOPE  H12A19709   3.715   1.785  10.570  1.2246 -2.2812 -2.0412
  174SOPE  H12B19710   3.723   1.627  10.662 -0.9213 -0.4180 -0.5641
  174SOPE   C1119711   3.594   1.756  10.768  0.1083 -0.4634 -0.7322
  174SOPE  H11A19712   3.673   1.798  10.833 -1.1800  1.8669 -0.5950
  174SOPE  H11B19713   3.533   1.676  10.815 -3.0887  2.7108  0.7622
  174SOPE     P19714   3.542   2.012  10.766 -0.1001  0.1343  0.2320
  174SOPE   O1319715   3.586   2.035  10.904  0.0770 -0.0866 -0.2232
  174SOPE   O1419716   3.427   2.084  10.704  0.2841  0.4866  0.0176
  174SOPE   O1219717   3.499   1.861  10.749  0.7439  0.1950 -0.1398
  174SOPE   O1119718   3.674   2.024  10.676 -0.3019  0.7892  0.5496
  174SOPE    C119719   3.709   2.130  10.589  0.0717 -0.0142 -0.5355
  174SOPE    HA19720   3.743   2.217  10.649 -2.2138  0.7941 -0.3563
  174SOPE    HB19721   3.625   2.174  10.531  0.3826  0.3572 -0.7081
  174SOPE    C219722   3.830   2.082  10.498 -0.0663  0.3453  0.0794
  174SOPE    HS19723   3.876   2.167  10.441  1.0720 -1.2713 -1.4648
  174SOPE   O2119724   3.785   1.988  10.402  0.3779 -0.5752  0.0705
  174SOPE   C2119725   3.717   2.044  10.306  0.3586  0.3135  0.2008
  174SOPE   O2219726   3.705   2.162  10.286 -0.3063 -0.1153  0.9484
  174SOPE   C2219727   3.623   1.949  10.236  0.4826  0.8211  0.3856
  174SOPE   H2R19728   3.539   1.922  10.303 -0.3621  2.9258  0.1883
  174SOPE   H2S19729   3.686   1.863  10.201  1.4513  1.5009  0.4347
  174SOPE    C319730   3.940   2.016  10.579  0.3233 -0.4586 -0.3127
  174SOPE    HX19731   3.897   1.923  10.622 -0.2869  0.0283  0.1486
  174SOPE    HY19732   3.963   2.076  10.669 -0.1247 -0.2992 -0.3057
  174SOPE   O3119733   4.058   1.986  10.504  0.7918  0.5903 -0.6717
  174SOPE   C3119734   4.147   2.085  10.485 -0.1907  0.8152 -0.3126
  174SOPE   O3219735   4.143   2.197  10.535 -0.8160 -0.3816 -0.5997
  174SOPE   C3219736   4.244   2.047  10.373  0.4031 -0.4718  1.0315
  174SOPE   H2X19737   4.322   2.126  10.364 -1.7641  1.4186 -2.2021
  174SOPE   H2Y19738   4.177   2.061  10.285  1.8155 -1.5666 -0.2725
  174SOPE   C2319739   3.571   2.026  10.110  0.0668  0.5195  0.1186
  174SOPE   H3R19740   3.654   2.080  10.059  0.7107 -0.9411 -0.4385
  174SOPE   H3S19741   3.490   2.099  10.132 -2.2102 -1.8405 -0.1821
  174SOPE   C2419742   3.510   1.924  10.011 -0.2735  0.0251 -0.3068
  174SOPE   H4R19743   3.591   1.854   9.982 -1.3030 -0.8549 -1.0906
  174SOPE   H4S19744   3.427   1.867  10.057 -0.1058  0.1360  0.1403
  174SOPE   C2519745   3.478   1.999   9.880 -0.9343  0.0485  0.2421
  174SOPE   H5R19746   3.391   2.064   9.903 -0.6219  0.1548  1.1579
  174SOPE   H5S19747   3.558   2.063   9.837 -2.5437  0.9018 -1.5731
  174SOPE   C2619748   3.432   1.908   9.758 -0.0680 -0.9138 -0.4284
  174SOPE   H6R19749   3.519   1.844   9.730  0.6722  0.3791 -1.1514
  174SOPE   H6S19750   3.361   1.832   9.799  0.1941 -0.8598  0.1319
  174SOPE   C2719751   3.385   1.991   9.638 -0.1906 -0.8089  0.1714
  174SOPE   H7R19752   3.300   2.051   9.675  1.0401 -0.0613  1.8671
  174SOPE   H7S19753   3.466   2.063   9.612 -1.2584  0.1549 -0.5521
  174SOPE   C2819754   3.354   1.907   9.506 -0.9015 -1.5461  0.3164
  174SOPE   H8R19755   3.445   1.844   9.493  0.1195 -0.4689  2.0082
  174SOPE   H8S19756   3.268   1.840   9.527 -1.6385 -1.2668 -1.6926
  174SOPE   C2919757   3.322   2.008   9.393  0.3196  0.6779 -0.2390
  174SOPE   H9119758   3.373   2.103   9.415 -1.0939  1.0740  1.4919
  174SOPE  C21019759   3.251   1.995   9.277  0.7671  0.1300  0.2280
  174SOPE  H10119760   3.232   2.083   9.214 -1.7876  0.7004  1.7222
  174SOPE  C21119761   3.174   1.872   9.228  0.4004 -0.0776  0.5388
  174SOPE  H11R19762   3.068   1.903   9.214  0.7551  0.0778 -2.0369
  174SOPE  H11S19763   3.180   1.781   9.290  3.2425  0.0184  0.4529
  174SOPE  C21219764   3.224   1.823   9.082 -0.0645  0.2199  0.7074
  174SOPE  H12R19765   3.321   1.771   9.100 -0.4724 -0.7068  0.2122
  174SOPE  H12S19766   3.236   1.921   9.030  0.8316 -0.6750 -0.7877
  174SOPE  C21319767   3.126   1.731   9.014 -1.1554 -0.3638  0.8252
  174SOPE  H13R19768   3.026   1.779   9.008 -1.3982 -0.9302  0.3196
  174SOPE  H13S19769   3.111   1.631   9.060 -0.3999 -1.1260 -0.5613
  174SOPE  C21419770   3.160   1.701   8.861 -0.7059  0.3907  0.4234
  174SOPE  H14R19771   3.239   1.624   8.847  0.1578  1.4169 -0.4637
  174SOPE  H14S19772   3.208   1.791   8.817  1.3672 -1.7393 -1.8590
  174SOPE  C21519773   3.033   1.674   8.780 -0.2515  0.6427  0.3857
  174SOPE  H15R19774   3.048   1.723   8.682 -2.3851 -0.9426 -0.7799
  174SOPE  H15S19775   2.950   1.731   8.825 -0.5300 -0.1201  0.8524
  174SOPE  C21619776   2.990   1.532   8.758 -0.7254 -0.7932 -0.1747
  174SOPE  H16R19777   2.967   1.484   8.855 -0.4502 -0.7329 -0.0796
  174SOPE  H16S19778   3.067   1.472   8.704 -2.2895 -3.7720  0.7523
  174SOPE  C21719779   2.865   1.516   8.679 -0.4604 -0.5755  0.8012
  174SOPE  H17R19780   2.847   1.408   8.661 -2.3279 -0.2097  0.3546
  174SOPE  H17S19781   2.886   1.564   8.582  1.7628 -1.1725  0.9627
  174SOPE  C21819782   2.734   1.568   8.745  0.4968  0.5991 -0.1379
  174SOPE  H18R19783   2.707   1.493   8.823 -0.1874  0.1577 -0.8004
  174SOPE  H18S19784   2.657   1.569   8.665 -1.8223 -2.2118  1.9512
  174SOPE  H18T19785   2.742   1.669   8.791 -0.9393  0.5137  0.3324
  174SOPE   C3319786   4.296   1.904  10.361 -0.5780  0.1526  0.2623
  174SOPE   H3X19787   4.214   1.829  10.355  0.7672 -1.4313  1.1649
  174SOPE   H3Y19788   4.352   1.888  10.455  0.2617 -0.5170 -0.3461
  174SOPE   C3419789   4.397   1.885  10.252 -0.4095 -0.0757 -0.0047
  174SOPE   H4X19790   4.438   1.783  10.269  0.6930 -0.3164 -3.6095
  174SOPE   H4Y19791   4.480   1.958  10.264  1.4798 -2.2969  0.9679
  174SOPE   C3519792   4.336   1.903  10.111 -0.0781  0.4494  0.1238
  174SOPE   H5X19793   4.301   2.008  10.105 -1.4305  0.2502  3.6023
  174SOPE   H5Y19794   4.242   1.843  10.103  0.4917 -0.4479  0.0551
  174SOPE   C3619795   4.430   1.861  10.001 -0.4165  0.6577  0.0669
  174SOPE   H6X19796   4.475   1.762  10.025 -1.6781 -0.5267 -2.2537
  174SOPE   H6Y19797   4.508   1.937   9.985  0.5060 -0.1776  0.5524
  174SOPE   C3719798   4.352   1.856   9.861  0.0716  0.4720 -0.9659
  174SOPE   H7X19799   4.286   1.945   9.859  0.8132  1.2396  3.0635
  174SOPE   H7Y19800   4.286   1.766   9.866  2.1113 -0.9922  1.2233
  174SOPE   C3819801   4.452   1.834   9.743 -0.1258  0.5028 -0.7028
  174SOPE   H8X19802   4.533   1.761   9.764 -0.4114  0.5643  0.6221
  174SOPE   H8Y19803   4.498   1.930   9.714  0.6818  0.3242 -0.0209
  174SOPE   C3919804   4.382   1.761   9.632 -0.5611  0.2648 -0.0851
  174SOPE   H9X19805   4.338   1.667   9.671 -1.4721  0.5906 -0.3192
  174SOPE   H9Y19806   4.457   1.725   9.558  1.4309  0.3944  1.8256
  174SOPE  C31019807   4.280   1.850   9.570  0.1481  0.2192  0.4534
  174SOPE  H10X19808   4.329   1.943   9.535  1.1622 -0.4433  0.0960
  174SOPE  H10Y19809   4.200   1.886   9.638  0.1745  0.7985  0.1846
  174SOPE  C31119810   4.208   1.789   9.454  1.1014  0.5651 -0.4403
  174SOPE  H11X19811   4.125   1.861   9.441  1.1033  0.8974  1.3338
  174SOPE  H11Y19812   4.160   1.694   9.485  0.1288  0.1758 -2.9547
  174SOPE  C31219813   4.278   1.775   9.318 -0.1674 -1.0482  0.1744
  174SOPE  H12X19814   4.366   1.708   9.332  1.5765  1.1855  0.2798
  174SOPE  H12Y19815   4.319   1.876   9.296 -0.5165 -0.9601 -0.0714
  174SOPE  C31319816   4.180   1.736   9.209  1.0752  0.1048 -0.3150
  174SOPE  H13X19817   4.077   1.763   9.240  2.0349  1.8434  1.4256
  174SOPE  H13Y19818   4.178   1.625   9.196  0.4810 -0.2423  2.4432
  174SOPE  C31419819   4.207   1.807   9.083  0.1597 -0.2925  0.3082
  174SOPE  H14X19820   4.303   1.772   9.038 -0.1280 -0.7125  0.0244
  174SOPE  H14Y19821   4.221   1.916   9.096  0.3967 -0.4841  1.7696
  174SOPE  C31519822   4.102   1.790   8.974  0.3833  0.6140 -0.1396
  174SOPE  H15X19823   4.020   1.859   9.004 -0.8641 -0.3452 -1.3013
  174SOPE  H15Y19824   4.065   1.687   8.961  1.8548 -0.2712  2.3533
  174SOPE  C31619825   4.156   1.848   8.844  0.5506 -0.1913  0.0557
  174SOPE  H16X19826   4.251   1.801   8.808  0.8107  1.5998 -1.7255
  174SOPE  H16Y19827   4.177   1.955   8.865  0.5442 -0.5179  1.7370
  174SOPE  C31719828   4.046   1.840   8.735  0.2923 -0.4776  0.2524
  174SOPE  H17X19829   4.060   1.907   8.647  1.8798 -2.1229 -0.7962
  174SOPE  H17Y19830   3.949   1.878   8.773  0.8333 -0.3260  1.5178
  174SOPE  C31819831   4.020   1.699   8.673 -0.4529  0.1126 -0.8886
  174SOPE  H18X19832   4.010   1.614   8.744 -1.4130  1.4793  0.6285
  174SOPE  H18Y19833   4.091   1.672   8.591  1.5937 -0.1817  0.9268
  174SOPE  H18Z19834   3.928   1.693   8.612 -0.7872  0.3782 -0.4083
  175SOPE     N19835   5.965   3.653  10.909 -0.2535 -0.6820 -0.0820
  175SOPE   HN119836   6.034   3.719  10.950 -0.7027 -1.5239  2.0803
  175SOPE   HN219837   5.870   3.680  10.940  0.2775 -1.8888  2.7061
  175SOPE   HN319838   5.978   3.553  10.934  1.5824 -0.8501 -1.5941
  175SOPE   C1219839   5.992   3.667  10.763  0.2924  0.1365  0.7166
  175SOPE  H12A19840   5.998   3.563  10.724  0.2813  1.8228 -4.0624
  175SOPE  H12B19841   6.096   3.705  10.752  0.2423  0.1765  0.3837
  175SOPE   C1119842   5.891   3.756  10.677 -0.3798 -0.0386 -0.1046
  175SOPE  H11A19843   5.921   3.744  10.571  3.1406  0.5437  0.7893
  175SOPE  H11B19844   5.908   3.863  10.699 -0.6384  0.1824 -0.9772
  175SOPE     P19845   5.640   3.788  10.626  0.2617  0.3392 -0.0791
  175SOPE   O1319846   5.646   3.934  10.657 -0.2043  0.2174  0.1924
  175SOPE   O1419847   5.519   3.726  10.665  0.0351  0.0315 -0.0377
  175SOPE   O1219848   5.759   3.708  10.700 -0.3629  0.1284  0.0267
  175SOPE   O1119849   5.666   3.759  10.475  0.0954  0.2894  0.8164
  175SOPE    C119850   5.733   3.844  10.388  0.1479 -0.0178  0.7877
  175SOPE    HA19851   5.821   3.899  10.428 -1.1400  0.6535  2.7538
  175SOPE    HB19852   5.674   3.935  10.361  1.0479  1.2296  2.8801
  175SOPE    C219853   5.749   3.766  10.257  0.0641  0.1374  0.2814
  175SOPE    HS19854   5.814   3.826  10.190 -0.3916  0.2046 -0.0987
  175SOPE   O2119855   5.621   3.727  10.205 -0.3847 -0.6238  0.8829
  175SOPE   C2119856   5.565   3.837  10.138  0.9179 -0.4164  0.3741
  175SOPE   O2219857   5.621   3.941  10.127 -0.1266 -0.0339 -0.0495
  175SOPE   C2219858   5.434   3.790  10.079 -0.4088 -0.4746  0.2504
  175SOPE   H2R19859   5.423   3.866   9.998  1.5701  0.5311  0.8833
  175SOPE   H2S19860   5.355   3.813  10.154  0.5195 -4.0298  2.4598
  175SOPE    C319861   5.814   3.629  10.274  0.6413  0.1120 -0.4609
  175SOPE    HX19862   5.738   3.551  10.298  0.2695  0.1321 -1.5689
  175SOPE    HY19863   5.885   3.630  10.360  1.2576 -1.1237 -0.9392
  175SOPE   O3119864   5.881   3.595  10.141 -0.6468  0.2703 -0.1850
  175SOPE   C3119865   6.014   3.619  10.136 -0.1341 -0.4708 -0.4378
  175SOPE   O3219866   6.096   3.642  10.218  0.0561 -0.0205 -0.3193
  175SOPE   C3219867   6.044   3.628   9.982  0.2397 -0.1291  0.1315
  175SOPE   H2X19868   6.035   3.535   9.922  0.3014  0.1922 -0.3753
  175SOPE   H2Y19869   6.141   3.681   9.975  0.9488 -1.2497  1.2719
  175SOPE   C2319870   5.437   3.644  10.027 -0.3333 -0.0143 -0.1296
  175SOPE   H3R19871   5.351   3.632   9.958 -0.2184  0.5612 -0.3770
  175SOPE   H3S19872   5.436   3.578  10.116 -1.1780 -1.8234 -1.4497
  175SOPE   C2419873   5.568   3.595   9.953 -0.3239  0.0205  0.5461
  175SOPE   H4R19874   5.656   3.591  10.020  0.8358  0.9393 -0.8823
  175SOPE   H4S19875   5.549   3.490   9.924  0.9468  0.0343 -0.3962
  175SOPE   C2519876   5.613   3.681   9.830 -0.3295  0.0646  0.5324
  175SOPE   H5R19877   5.636   3.785   9.861 -0.9720  0.5492 -0.5966
  175SOPE   H5S19878   5.701   3.637   9.778  1.5575  1.6629  2.2739
  175SOPE   C2619879   5.500   3.697   9.726 -0.2554  0.1138 -0.5044
  175SOPE   H6R19880   5.411   3.737   9.779 -2.3818 -3.0324 -1.5418
  175SOPE   H6S19881   5.538   3.772   9.654  1.0741  0.6823  0.7837
  175SOPE   C2719882   5.463   3.561   9.670 -0.1242  0.5471  0.2783
  175SOPE   H7R19883   5.554   3.499   9.661  0.4523  1.6551 -1.6571
  175SOPE   H7S19884   5.391   3.510   9.738  0.5621 -2.3717 -1.1181
  175SOPE   C2819885   5.391   3.566   9.534  0.0249 -0.5234 -0.0341
  175SOPE   H8R19886   5.323   3.479   9.522  1.7021 -1.5711 -2.3046
  175SOPE   H8S19887   5.333   3.661   9.543  2.0852  0.6183  1.9657
  175SOPE   C2919888   5.489   3.583   9.426  0.3830 -0.2370  0.1268
  175SOPE   H9119889   5.589   3.548   9.458  0.5887  0.9454  0.8016
  175SOPE  C21019890   5.473   3.629   9.301 -0.1224 -0.6575 -0.3002
  175SOPE  H10119891   5.561   3.637   9.236  0.7437  0.3178  0.9676
  175SOPE  C21119892   5.344   3.669   9.238 -0.8326 -0.2628  0.6449
  175SOPE  H11R19893   5.347   3.780   9.239  0.8395 -0.2976 -0.0063
  175SOPE  H11S19894   5.253   3.634   9.292 -2.2759 -1.3845 -2.4381
  175SOPE  C21219895   5.334   3.620   9.097 -0.2636  0.0751  0.1269
  175SOPE  H12R19896   5.419   3.652   9.033 -0.1000 -0.9017 -0.1670
  175SOPE  H12S19897   5.251   3.672   9.044 -1.1775 -1.6330 -0.1735
  175SOPE  C21319898   5.318   3.467   9.080  0.3640 -0.1736  0.4902
  175SOPE  H13R19899   5.215   3.446   9.115  1.1183  0.9096  3.4316
  175SOPE  H13S19900   5.389   3.410   9.144 -0.8831 -0.0624  1.9900
  175SOPE  C21419901   5.350   3.401   8.938 -0.0391 -0.1818  0.4426
  175SOPE  H14R19902   5.326   3.294   8.955 -2.1369 -0.3807 -3.2547
  175SOPE  H14S19903   5.457   3.425   8.918 -0.5250  0.9169 -0.8877
  175SOPE  C21519904   5.253   3.434   8.823 -0.8743  0.3507 -0.5427
  175SOPE  H15R19905   5.244   3.542   8.799  2.5476  0.9965  0.9098
  175SOPE  H15S19906   5.147   3.407   8.845 -0.5552 -1.1749 -0.7792
  175SOPE  C21619907   5.298   3.351   8.700 -0.5047 -0.7439 -0.5468
  175SOPE  H16R19908   5.340   3.256   8.740 -0.7358  0.4500  2.6682
  175SOPE  H16S19909   5.373   3.412   8.646  0.3425 -0.1189  1.3224
  175SOPE  C21719910   5.187   3.322   8.599  1.0914 -0.3459  0.4448
  175SOPE  H17R19911   5.160   3.409   8.535 -0.4844 -3.0314 -2.6762
  175SOPE  H17S19912   5.095   3.297   8.656 -0.0650  0.1120 -1.1743
  175SOPE  C21819913   5.221   3.203   8.508  0.7056  0.1091  0.1495
  175SOPE  H18R19914   5.218   3.106   8.562  0.1193 -0.6117 -1.1464
  175SOPE  H18S19915   5.325   3.214   8.470  1.0571 -1.4264  0.6205
  175SOPE  H18T19916   5.143   3.185   8.431 -0.4467  1.2024  1.0500
  175SOPE   C3319917   5.954   3.740   9.918 -0.2005  0.5935 -0.1053
  175SOPE   H3X19918   5.938   3.831   9.980  1.2552 -0.0331  1.2109
  175SOPE   H3Y19919   5.852   3.698   9.900 -0.0521  1.0742 -2.1755
  175SOPE   C3419920   6.014   3.788   9.785 -0.5720  0.8634 -0.2094
  175SOPE   H4X19921   6.114   3.835   9.787  0.5229 -1.4466  1.4502
  175SOPE   H4Y19922   5.940   3.860   9.745 -0.5415  1.5832  1.0165
  175SOPE   C3519923   6.022   3.674   9.682  0.3098  0.6460 -0.1233
  175SOPE   H5X19924   5.927   3.617   9.675 -0.4532  1.7515  0.9245
  175SOPE   H5Y19925   6.112   3.610   9.697 -0.1389  0.4057  1.6467
  175SOPE   C3619926   6.023   3.738   9.543  0.1784 -0.3310  0.0239
  175SOPE   H6X19927   6.108   3.808   9.529  0.9543 -1.3585 -0.4734
  175SOPE   H6Y19928   5.932   3.801   9.535  0.9170  0.9774  1.6477
  175SOPE   C3719929   6.013   3.634   9.424  0.1323  0.0385 -0.4134
  175SOPE   H7X19930   5.961   3.542   9.460 -2.5075  1.0723 -1.4355
  175SOPE   H7Y19931   6.117   3.610   9.396  1.1066  1.2914  1.9391
  175SOPE   C3819932   5.945   3.691   9.295 -0.3548  0.5743  0.8729
  175SOPE   H8X19933   6.019   3.769   9.265  0.5267 -0.6283 -0.1357
  175SOPE   H8Y19934   5.842   3.726   9.318 -0.3653  0.3041  1.2431
  175SOPE   C3919935   5.937   3.594   9.180 -0.0593 -0.3135 -0.1555
  175SOPE   H9X19936   5.889   3.651   9.097  0.9250 -0.1365 -0.6121
  175SOPE   H9Y19937   5.868   3.509   9.197  0.4256 -0.3605  1.6261
  175SOPE  C31019938   6.075   3.530   9.136 -0.2105  0.5414 -0.1252
  175SOPE  H10X19939   6.092   3.454   9.215 -1.6356 -1.4654 -1.6649
  175SOPE  H10Y19940   6.153   3.607   9.155  1.4213 -1.0264 -0.3370
  175SOPE  C31119941   6.093   3.469   8.999 -0.7926 -0.5539  1.0912
  175SOPE  H11X19942   6.024   3.382   9.004 -0.7874 -0.5987  0.4214
  175SOPE  H11Y19943   6.198   3.438   8.980 -1.2990 -0.7841 -1.5158
  175SOPE  C31219944   6.062   3.564   8.888 -0.3826 -0.3150 -0.3224
  175SOPE  H12X19945   6.118   3.656   8.912  1.1452 -1.2809 -0.0825
  175SOPE  H12Y19946   5.955   3.571   8.858  0.3522 -1.8598 -3.4967
  175SOPE  C31319947   6.127   3.516   8.751  0.0312 -0.6893  0.2106
  175SOPE  H13X19948   6.087   3.414   8.733  1.3115 -1.1781  0.0527
  175SOPE  H13Y19949   6.231   3.484   8.774 -1.0258 -3.6263  1.1125
  175SOPE  C31419950   6.110   3.614   8.630 -0.1505 -0.1971  0.1316
  175SOPE  H14X19951   6.169   3.578   8.543 -0.1150 -3.0064  1.2851
  175SOPE  H14Y19952   6.155   3.709   8.665 -0.9710  0.1243  0.3253
  175SOPE  C31519953   5.964   3.653   8.581 -0.8354  1.2067 -0.1493
  175SOPE  H15X19954   5.911   3.679   8.675  1.6973  0.9283  1.4212
  175SOPE  H15Y19955   5.910   3.567   8.536 -0.2713  1.0770 -0.5935
  175SOPE  C31619956   5.961   3.784   8.500 -0.7664 -0.0048  0.4970
  175SOPE  H16X19957   6.010   3.785   8.400  0.8097  1.7650  1.2667
  175SOPE  H16Y19958   6.006   3.865   8.561 -1.6727  0.1950  0.9095
  175SOPE  C31719959   5.812   3.823   8.477  0.5850 -0.6162 -0.2329
  175SOPE  H17X19960   5.762   3.837   8.576  1.8912  2.2816  0.0413
  175SOPE  H17Y19961   5.759   3.736   8.431 -0.8983  0.9437 -1.5624
  175SOPE  C31819962   5.807   3.936   8.371  0.1366 -0.5346 -0.1574
  175SOPE  H18X19963   5.846   4.030   8.416  1.7364 -1.3590  0.2174
  175SOPE  H18Y19964   5.698   3.948   8.351  0.2857 -1.4780 -1.6107
  175SOPE  H18Z19965   5.855   3.901   8.277  0.2785 -1.0358  0.0964
  176SOPE     N19966   4.932   3.484  11.124 -0.1776 -0.4162 -0.0202
  176SOPE   HN119967   5.013   3.439  11.172  0.5836  0.1571 -0.7388
  176SOPE   HN219968   4.919   3.569  11.182 -1.5915 -0.9382  0.4440
  176SOPE   HN319969   4.853   3.417  11.129  0.0465 -0.5973  1.2841
  176SOPE   C1219970   4.981   3.520  10.987  0.3924 -0.1439  0.3710
  176SOPE  H12A19971   5.062   3.594  11.000  1.6657 -1.4719  0.0974
  176SOPE  H12B19972   4.894   3.572  10.941 -0.3257  0.4319  2.2942
  176SOPE   C1119973   5.015   3.404  10.897 -0.1770 -0.0767 -0.4650
  176SOPE  H11A19974   5.058   3.444  10.802 -1.9779  2.7450 -0.1318
  176SOPE  H11B19975   4.921   3.349  10.872 -1.0181  1.5952 -1.0225
  176SOPE     P19976   5.251   3.340  10.962  0.1918 -0.2186  0.5409
  176SOPE   O1319977   5.309   3.282  11.085 -0.5132 -0.1618  0.4040
  176SOPE   O1419978   5.289   3.481  10.935 -0.0291  0.8561 -0.3503
  176SOPE   O1219979   5.098   3.314  10.962  0.2505  0.4262  0.1238
  176SOPE   O1119980   5.305   3.247  10.845 -0.0256 -0.7325 -0.2614
  176SOPE    C119981   5.244   3.120  10.822  1.2120  0.7829  0.0922
  176SOPE    HA19982   5.154   3.098  10.884 -1.9796  2.6556 -3.6374
  176SOPE    HB19983   5.306   3.034  10.854 -1.2933 -0.5318  1.5495
  176SOPE    C219984   5.208   3.096  10.675  0.9583  0.4922 -0.2838
  176SOPE    HS19985   5.173   2.992  10.663  0.1602  0.7434 -0.1746
  176SOPE   O2119986   5.313   3.125  10.581  0.1129 -0.2386 -0.1505
  176SOPE   C2119987   5.412   3.041  10.588  0.2753  0.1021 -0.2785
  176SOPE   O2219988   5.426   2.939  10.651  0.3848  0.6504 -0.1513
  176SOPE   C2219989   5.529   3.104  10.499 -0.4627  0.0414  0.1254
  176SOPE   H2R19990   5.614   3.129  10.567 -1.1631  1.4961  0.4977
  176SOPE   H2S19991   5.489   3.198  10.456 -1.7254  1.1446  3.5367
  176SOPE    C319992   5.078   3.176  10.629  0.3257  0.1355  0.5635
  176SOPE    HX19993   5.108   3.282  10.640 -0.2570  0.2248  1.3710
  176SOPE    HY19994   4.996   3.155  10.701  1.0908 -2.5205  0.7239
  176SOPE   O3119995   5.038   3.150  10.492 -0.1206  1.0924  0.2960
  176SOPE   C3119996   4.987   3.033  10.463  0.2064 -0.8362 -0.4102
  176SOPE   O3219997   4.974   2.938  10.541  0.2733  0.2590 -0.1432
  176SOPE   C3219998   4.948   3.035  10.321  0.0487  0.3183 -0.4621
  176SOPE   H2X19999   5.039   3.049  10.259  0.1491  1.8888 -0.0019
  176SOPE   H2Y20000   4.880   3.120  10.297 -0.3659  0.3605  0.7855
  176SOPE   C2320001   5.575   3.012  10.379  0.4228 -0.3747  0.0852
  176SOPE   H3R20002   5.631   3.072  10.304  1.7063 -0.8343  0.6615
  176SOPE   H3S20003   5.484   2.972  10.330 -0.8556  1.3833  1.0260
  176SOPE   C2420004   5.658   2.897  10.429 -0.4330 -0.0273 -0.2360
  176SOPE   H4R20005   5.752   2.948  10.460 -0.3867  0.0005 -0.4226
  176SOPE   H4S20006   5.617   2.845  10.519 -0.3537  0.4629  0.0822
  176SOPE   C2520007   5.698   2.790  10.322 -0.9713 -0.5579  0.6790
  176SOPE   H5R20008   5.779   2.739  10.380  0.0038  0.1545 -0.0559
  176SOPE   H5S20009   5.615   2.720  10.299 -1.1837 -0.3865  0.9195
  176SOPE   C2620010   5.755   2.858  10.201 -0.3375 -0.7171  0.4096
  176SOPE   H6R20011   5.669   2.890  10.138  0.2079  0.4904  0.2673
  176SOPE   H6S20012   5.825   2.940  10.228 -0.2224 -0.5474 -0.3933
  176SOPE   C2720013   5.838   2.755  10.128 -0.7512 -0.2913  0.5906
  176SOPE   H7R20014   5.937   2.750  10.179  0.1723 -1.8109 -1.2773
  176SOPE   H7S20015   5.797   2.652  10.136  2.4839 -1.6257  0.5939
  176SOPE   C2820016   5.866   2.789   9.978 -0.2095  0.1345 -0.1650
  176SOPE   H8R20017   5.910   2.890   9.964  1.1815 -0.3607  0.5686
  176SOPE   H8S20018   5.942   2.718   9.940  1.5809  1.9734 -0.1439
  176SOPE   C2920019   5.746   2.759   9.884 -0.0479 -0.3663  0.6870
  176SOPE   H9120020   5.658   2.718   9.934 -1.3569 -0.7769 -1.8371
  176SOPE  C21020021   5.742   2.799   9.750  0.0579 -0.7364  0.1987
  176SOPE  H10120022   5.651   2.791   9.688  1.6189 -2.5128 -1.9751
  176SOPE  C21120023   5.855   2.866   9.677  0.8110  0.6498 -0.2631
  176SOPE  H11R20024   5.926   2.915   9.747  1.2071  1.8944 -1.5077
  176SOPE  H11S20025   5.816   2.940   9.603  0.3113  3.2752  2.5413
  176SOPE  C21220026   5.937   2.767   9.595 -0.0179  0.9470  0.5240
  176SOPE  H12R20027   5.982   2.692   9.664 -0.3749  0.5585  0.3427
  176SOPE  H12S20028   6.019   2.834   9.562  1.6800 -0.4032  1.8774
  176SOPE  C21320029   5.878   2.707   9.475  0.9988 -0.4293  0.9257
  176SOPE  H13R20030   5.778   2.748   9.450  0.0180 -3.4285 -0.3549
  176SOPE  H13S20031   5.857   2.600   9.497  0.4809 -0.2178  1.4658
  176SOPE  C21420032   5.967   2.712   9.351 -0.5304  0.0950  0.4317
  176SOPE  H14R20033   6.068   2.678   9.385 -1.6981 -0.5321  3.4586
  176SOPE  H14S20034   5.979   2.811   9.303  1.5760 -0.1884  0.3149
  176SOPE  C21520035   5.919   2.606   9.242 -0.4371 -0.1644  0.2165
  176SOPE  H15R20036   5.912   2.504   9.285 -0.6780 -0.4930 -0.5981
  176SOPE  H15S20037   5.990   2.606   9.156 -0.8218  1.7054 -0.1314
  176SOPE  C21620038   5.781   2.644   9.177 -0.1184 -0.2637 -0.2405
  176SOPE  H16R20039   5.791   2.736   9.115 -1.1252  0.3877  0.5591
  176SOPE  H16S20040   5.707   2.678   9.252 -0.7322  2.0096 -1.7913
  176SOPE  C21720041   5.718   2.530   9.097  0.5823  0.3831 -0.1469
  176SOPE  H17R20042   5.631   2.576   9.045  0.4788  1.3641  0.8931
  176SOPE  H17S20043   5.693   2.446   9.164  0.5994  0.7340  0.2986
  176SOPE  C21820044   5.816   2.464   8.988  0.2463 -0.7716  0.0034
  176SOPE  H18R20045   5.893   2.419   9.054  0.3281 -0.7712 -0.0914
  176SOPE  H18S20046   5.856   2.552   8.932 -0.2750 -0.0422  0.7596
  176SOPE  H18T20047   5.765   2.379   8.938 -0.4909 -0.6811  0.5790
  176SOPE   C3320048   4.873   2.904  10.264  0.5290  1.0162 -0.1457
  176SOPE   H3X20049   4.894   2.811  10.321 -2.9500  0.3582  0.1311
  176SOPE   H3Y20050   4.916   2.891  10.162 -2.5851 -1.1597 -1.2324
  176SOPE   C3420051   4.720   2.921  10.250 -0.4397 -0.0083  0.0427
  176SOPE   H4X20052   4.719   3.017  10.193 -0.2703 -0.6319 -1.0191
  176SOPE   H4Y20053   4.683   2.919  10.355  1.9502  0.2460  0.9299
  176SOPE   C3520054   4.660   2.807  10.165 -0.4980  0.4849 -0.4978
  176SOPE   H5X20055   4.661   2.708  10.217  0.1362 -0.2679 -1.9193
  176SOPE   H5Y20056   4.724   2.806  10.075 -1.0601 -0.2750 -0.8994
  176SOPE   C3620057   4.522   2.841  10.108  0.1456 -0.5458 -0.1772
  176SOPE   H6X20058   4.526   2.943  10.063  2.6316 -0.4730  0.1829
  176SOPE   H6Y20059   4.455   2.844  10.196 -0.7564 -3.5405 -0.6809
  176SOPE   C3720060   4.476   2.737  10.006  0.2167  0.6363 -0.5356
  176SOPE   H7X20061   4.449   2.643  10.058  2.4918 -0.5313 -1.3934
  176SOPE   H7Y20062   4.560   2.719   9.935  0.9336  3.7712 -0.5610
  176SOPE   C3820063   4.355   2.779   9.937 -0.0551  0.2640 -0.1622
  176SOPE   H8X20064   4.359   2.884   9.900  0.2699  0.4809  0.4875
  176SOPE   H8Y20065   4.260   2.766   9.994  0.1073  3.2257  0.8477
  176SOPE   C3920066   4.346   2.707   9.798  0.9532  0.4657  0.2395
  176SOPE   H9X20067   4.349   2.598   9.816  0.8821  0.4880  0.3917
  176SOPE   H9Y20068   4.430   2.728   9.729  1.3444 -0.5436  0.4133
  176SOPE  C31020069   4.222   2.756   9.718  0.4366  0.5301  0.5283
  176SOPE  H10X20070   4.227   2.867   9.706 -2.4296  0.3911 -2.8556
  176SOPE  H10Y20071   4.126   2.730   9.767 -0.2301  0.5366 -0.7678
  176SOPE  C31120072   4.219   2.698   9.582  0.6614  0.0090  0.0547
  176SOPE  H11X20073   4.182   2.593   9.582  1.3629 -0.2435 -0.3200
  176SOPE  H11Y20074   4.321   2.712   9.540  0.3730 -0.3780 -0.7919
  176SOPE  C31220075   4.127   2.783   9.484  0.0429 -0.5334 -0.7805
  176SOPE  H12X20076   4.169   2.886   9.482  2.2098 -1.3695  0.6092
  176SOPE  H12Y20077   4.026   2.782   9.530  1.0536 -1.7412  1.4814
  176SOPE  C31320078   4.102   2.731   9.340 -0.0684  0.8539  0.1801
  176SOPE  H13X20079   4.000   2.760   9.308  0.3034  1.5497 -0.4066
  176SOPE  H13Y20080   4.113   2.620   9.342 -3.3926  0.4487 -0.4605
  176SOPE  C31420081   4.203   2.804   9.239 -0.4257  0.6496 -0.3950
  176SOPE  H14X20082   4.308   2.774   9.260 -1.2851 -1.0879  1.5318
  176SOPE  H14Y20083   4.198   2.913   9.260 -2.2124  0.9923 -2.4177
  176SOPE  C31520084   4.185   2.788   9.089 -0.0185 -0.6235 -0.7116
  176SOPE  H15X20085   4.088   2.736   9.075 -0.8770  1.2849 -2.1402
  176SOPE  H15Y20086   4.262   2.723   9.042 -0.2314  0.2456 -2.3266
  176SOPE  C31620087   4.172   2.914   9.001  0.4805  0.0666 -0.6157
  176SOPE  H16X20088   4.269   2.969   9.008 -0.4059  1.6122 -0.3979
  176SOPE  H16Y20089   4.102   2.986   9.047  0.4218 -0.3364 -0.0782
  176SOPE  C31720090   4.148   2.883   8.856  0.1277 -1.4606 -0.2935
  176SOPE  H17X20091   4.049   2.834   8.852 -1.5842  1.9520 -1.7403
  176SOPE  H17Y20092   4.223   2.808   8.826 -0.9636 -2.0319 -1.6268
  176SOPE  C31820093   4.140   3.009   8.768 -0.2345  0.4731  0.8736
  176SOPE  H18X20094   4.236   3.063   8.755 -1.3406  1.8880 -1.8337
  176SOPE  H18Y20095   4.065   3.083   8.806 -0.8736 -1.0161  2.5842
  176SOPE  H18Z20096   4.108   2.985   8.664  0.2062  1.3896  0.5206
  177SOPE     N20097   4.404   1.604  11.193  0.6997 -0.3923 -0.1101
  177SOPE   HN120098   4.321   1.653  11.155  0.4037  0.2502  1.3389
  177SOPE   HN220099   4.391   1.598  11.296 -1.2302  1.7473 -0.1929
  177SOPE   HN320100   4.488   1.661  11.170  1.2806 -0.8676  0.8145
  177SOPE   C1220101   4.419   1.464  11.133 -0.3376 -0.4887 -0.2821
  177SOPE  H12A20102   4.320   1.415  11.146  0.2552 -1.7397 -0.4057
  177SOPE  H12B20103   4.499   1.423  11.198  0.3560  1.7894  0.3238
  177SOPE   C1120104   4.476   1.464  10.986 -0.1141  0.0459 -0.0175
  177SOPE  H11A20105   4.424   1.533  10.916  2.2619  0.8785 -1.0257
  177SOPE  H11B20106   4.466   1.362  10.944  1.6133  0.0225 -0.4129
  177SOPE     P20107   4.746   1.419  10.986  0.3838 -0.1814  0.0491
  177SOPE   O1320108   4.754   1.348  11.114 -0.0490  0.0688  0.7403
  177SOPE   O1420109   4.865   1.500  10.953 -0.4026 -0.3664  0.2667
  177SOPE   O1220110   4.614   1.510  10.982  0.1234  0.2681  0.0830
  177SOPE   O1120111   4.712   1.304  10.879  0.9469 -0.0135 -0.6285
  177SOPE    C120112   4.700   1.342  10.739  1.3089  0.0951 -0.6351
  177SOPE    HA20113   4.688   1.452  10.730 -0.0082 -0.0290 -0.4628
  177SOPE    HB20114   4.612   1.293  10.694  0.6856 -0.1316  0.7998
  177SOPE    C220115   4.821   1.297  10.655 -0.2229 -0.3761  0.0938
  177SOPE    HS20116   4.911   1.357  10.681 -0.3878  1.4798 -3.2960
  177SOPE   O2120117   4.788   1.316  10.521 -0.3625 -0.4412 -0.1801
  177SOPE   C2120118   4.881   1.296  10.434  0.1315  0.3079  0.1741
  177SOPE   O2220119   4.997   1.273  10.461 -0.0446  0.0113 -0.0131
  177SOPE   C2220120   4.821   1.294  10.293  0.3257  0.0901  0.2806
  177SOPE   H2R20121   4.779   1.397  10.286  0.0474 -0.0556 -0.2229
  177SOPE   H2S20122   4.738   1.220  10.288 -0.7934  1.3464 -0.1043
  177SOPE    C320123   4.838   1.147  10.700 -0.0979  0.0743  0.1914
  177SOPE    HX20124   4.854   1.137  10.810  0.6956 -0.7649  0.0040
  177SOPE    HY20125   4.927   1.107  10.647 -0.3168 -0.8882  0.5397
  177SOPE   O3120126   4.721   1.071  10.671  0.5095 -0.0357  0.4672
  177SOPE   C3120127   4.719   1.000  10.561  0.1575 -0.1358 -1.0630
  177SOPE   O3220128   4.810   0.980  10.486  0.1766  0.2032  0.1018
  177SOPE   C3220129   4.567   0.971  10.535  0.2896 -1.0381 -0.0028
  177SOPE   H2X20130   4.510   1.065  10.517  3.9089  1.0542 -1.2698
  177SOPE   H2Y20131   4.526   0.927  10.628 -3.5709 -1.2735 -1.7262
  177SOPE   C2320132   4.931   1.266  10.182  0.4955  0.3066 -0.2969
  177SOPE   H3R20133   4.924   1.155  10.175 -0.0428  0.2562  0.9692
  177SOPE   H3S20134   5.032   1.305  10.208  1.3628 -2.9109  1.4460
  177SOPE   C2420135   4.874   1.325  10.048  0.5736  0.5328 -0.3851
  177SOPE   H4R20136   4.821   1.250   9.986 -1.0007  1.3911 -0.1070
  177SOPE   H4S20137   4.795   1.399  10.074 -1.2866 -2.0666  1.5664
  177SOPE   C2520138   4.988   1.381   9.965 -0.0271 -0.3380 -0.6749
  177SOPE   H5R20139   5.045   1.448  10.033  0.7960 -2.1675  0.4692
  177SOPE   H5S20140   5.064   1.303   9.940 -0.7975 -1.4402  0.3913
  177SOPE   C2620141   4.939   1.462   9.842  0.3318  0.2727 -0.3800
  177SOPE   H6R20142   4.916   1.399   9.754 -2.6625  0.4842  0.2013
  177SOPE   H6S20143   4.840   1.505   9.869  0.1627 -0.4844  0.2327
  177SOPE   C2720144   5.034   1.581   9.802 -0.0928  0.0936  0.2772
  177SOPE   H7R20145   5.003   1.669   9.862 -1.3400  1.4584 -2.2884
  177SOPE   H7S20146   5.141   1.554   9.812  0.2759  2.0614  1.8373
  177SOPE   C2820147   5.009   1.631   9.655 -0.7491 -0.6382 -0.0699
  177SOPE   H8R20148   4.901   1.649   9.635 -1.1076  0.7312  2.7725
  177SOPE   H8S20149   5.067   1.725   9.656 -0.2850 -0.8814 -2.1955
  177SOPE   C2920150   5.072   1.541   9.561  0.4952  0.4700  0.3692
  177SOPE   H9120151   5.174   1.504   9.580  0.7854  1.2059  0.2641
  177SOPE  C21020152   5.017   1.504   9.445 -0.1968 -0.9966 -0.1614
  177SOPE  H10120153   5.089   1.457   9.377 -0.4513 -0.6793 -0.6486
  177SOPE  C21120154   4.882   1.532   9.387 -0.3629 -0.1826 -0.2651
  177SOPE  H11R20155   4.844   1.631   9.422  2.6887  1.2657 -0.8814
  177SOPE  H11S20156   4.810   1.458   9.427 -0.2877 -0.5638 -0.8466
  177SOPE  C21220157   4.878   1.518   9.236 -0.4971 -0.3937 -0.2114
  177SOPE  H12R20158   4.951   1.585   9.186 -0.8062  0.4065  0.4085
  177SOPE  H12S20159   4.779   1.555   9.201  0.3798  0.7245 -1.5382
  177SOPE  C21320160   4.891   1.385   9.169  0.2105  0.3194 -0.6218
  177SOPE  H13R20161   4.987   1.349   9.214 -0.1718 -1.4141 -1.1358
  177SOPE  H13S20162   4.916   1.398   9.061 -0.1437  0.8546 -0.6396
  177SOPE  C21420163   4.780   1.278   9.176  0.6059  0.5584 -0.1819
  177SOPE  H14R20164   4.676   1.315   9.177  0.4812  0.1911  0.6642
  177SOPE  H14S20165   4.790   1.225   9.273  0.8758 -0.7335 -0.8865
  177SOPE  C21520166   4.796   1.166   9.072  0.3816  0.2803 -0.3753
  177SOPE  H15R20167   4.717   1.092   9.097  0.7619  1.1127  3.6020
  177SOPE  H15S20168   4.890   1.112   9.094 -0.1271 -1.5910 -2.5380
  177SOPE  C21620169   4.788   1.218   8.924 -0.0083 -0.3160 -0.0760
  177SOPE  H16R20170   4.761   1.135   8.855  0.7269 -1.1452  0.6214
  177SOPE  H16S20171   4.882   1.259   8.883 -1.3824  2.2142 -0.8282
  177SOPE  C21720172   4.670   1.318   8.895 -0.9276  0.2867 -0.2797
  177SOPE  H17R20173   4.696   1.410   8.951  0.5863 -0.7834  0.8405
  177SOPE  H17S20174   4.584   1.268   8.944 -0.7704 -0.9137 -1.1820
  177SOPE  C21820175   4.649   1.353   8.752 -0.2695  0.5102 -0.4046
  177SOPE  H18R20176   4.734   1.421   8.729  1.0911 -0.5846  1.2457
  177SOPE  H18S20177   4.555   1.410   8.742  0.1590  1.1462 -0.8130
  177SOPE  H18T20178   4.640   1.267   8.682  1.3546  1.2445 -1.5585
  177SOPE   C3320179   4.535   0.879  10.416  0.0986 -0.2570  0.1002
  177SOPE   H3X20180   4.432   0.838  10.415 -0.1223  0.2749  0.5558
  177SOPE   H3Y20181   4.604   0.793  10.424  1.4302  0.8368  0.6298
  177SOPE   C3420182   4.544   0.954  10.281  0.5581 -0.6976  0.0297
  177SOPE   H4X20183   4.648   0.990  10.273 -0.2769  2.3396  2.0265
  177SOPE   H4Y20184   4.474   1.040  10.280 -2.5520 -3.1066  0.8949
  177SOPE   C3520185   4.517   0.866  10.155  0.1201 -0.0737  0.4233
  177SOPE   H5X20186   4.424   0.806  10.159  0.2488 -0.2977  0.0760
  177SOPE   H5Y20187   4.603   0.795  10.152 -0.3176 -0.5994  0.3424
  177SOPE   C3620188   4.525   0.941  10.029  0.5885  0.5260  0.6107
  177SOPE   H6X20189   4.620   0.997  10.019 -1.1809  3.4840 -0.1610
  177SOPE   H6Y20190   4.453   1.024  10.014  1.5208  0.8281 -2.6509
  177SOPE   C3720191   4.496   0.848   9.905 -0.1891  0.4146 -0.3412
  177SOPE   H7X20192   4.389   0.815   9.905 -0.3202  0.7773  1.8855
  177SOPE   H7Y20193   4.552   0.755   9.926  1.5467  1.8562  1.5959
  177SOPE   C3820194   4.526   0.922   9.771 -0.0314  0.1851 -0.2445
  177SOPE   H8X20195   4.629   0.963   9.781 -0.4741  1.9288 -2.5802
  177SOPE   H8Y20196   4.458   1.008   9.758  0.1550  0.2237 -0.9981
  177SOPE   C3920197   4.501   0.838   9.645 -0.4618  0.0207  0.3710
  177SOPE   H9X20198   4.405   0.783   9.640 -0.0010 -0.5980 -2.4194
  177SOPE   H9Y20199   4.576   0.756   9.639  1.8207  1.8978  1.9815
  177SOPE  C31020200   4.517   0.922   9.516  1.2501 -0.0288 -0.4006
  177SOPE  H10X20201   4.606   0.988   9.514 -0.4348  2.2863 -2.2505
  177SOPE  H10Y20202   4.426   0.984   9.502  2.0093  1.1475 -0.1030
  177SOPE  C31120203   4.523   0.819   9.399  0.1947 -0.4982  0.0669
  177SOPE  H11X20204   4.429   0.760   9.403 -0.6456  0.9165  1.6092
  177SOPE  H11Y20205   4.606   0.746   9.400  2.1561  1.5948 -2.4033
  177SOPE  C31220206   4.540   0.887   9.263 -0.3757  0.5731  0.3957
  177SOPE  H12X20207   4.644   0.922   9.246  1.1893 -4.3501 -0.7195
  177SOPE  H12Y20208   4.457   0.960   9.245 -0.4482 -0.0530 -1.8311
  177SOPE  C31320209   4.522   0.787   9.143  0.8339  1.2548  0.9580
  177SOPE  H13X20210   4.424   0.740   9.165  0.2833  1.6494 -0.6389
  177SOPE  H13Y20211   4.598   0.706   9.156 -0.7513 -0.7762 -1.8743
  177SOPE  C31420212   4.530   0.839   8.995 -0.5558  0.1472 -0.2171
  177SOPE  H14X20213   4.532   0.749   8.930  0.6990  0.2886 -0.3989
  177SOPE  H14Y20214   4.626   0.894   8.978 -0.8357  1.0233  0.9688
  177SOPE  C31520215   4.416   0.927   8.968 -0.4873  0.0936  0.1472
  177SOPE  H15X20216   4.439   1.020   9.024  1.8224  0.0217 -0.6408
  177SOPE  H15Y20217   4.322   0.882   9.005  0.2642 -1.0747  0.6542
  177SOPE  C31620218   4.377   0.955   8.828  0.0156  0.6815  0.7516
  177SOPE  H16X20219   4.298   1.031   8.811  2.3214  2.1683 -4.2529
  177SOPE  H16Y20220   4.350   0.862   8.773 -0.5638  0.0438  2.0866
  177SOPE  C31720221   4.499   0.997   8.741  0.2723  0.2201  0.1947
  177SOPE  H17X20222   4.585   0.929   8.756  0.0004  0.2296  1.9182
  177SOPE  H17Y20223   4.528   1.101   8.766  0.2675  0.2544  0.0585
  177SOPE  C31820224   4.476   0.987   8.590 -0.2175 -0.2945 -0.2830
  177SOPE  H18X20225   4.565   1.034   8.544  1.1879 -2.8307 -0.2293
  177SOPE  H18Y20226   4.395   1.059   8.565  1.1381  1.9127  1.5139
  177SOPE  H18Z20227   4.461   0.884   8.552 -0.2126 -0.6686  0.7105
  178SOPE     N20228   2.096   0.157  10.842  0.4528  0.5321  0.1234
  178SOPE   HN120229   2.177   0.165  10.778 -0.2733  1.8974 -0.6335
  178SOPE   HN220230   2.014   0.151  10.779  0.8685  0.3182 -0.4037
  178SOPE   HN320231   2.091   0.250  10.889  0.8474  0.5178  0.2013
  178SOPE   C1220232   2.097   0.046  10.941  0.2070 -1.2529  0.1482
  178SOPE  H12A20233   2.001   0.051  10.996  0.8849 -2.0837  1.4422
  178SOPE  H12B20234   2.171   0.076  11.019 -1.0265 -0.2405  0.9594
  178SOPE   C1120235   2.149  -0.088  10.887  0.1646 -0.3820 -0.2845
  178SOPE  H11A20236   2.189  -0.152  10.969 -0.0254  0.6633  0.6534
  178SOPE  H11B20237   2.236  -0.065  10.823 -2.1198  1.9309 -2.6688
  178SOPE     P20238   1.976  -0.282  10.853  0.1681  0.1252  0.2240
  178SOPE   O1320239   1.861  -0.304  10.765  0.0067  0.3029  0.0633
  178SOPE   O1420240   1.939  -0.275  10.993 -0.2621 -0.1418  0.0092
  178SOPE   O1220241   2.048  -0.146  10.810  0.2799  0.0677 -0.2354
  178SOPE   O1120242   2.080  -0.403  10.850  0.3846  0.6794  0.1395
  178SOPE    C120243   2.174  -0.424  10.741  0.4484 -0.5462 -0.3344
  178SOPE    HA20244   2.272  -0.451  10.785 -0.5557 -0.2544  2.1739
  178SOPE    HB20245   2.182  -0.335  10.676  0.9148 -0.6560 -0.4249
  178SOPE    C220246   2.144  -0.545  10.651  0.5588  0.0193 -0.2548
  178SOPE    HS20247   2.101  -0.621  10.719 -0.2483  2.4242  2.0134
  178SOPE   O2120248   2.267  -0.589  10.596  0.4344 -0.0571 -0.7892
  178SOPE   C2120249   2.309  -0.715  10.618 -0.4435  0.1558  0.2477
  178SOPE   O2220250   2.244  -0.799  10.676 -0.7665 -0.4915  0.0437
  178SOPE   C2220251   2.441  -0.730  10.548 -0.0711 -0.8582 -0.9168
  178SOPE   H2R20252   2.470  -0.837  10.539 -0.4552 -1.0651  0.2041
  178SOPE   H2S20253   2.519  -0.680  10.610 -0.3372 -0.7079 -0.7058
  178SOPE    C320254   2.038  -0.528  10.543  0.2427 -0.2320  0.0087
  178SOPE    HX20255   1.938  -0.524  10.590 -0.8268 -1.3981 -2.0952
  178SOPE    HY20256   2.034  -0.618  10.478  2.2176 -0.5050  0.2164
  178SOPE   O3120257   2.055  -0.411  10.461  0.7083 -0.3064 -0.2969
  178SOPE   C3120258   2.122  -0.430  10.351  0.2687 -0.3832 -0.1508
  178SOPE   O3220259   2.176  -0.532  10.316  0.1644  0.3236  0.1278
  178SOPE   C3220260   2.121  -0.306  10.261 -0.2845  0.6810  0.4062
  178SOPE   H2X20261   2.105  -0.211  10.317  1.9185  0.9747  0.6012
  178SOPE   H2Y20262   2.031  -0.320  10.198 -1.2137  1.1637  1.6143
  178SOPE   C2320263   2.447  -0.664  10.409  0.7008  0.1531  0.3313
  178SOPE   H3R20264   2.463  -0.555  10.419  1.7980  0.0338 -0.0138
  178SOPE   H3S20265   2.352  -0.678  10.353 -0.0489  1.0531  1.3628
  178SOPE   C2420266   2.569  -0.722  10.330  0.0201  0.4069  0.2901
  178SOPE   H4R20267   2.649  -0.708  10.406 -1.5050 -1.6808  2.3772
  178SOPE   H4S20268   2.557  -0.832  10.321  2.0905  0.1456  0.4003
  178SOPE   C2520269   2.600  -0.663  10.196  0.2674  0.2928 -0.2863
  178SOPE   H5R20270   2.514  -0.665  10.127 -0.6545  1.6818  0.7915
  178SOPE   H5S20271   2.642  -0.560  10.201 -0.3332  0.4696  1.8240
  178SOPE   C2620272   2.720  -0.740  10.130 -0.7107 -0.2788  0.4664
  178SOPE   H6R20273   2.807  -0.727  10.198  0.0217  1.3569 -0.7430
  178SOPE   H6S20274   2.708  -0.850  10.140 -1.1664 -0.3884 -1.1714
  178SOPE   C2720275   2.750  -0.703   9.982  0.0109 -0.0179 -0.9045
  178SOPE   H7R20276   2.678  -0.747   9.910 -1.2859 -0.2566  0.5285
  178SOPE   H7S20277   2.739  -0.593   9.984  0.2450 -0.0227  1.5094
  178SOPE   C2820278   2.898  -0.729   9.949  0.2278  1.0100  0.6450
  178SOPE   H8R20279   2.933  -0.677   9.857 -1.6630 -0.8717 -1.2195
  178SOPE   H8S20280   2.955  -0.682  10.031  1.9776 -0.8021  0.5141
  178SOPE   C2920281   2.938  -0.874   9.943 -0.3735 -0.0334 -0.6696
  178SOPE   H9120282   2.953  -0.922  10.041  0.5967  1.4351 -0.0878
  178SOPE  C21020283   2.948  -0.951   9.836 -0.3390 -0.1028  0.0159
  178SOPE  H10120284   2.985  -1.055   9.841 -0.4857 -0.1777 -0.4089
  178SOPE  C21120285   2.900  -0.913   9.696 -0.2258  0.1141 -0.0603
  178SOPE  H11R20286   2.894  -0.804   9.681  2.9199  0.0616 -2.2529
  178SOPE  H11S20287   2.797  -0.947   9.675 -0.4107  0.2789  0.5666
  178SOPE  C21220288   2.985  -0.963   9.582  0.7763  1.0761  0.4161
  178SOPE  H12R20289   3.015  -1.070   9.588 -0.9529  0.4101 -2.0053
  178SOPE  H12S20290   3.074  -0.896   9.578  1.3865  0.3925  1.9959
  178SOPE  C21320291   2.916  -0.938   9.454 -0.9177  0.5562 -0.5242
  178SOPE  H13R20292   2.874  -0.835   9.457 -0.7664  0.5999  0.2459
  178SOPE  H13S20293   2.846  -1.019   9.426 -1.4037  1.0991 -0.8903
  178SOPE  C21420294   3.019  -0.950   9.343  0.5471 -0.6546 -0.1539
  178SOPE  H14R20295   3.063  -1.052   9.337  1.4937 -0.1910 -1.2609
  178SOPE  H14S20296   3.112  -0.890   9.351  0.7113 -0.8173 -0.7985
  178SOPE  C21520297   2.960  -0.933   9.207 -0.1011 -0.0253 -0.7730
  178SOPE  H15R20298   2.895  -0.843   9.205 -0.5218 -0.3050  0.2090
  178SOPE  H15S20299   2.892  -1.020   9.191 -1.3247  0.6778  0.4793
  178SOPE  C21620300   3.069  -0.931   9.106  0.4934 -0.0281  0.2765
  178SOPE  H16R20301   3.127  -1.026   9.112  2.1774  0.9055 -0.9347
  178SOPE  H16S20302   3.144  -0.852   9.130 -0.1218  0.5779  0.2180
  178SOPE  C21720303   3.023  -0.908   8.959 -0.3832  0.6075  0.3443
  178SOPE  H17R20304   3.024  -0.800   8.934 -1.7368  0.9702  1.7593
  178SOPE  H17S20305   2.925  -0.958   8.944  0.9007 -1.0424 -2.9138
  178SOPE  C21820306   3.121  -0.989   8.863 -0.2946 -0.2609  0.2563
  178SOPE  H18R20307   3.230  -0.970   8.873 -0.0351 -1.7447  0.4073
  178SOPE  H18S20308   3.102  -0.966   8.756 -1.7470 -0.8069  0.3869
  178SOPE  H18T20309   3.107  -1.099   8.876 -0.6823 -0.4163 -1.3394
  178SOPE   C3320310   2.239  -0.310  10.155  0.1855 -0.4573 -0.0890
  178SOPE   H3X20311   2.255  -0.413  10.117  1.1302  0.4594 -2.2274
  178SOPE   H3Y20312   2.332  -0.272  10.202  0.0297 -1.9550  1.4944
  178SOPE   C3420313   2.201  -0.215  10.041  0.0856 -0.5327 -1.0661
  178SOPE   H4X20314   2.188  -0.110  10.073 -1.3222 -0.9646 -0.2076
  178SOPE   H4Y20315   2.102  -0.233   9.995 -0.8373 -0.6883  0.9641
  178SOPE   C3520316   2.307  -0.207   9.931 -0.5988 -0.0664  0.3720
  178SOPE   H5X20317   2.319  -0.303   9.877  1.0378  0.9578 -1.1517
  178SOPE   H5Y20318   2.403  -0.177   9.977 -0.1225  0.9679 -1.2265
  178SOPE   C3620319   2.274  -0.101   9.827 -0.3071 -0.1879 -0.0029
  178SOPE   H6X20320   2.269  -0.002   9.877 -0.9915  0.6369 -1.6890
  178SOPE   H6Y20321   2.171  -0.118   9.789 -1.0047  0.0284  1.7409
  178SOPE   C3720322   2.376  -0.090   9.720  0.3268 -0.0183  0.4990
  178SOPE   H7X20323   2.413  -0.181   9.668  0.0511  1.4514 -2.3400
  178SOPE   H7Y20324   2.474  -0.059   9.763  1.1396 -0.3746 -1.0733
  178SOPE   C3820325   2.342   0.022   9.618  0.1755  0.0195  0.5133
  178SOPE   H8X20326   2.416   0.105   9.618  0.1422  0.0575 -0.0619
  178SOPE   H8Y20327   2.252   0.079   9.651 -0.0662 -0.1184  0.0937
  178SOPE   C3920328   2.304  -0.014   9.474 -0.8094  0.7157 -0.1769
  178SOPE   H9X20329   2.222  -0.088   9.473 -0.1072 -0.1232  1.7643
  178SOPE   H9Y20330   2.386  -0.067   9.421 -0.4473  1.8880 -0.8233
  178SOPE  C31020331   2.266   0.112   9.389 -0.2504  0.3765  0.3037
  178SOPE  H10X20332   2.363   0.164   9.382 -0.2042  0.4362  1.2777
  178SOPE  H10Y20333   2.180   0.165   9.435  2.1060  3.2878  1.4374
  178SOPE  C31120334   2.228   0.062   9.247 -0.1716 -0.0175 -0.0912
  178SOPE  H11X20335   2.183   0.144   9.187 -0.9774  1.4357  2.4428
  178SOPE  H11Y20336   2.163  -0.027   9.259  0.9666 -0.7283  0.9106
  178SOPE  C31220337   2.354   0.018   9.169  0.5019 -0.0054 -0.2304
  178SOPE  H12X20338   2.421  -0.042   9.235  0.9172  0.3532 -0.3281
  178SOPE  H12Y20339   2.407   0.110   9.137 -2.3274  1.9795  0.5194
  178SOPE  C31320340   2.315  -0.067   9.050 -0.5234 -0.1792 -0.3466
  178SOPE  H13X20341   2.246  -0.146   9.087  1.1795 -2.6476 -2.2840
  178SOPE  H13Y20342   2.405  -0.117   9.008 -0.0801 -0.5863  1.0865
  178SOPE  C31420343   2.239   0.005   8.930 -0.6299 -0.3336 -0.1848
  178SOPE  H14X20344   2.146   0.055   8.965  1.0357  1.7604  1.4025
  178SOPE  H14Y20345   2.207  -0.077   8.862  2.7704 -0.8040 -1.3467
  178SOPE  C31520346   2.316   0.114   8.857  0.4570  0.2129  0.4075
  178SOPE  H15X20347   2.416   0.070   8.838  0.7375  1.0214  0.0056
  178SOPE  H15Y20348   2.325   0.208   8.915 -1.1307  0.7722 -0.2105
  178SOPE  C31620349   2.254   0.149   8.721  0.2672 -0.5667  0.1013
  178SOPE  H16X20350   2.154   0.192   8.743  1.0456  2.4197 -1.9687
  178SOPE  H16Y20351   2.239   0.054   8.664 -1.6823 -0.8827  1.0844
  178SOPE  C31720352   2.321   0.256   8.642 -0.0767 -0.0426  0.2464
  178SOPE  H17X20353   2.317   0.349   8.703 -1.2886  0.0279  0.0715
  178SOPE  H17Y20354   2.259   0.274   8.552  0.3252 -0.4833 -0.1226
  178SOPE  C31820355   2.462   0.214   8.592  0.2986 -0.4954 -0.9921
  178SOPE  H18X20356   2.530   0.215   8.680  2.1917  1.2812 -2.3985
  178SOPE  H18Y20357   2.501   0.288   8.519 -0.7000  1.5161  0.4782
  178SOPE  H18Z20358   2.452   0.112   8.548 -2.3164  0.0412 -1.7223
  179SOPE     N20359   0.404   0.285   6.447  0.7683  0.3051 -0.3340
  179SOPE   HN120360   0.405   0.234   6.356 -1.6534  1.7571 -1.2261
  179SOPE   HN220361   0.502   0.282   6.481  0.7285 -3.1401 -0.3412
  179SOPE   HN320362   0.341   0.233   6.511  0.4220 -0.8962 -1.6117
  179SOPE   C1220363   0.350   0.420   6.416  0.8188  0.0595 -0.4044
  179SOPE  H12A20364   0.242   0.407   6.392  0.3100  1.1647  1.2252
  179SOPE  H12B20365   0.403   0.450   6.323  2.3471 -0.2015  0.3651
  179SOPE   C1120366   0.363   0.509   6.542  0.7001  0.0982  0.4495
  179SOPE  H11A20367   0.465   0.514   6.586  0.3083 -3.1266  1.8837
  179SOPE  H11B20368   0.298   0.455   6.614 -2.5024  2.4899 -0.5562
  179SOPE     P20369   0.394   0.760   6.461  0.0423 -0.1962  0.1583
  179SOPE   O1320370   0.307   0.876   6.467 -0.3868  0.4536 -0.7712
  179SOPE   O1420371   0.451   0.722   6.325  0.5715 -0.4391 -0.0929
  179SOPE   O1220372   0.306   0.640   6.520 -0.3814  0.1276 -0.3082
  179SOPE   O1120373   0.513   0.777   6.558 -0.1028  0.3627  0.2297
  179SOPE    C120374   0.492   0.761   6.696 -0.1347 -0.0176 -0.1052
  179SOPE    HA20375   0.500   0.655   6.729  1.3353  0.5973  1.5469
  179SOPE    HB20376   0.395   0.799   6.735 -0.5646  1.3724 -2.4637
  179SOPE    C220377   0.600   0.844   6.774 -0.2730 -0.0482  0.1159
  179SOPE    HS20378   0.700   0.823   6.732 -0.1668 -0.7504  0.7327
  179SOPE   O2120379   0.598   0.820   6.915 -0.2711  0.4827 -0.5078
  179SOPE   C2120380   0.706   0.771   6.976  0.8713 -0.4986  0.1718
  179SOPE   O2220381   0.808   0.738   6.922 -0.3422 -0.1381 -0.1650
  179SOPE   C2220382   0.673   0.755   7.123  0.3101  0.1504 -0.3896
  179SOPE   H2R20383   0.611   0.663   7.121  3.1615 -1.8049 -1.4037
  179SOPE   H2S20384   0.610   0.834   7.168 -0.9452 -1.1113  0.1188
  179SOPE    C320385   0.583   0.991   6.743  0.1173  0.9389 -0.0895
  179SOPE    HX20386   0.485   1.009   6.791 -0.9511  0.8410 -2.1509
  179SOPE    HY20387   0.573   1.019   6.636 -0.0165  0.0345 -0.3218
  179SOPE   O3120388   0.688   1.065   6.811 -0.7439 -0.1343 -0.5386
  179SOPE   C3120389   0.691   1.195   6.781  0.4150 -0.9629  0.3539
  179SOPE   O3220390   0.604   1.243   6.708 -0.1215 -0.2953 -0.2793
  179SOPE   C3220391   0.815   1.268   6.835 -0.3103  0.3871  0.7978
  179SOPE   H2X20392   0.780   1.372   6.854  0.3582  0.7706 -0.0459
  179SOPE   H2Y20393   0.896   1.272   6.759 -0.7505 -2.3573  0.1428
  179SOPE   C2320394   0.786   0.734   7.223 -0.0526 -0.1628 -0.0596
  179SOPE   H3R20395   0.846   0.828   7.230 -1.3980  0.5514  2.0454
  179SOPE   H3S20396   0.866   0.663   7.194  1.8664  1.3821  1.3001
  179SOPE   C2420397   0.735   0.706   7.367 -0.4401  0.2928 -0.1262
  179SOPE   H4R20398   0.638   0.755   7.389 -0.4691  0.1158  0.1464
  179SOPE   H4S20399   0.729   0.597   7.387  0.9126  0.2279 -0.0085
  179SOPE   C2520400   0.822   0.747   7.490  0.1346  0.4371 -0.3860
  179SOPE   H5R20401   0.911   0.684   7.514 -0.4168  0.3021  1.3092
  179SOPE   H5S20402   0.863   0.851   7.489  0.1360  0.4327 -1.2631
  179SOPE   C2620403   0.736   0.758   7.617 -0.3661  0.4264  0.2142
  179SOPE   H6R20404   0.686   0.857   7.616 -1.4405 -0.1124 -1.0797
  179SOPE   H6S20405   0.658   0.680   7.605 -1.1519  1.5758 -2.5419
  179SOPE   C2720406   0.804   0.740   7.744  0.3849  0.1130 -0.4071
  179SOPE   H7R20407   0.848   0.638   7.746 -1.7504 -0.7962  1.3661
  179SOPE   H7S20408   0.892   0.808   7.749 -0.3206  0.9902  0.0272
  179SOPE   C2820409   0.709   0.747   7.864  0.5637  0.2258  0.0826
  179SOPE   H8R20410   0.659   0.846   7.866 -0.3208 -0.2327  1.2629
  179SOPE   H8S20411   0.628   0.671   7.857 -1.1600  1.8740  1.4083
  179SOPE   C2920412   0.778   0.718   7.997 -0.0992 -0.2180 -0.5590
  179SOPE   H9120413   0.852   0.797   8.018 -0.7974 -0.0444  1.3547
  179SOPE  C21020414   0.756   0.609   8.079  0.6863  0.7329 -0.1007
  179SOPE  H10120415   0.809   0.606   8.175 -0.3318 -0.2876  0.4306
  179SOPE  C21120416   0.654   0.497   8.054 -0.0601 -0.2138 -0.0624
  179SOPE  H11R20417   0.616   0.514   7.952  3.9640 -0.4601 -1.7096
  179SOPE  H11S20418   0.575   0.497   8.133  0.6791 -3.6888  0.7615
  179SOPE  C21220419   0.720   0.360   8.054  0.1065 -0.3135 -0.5397
  179SOPE  H12R20420   0.801   0.367   7.978  1.4923  2.9360  1.1493
  179SOPE  H12S20421   0.640   0.291   8.022  1.8289 -3.3209  1.3846
  179SOPE  C21320422   0.762   0.318   8.192  0.4001 -0.3076 -0.0663
  179SOPE  H13R20423   0.680   0.329   8.265 -0.0052 -1.0547 -0.4096
  179SOPE  H13S20424   0.838   0.394   8.221 -0.3804  0.4364  0.0514
  179SOPE  C21420425   0.807   0.169   8.181 -0.2163  0.4997  0.0843
  179SOPE  H14R20426   0.896   0.160   8.114  0.0119  2.7592  0.0316
  179SOPE  H14S20427   0.726   0.111   8.133  0.7174 -3.7595  3.3578
  179SOPE  C21520428   0.847   0.110   8.319 -0.6563  0.9169 -0.7270
  179SOPE  H15R20429   0.764   0.103   8.392 -2.7173 -1.4920 -3.2129
  179SOPE  H15S20430   0.923   0.171   8.372 -0.0610 -1.2072  0.9422
  179SOPE  C21620431   0.911  -0.029   8.310 -0.8018  0.4326 -1.0545
  179SOPE  H16R20432   0.999  -0.022   8.242 -1.2133 -0.0750 -1.6490
  179SOPE  H16S20433   0.839  -0.093   8.254 -0.4281 -2.8206  1.9814
  179SOPE  C21720434   0.933  -0.082   8.456  0.4115  0.1055 -0.1316
  179SOPE  H17R20435   0.837  -0.093   8.509  0.2824  0.0831 -0.3711
  179SOPE  H17S20436   1.015  -0.020   8.498 -0.7272  1.2672  0.4064
  179SOPE  C21820437   0.986  -0.223   8.444  0.0198 -0.2823  0.0302
  179SOPE  H18R20438   0.989  -0.275   8.542 -0.1807 -0.7064 -0.1884
  179SOPE  H18S20439   1.089  -0.222   8.402 -0.5233 -0.8260 -1.3282
  179SOPE  H18T20440   0.915  -0.269   8.373 -0.1639 -0.2259  0.1762
  179SOPE   C3320441   0.858   1.213   6.970 -0.1397 -0.6171 -0.0704
  179SOPE   H3X20442   0.954   1.250   7.011 -0.7020  0.6228  0.1406
  179SOPE   H3Y20443   0.871   1.103   6.967 -0.2598 -0.6927  1.7062
  179SOPE   C3420444   0.757   1.246   7.079  0.5508 -0.1672 -0.4089
  179SOPE   H4X20445   0.659   1.209   7.043 -0.6878  1.3176  1.3851
  179SOPE   H4Y20446   0.751   1.356   7.093 -0.6502 -0.3191  0.2921
  179SOPE   C3520447   0.790   1.183   7.216  0.1001 -0.1085 -0.9883
  179SOPE   H5X20448   0.896   1.199   7.243 -1.2389  1.5311  3.8522
  179SOPE   H5Y20449   0.764   1.076   7.202 -2.7608  0.3017  0.7918
  179SOPE   C3620450   0.697   1.248   7.320  0.1929 -0.0395 -0.1846
  179SOPE   H6X20451   0.590   1.227   7.299  0.5136 -1.0647 -0.8310
  179SOPE   H6Y20452   0.703   1.359   7.323  2.8100 -0.1620  0.6727
  179SOPE   C3720453   0.720   1.202   7.468 -0.4977 -0.5659  0.4780
  179SOPE   H7X20454   0.830   1.211   7.487  0.1393 -0.4888 -2.9175
  179SOPE   H7Y20455   0.706   1.093   7.476  0.6558 -0.7901 -0.3494
  179SOPE   C3820456   0.650   1.287   7.577  0.0063 -0.2457  0.1768
  179SOPE   H8X20457   0.543   1.258   7.582  1.2538 -4.9526  2.0468
  179SOPE   H8Y20458   0.649   1.395   7.554 -1.0351 -0.2711  0.0552
  179SOPE   C3920459   0.690   1.268   7.718 -0.2075 -0.3567 -0.3639
  179SOPE   H9X20460   0.620   1.321   7.786  0.3726  0.0142 -0.0479
  179SOPE   H9Y20461   0.787   1.317   7.741  1.8666 -3.8148 -1.3841
  179SOPE  C31020462   0.701   1.125   7.769 -0.9105  0.1429 -0.4259
  179SOPE  H10X20463   0.779   1.074   7.709 -0.3491  1.7208 -1.0634
  179SOPE  H10Y20464   0.606   1.067   7.768 -1.0330  0.3491 -1.9772
  179SOPE  C31120465   0.753   1.123   7.917  0.3871 -0.5496 -0.0720
  179SOPE  H11X20466   0.843   1.183   7.942  1.5283 -1.1103 -2.6502
  179SOPE  H11Y20467   0.789   1.019   7.925  0.5957 -0.6416 -1.8680
  179SOPE  C31220468   0.643   1.119   8.018  0.2771 -0.2572  0.0274
  179SOPE  H12X20469   0.561   1.050   7.988 -1.9453  2.4438 -0.3903
  179SOPE  H12Y20470   0.588   1.216   8.016  1.4351  0.3936 -2.6532
  179SOPE  C31320471   0.687   1.102   8.162  0.8212  0.7192  0.2789
  179SOPE  H13X20472   0.770   1.171   8.191  1.4780  0.2663 -0.4928
  179SOPE  H13Y20473   0.734   1.003   8.180 -0.5893 -0.0597 -0.2276
  179SOPE  C31420474   0.578   1.131   8.261 -0.3014 -0.3785 -0.2604
  179SOPE  H14X20475   0.558   1.240   8.256 -2.6547 -0.7461  0.5481
  179SOPE  H14Y20476   0.611   1.122   8.367 -1.4476  2.4807  0.3732
  179SOPE  C31520477   0.446   1.054   8.248  0.4380  0.7293  0.8932
  179SOPE  H15X20478   0.395   1.093   8.157  1.3030  0.1586  0.1601
  179SOPE  H15Y20479   0.378   1.075   8.334 -0.6107 -0.0502  0.2804
  179SOPE  C31620480   0.464   0.900   8.232  0.3795 -0.3385 -0.2326
  179SOPE  H16X20481   0.517   0.866   8.324  1.9788  2.6467  0.0165
  179SOPE  H16Y20482   0.525   0.872   8.144  1.5983  0.1861  0.4247
  179SOPE  C31720483   0.331   0.825   8.228  0.0550  0.0975 -0.0392
  179SOPE  H17X20484   0.358   0.727   8.182 -0.4764  0.6626 -1.5851
  179SOPE  H17Y20485   0.263   0.873   8.154 -0.7201 -0.7502  0.1156
  179SOPE  C31820486   0.257   0.795   8.360  0.5956  0.2737 -0.5899
  179SOPE  H18X20487   0.176   0.720   8.347  0.1079  0.7555 -0.3827
  179SOPE  H18Y20488   0.209   0.887   8.402  1.6998  0.7182 -0.2780
  179SOPE  H18Z20489   0.319   0.754   8.442 -1.5778 -1.1172  0.4143
  180SOPE     N20490   6.650   1.055   6.178 -0.2656  0.0233  0.1457
  180SOPE   HN120491   6.664   0.988   6.099  1.7302 -0.5774  0.9559
  180SOPE   HN220492   6.627   1.152   6.150  0.1707 -0.1489 -0.8335
  180SOPE   HN320493   6.745   1.055   6.221  0.2075 -1.7399 -0.8244
  180SOPE   C1220494   6.558   0.998   6.286 -0.2051  0.1342  0.8685
  180SOPE  H12A20495   6.462   0.976   6.233 -0.4516  1.0651  0.9138
  180SOPE  H12B20496   6.545   1.081   6.360  1.7605 -0.0512  1.4385
  180SOPE   C1120497   6.616   0.877   6.349 -0.7841  0.1957 -0.5862
  180SOPE  H11A20498   6.548   0.832   6.424 -0.2691 -1.4305 -1.0756
  180SOPE  H11B20499   6.707   0.918   6.399 -0.2573  0.3807 -1.6795
  180SOPE     P20500   6.589   0.651   6.222 -0.4397 -0.4007  0.3191
  180SOPE   O1320501   6.690   0.561   6.159  0.2416  0.7738 -0.4615
  180SOPE   O1420502   6.476   0.686   6.136 -0.2529 -0.4404 -0.5888
  180SOPE   O1220503   6.656   0.780   6.257  0.7711 -0.0291  0.1519
  180SOPE   O1120504   6.545   0.585   6.356  0.0088  0.3811 -0.0355
  180SOPE    C120505   6.637   0.524   6.444  0.1249  0.0255 -0.1854
  180SOPE    HA20506   6.735   0.495   6.399  0.0889  0.3141 -0.4506
  180SOPE    HB20507   6.602   0.424   6.476 -0.9760  0.5541  0.2826
  180SOPE    C220508   6.648   0.612   6.575  0.2033 -0.5963 -0.0236
  180SOPE    HS20509   6.701   0.705   6.546 -1.2122  0.9674  2.2948
  180SOPE   O2120510   6.735   0.535   6.662  0.5580 -0.1332 -0.0842
  180SOPE   C2120511   6.824   0.596   6.739  0.4102 -0.3442  0.0706
  180SOPE   O2220512   6.838   0.718   6.743  0.3153  0.3495 -0.9543
  180SOPE   C2220513   6.888   0.486   6.835 -0.5508 -0.6696  0.1854
  180SOPE   H2R20514   6.925   0.410   6.764  0.9901  0.8466 -0.6769
  180SOPE   H2S20515   6.817   0.441   6.908 -1.1008  0.7587  0.5445
  180SOPE    C320516   6.507   0.643   6.640 -0.0445  0.0112  0.2769
  180SOPE    HX20517   6.449   0.548   6.643  1.0799 -0.6608  1.3239
  180SOPE    HY20518   6.453   0.712   6.572 -1.9420 -2.3941 -0.6971
  180SOPE   O3120519   6.513   0.687   6.776  0.4523 -0.1483 -0.2423
  180SOPE   C3120520   6.533   0.819   6.794 -0.2206  0.1201  0.0789
  180SOPE   O3220521   6.540   0.898   6.704  0.6179 -0.2749 -0.6365
  180SOPE   C3220522   6.540   0.859   6.940 -0.4200 -0.2690  0.8177
  180SOPE   H2X20523   6.624   0.800   6.983 -0.1842 -1.3937 -1.1340
  180SOPE   H2Y20524   6.446   0.829   6.991  1.6577 -5.7101  1.7790
  180SOPE   C2320525   7.005   0.549   6.912  0.0089  0.0004  0.0318
  180SOPE   H3R20526   6.979   0.648   6.955  1.1176  0.8768 -1.2805
  180SOPE   H3S20527   7.088   0.564   6.840 -1.4258  3.2530 -1.0576
  180SOPE   C2420528   7.044   0.468   7.028  0.3926  0.7764 -0.3531
  180SOPE   H4R20529   7.074   0.369   6.989 -3.3908  0.1446 -1.8619
  180SOPE   H4S20530   7.134   0.521   7.069  0.3712  0.0444  0.6624
  180SOPE   C2520531   6.946   0.461   7.143  0.4205 -0.2512 -0.3693
  180SOPE   H5R20532   6.846   0.421   7.116  0.5374 -0.2910 -0.7473
  180SOPE   H5S20533   6.991   0.381   7.205  1.2375  1.1302  0.8607
  180SOPE   C2620534   6.927   0.577   7.242 -0.4636  0.3165  0.5543
  180SOPE   H6R20535   7.023   0.606   7.290 -1.2187  1.9224  1.1570
  180SOPE   H6S20536   6.898   0.670   7.187  0.1271 -0.4878 -1.1590
  180SOPE   C2720537   6.827   0.566   7.350  0.1179  0.1843 -0.0187
  180SOPE   H7R20538   6.808   0.662   7.403 -0.7246  0.0010  0.0169
  180SOPE   H7S20539   6.732   0.534   7.303 -0.0875 -0.1113  0.6026
  180SOPE   C2820540   6.870   0.477   7.469  0.3906  0.4204  0.3060
  180SOPE   H8R20541   6.979   0.486   7.485  0.2172  1.3152  1.0195
  180SOPE   H8S20542   6.838   0.515   7.568 -0.9372  1.5713 -0.5289
  180SOPE   C2920543   6.823   0.337   7.442 -0.4165 -0.2188 -0.4669
  180SOPE   H9120544   6.899   0.283   7.384  0.7983 -0.3031  1.1836
  180SOPE  C21020545   6.711   0.276   7.483  0.0827 -0.3040  0.0664
  180SOPE  H10120546   6.692   0.172   7.452  2.3845  0.0659 -2.8416
  180SOPE  C21120547   6.595   0.341   7.561  0.1143  0.0606 -0.4181
  180SOPE  H11R20548   6.494   0.322   7.519 -0.5062  0.1254  0.9910
  180SOPE  H11S20549   6.608   0.450   7.540  0.9712  0.1858  0.6890
  180SOPE  C21220550   6.604   0.342   7.715 -0.2025  0.2543 -0.3675
  180SOPE  H12R20551   6.511   0.392   7.748  1.1729  1.4919  1.7268
  180SOPE  H12S20552   6.693   0.402   7.743 -1.1314  0.4003  2.4324
  180SOPE  C21320553   6.592   0.198   7.772 -0.2230 -0.8730 -0.5451
  180SOPE  H13R20554   6.598   0.199   7.883 -0.2719  1.9945 -0.5330
  180SOPE  H13S20555   6.677   0.134   7.740  0.3719  0.1347 -1.0333
  180SOPE  C21420556   6.462   0.132   7.727 -0.0662 -0.3374  0.3675
  180SOPE  H14R20557   6.469   0.117   7.617  0.9025  0.1453  0.3566
  180SOPE  H14S20558   6.370   0.187   7.756 -1.0140 -2.1959  1.0027
  180SOPE  C21520559   6.449  -0.003   7.809 -0.0810  0.4599  0.2156
  180SOPE  H15R20560   6.542  -0.061   7.793 -1.5379 -1.5058 -1.2560
  180SOPE  H15S20561   6.366  -0.063   7.768 -1.5889  2.8553 -0.3462
  180SOPE  C21620562   6.421   0.017   7.955 -0.0593 -1.2204 -0.3995
  180SOPE  H16R20563   6.323   0.066   7.970  0.6131 -0.1548  0.5897
  180SOPE  H16S20564   6.496   0.083   8.004  0.4967 -0.5153 -2.1770
  180SOPE  C21720565   6.425  -0.117   8.034  0.0433 -0.7756  0.2583
  180SOPE  H17R20566   6.342  -0.172   7.984 -0.8423  0.5752  0.2089
  180SOPE  H17S20567   6.403  -0.117   8.143  3.2321 -0.8725  0.9340
  180SOPE  C21820568   6.552  -0.201   8.019  0.5177 -0.2691  0.1772
  180SOPE  H18R20569   6.584  -0.233   7.918 -0.9501  0.0604 -0.4137
  180SOPE  H18S20570   6.538  -0.298   8.073  2.7081 -0.9710 -0.4761
  180SOPE  H18T20571   6.638  -0.147   8.062 -0.7400  1.1438  0.9559
  180SOPE   C3320572   6.564   1.003   6.960 -0.2313  0.3356 -0.2991
  180SOPE   H3X20573   6.499   1.066   6.896  0.1469 -0.5574 -1.5993
  180SOPE   H3Y20574   6.659   1.048   6.926 -0.3775  0.1518 -0.9556
  180SOPE   C3420575   6.519   1.050   7.100 -0.5754 -0.2240  0.2897
  180SOPE   H4X20576   6.564   0.985   7.178  1.8263  1.7723  0.6386
  180SOPE   H4Y20577   6.408   1.043   7.105 -0.4175 -2.4566  1.4927
  180SOPE   C3520578   6.571   1.193   7.135 -0.7739 -0.7163 -0.2333
  180SOPE   H5X20579   6.532   1.257   7.053 -1.6920  1.0944  1.5723
  180SOPE   H5Y20580   6.679   1.213   7.119 -1.0836  2.4360  1.1298
  180SOPE   C3620581   6.510   1.235   7.274  0.1082  0.2723  0.5310
  180SOPE   H6X20582   6.542   1.168   7.357  0.0135 -1.6754 -0.9628
  180SOPE   H6Y20583   6.399   1.227   7.266  0.3676  0.9163 -6.3688
  180SOPE   C3720584   6.544   1.387   7.303 -0.0384  0.4362 -0.7785
  180SOPE   H7X20585   6.529   1.456   7.218 -1.2016  1.2278  0.0755
  180SOPE   H7Y20586   6.654   1.388   7.321 -0.2317  3.5362  0.3969
  180SOPE   C3820587   6.464   1.445   7.425 -0.0337  0.8308  0.3151
  180SOPE   H8X20588   6.356   1.439   7.398 -0.2231 -2.7001  1.5381
  180SOPE   H8Y20589   6.483   1.553   7.443 -0.3229  0.7639  1.0457
  180SOPE   C3920590   6.481   1.375   7.556  0.9420 -0.7605  0.2796
  180SOPE   H9X20591   6.579   1.399   7.602 -0.0775 -0.8473  2.5443
  180SOPE   H9Y20592   6.475   1.266   7.536 -1.3452 -0.8629  1.2986
  180SOPE  C31020593   6.381   1.409   7.671 -0.8446  0.2864 -0.0435
  180SOPE  H10X20594   6.284   1.443   7.630  0.0446 -0.8978 -3.2587
  180SOPE  H10Y20595   6.409   1.493   7.738 -2.1671 -2.1586  3.7407
  180SOPE  C31120596   6.341   1.289   7.751  0.3333 -0.9119 -0.6594
  180SOPE  H11X20597   6.273   1.222   7.694 -2.8398  1.7176 -0.0725
  180SOPE  H11Y20598   6.271   1.310   7.835 -0.5904 -1.5695 -1.2637
  180SOPE  C31220599   6.458   1.204   7.811  0.0090 -0.4730  0.0669
  180SOPE  H12X20600   6.549   1.265   7.831  0.6849 -1.4670  0.1055
  180SOPE  H12Y20601   6.476   1.134   7.726 -1.2048 -0.8425  0.1136
  180SOPE  C31320602   6.419   1.124   7.934  0.1566  0.6798 -0.4494
  180SOPE  H13X20603   6.412   1.201   8.014 -0.0192  1.5929 -1.3393
  180SOPE  H13Y20604   6.503   1.056   7.962  0.9604  2.3729  1.3866
  180SOPE  C31420605   6.293   1.035   7.921  0.3841  0.1626 -1.2039
  180SOPE  H14X20606   6.295   0.958   7.841 -0.3112  0.7330 -1.7778
  180SOPE  H14Y20607   6.203   1.099   7.914  0.8105  0.8117 -0.7364
  180SOPE  C31520608   6.271   0.957   8.055  0.1216  0.1601 -0.1067
  180SOPE  H15X20609   6.278   1.029   8.139  1.5668  0.0933 -0.1680
  180SOPE  H15Y20610   6.352   0.881   8.063 -1.5349 -1.9231 -2.2766
  180SOPE  C31620611   6.141   0.876   8.049  0.2585 -0.3372  0.2292
  180SOPE  H16X20612   6.112   0.850   7.945  2.6616  2.3696 -1.1998
  180SOPE  H16Y20613   6.065   0.948   8.085  1.1668  0.8379 -0.1767
  180SOPE  C31720614   6.140   0.747   8.133  0.3934 -0.4380  0.6838
  180SOPE  H17X20615   6.215   0.673   8.096  2.0816  1.9311 -0.8230
  180SOPE  H17Y20616   6.040   0.701   8.122  0.7180 -0.9707 -0.1390
  180SOPE  C31820617   6.163   0.779   8.283  0.2355 -0.0909  0.1133
  180SOPE  H18X20618   6.270   0.795   8.307  0.8560 -0.2640 -2.4062
  180SOPE  H18Y20619   6.146   0.686   8.342 -0.4564 -0.3584 -0.5044
  180SOPE  H18Z20620   6.103   0.864   8.323  1.3619  1.9345 -2.3408
  181SOPE     N20621   6.421   5.411   5.913 -0.2726 -0.3054  0.2476
  181SOPE   HN120622   6.415   5.489   5.846 -1.0726  0.8695  1.6648
  181SOPE   HN220623   6.457   5.332   5.855  0.8676  0.0053  0.5234
  181SOPE   HN320624   6.322   5.393   5.939 -0.2598  1.3337  1.4854
  181SOPE   C1220625   6.507   5.445   6.035  0.5234 -0.4455 -0.5491
  181SOPE  H12A20626   6.480   5.371   6.113 -0.1935 -0.1189 -0.4854
  181SOPE  H12B20627   6.463   5.543   6.063  0.8166  0.7825 -4.1832
  181SOPE   C1120628   6.652   5.461   6.015  0.3876 -0.0164  0.2133
  181SOPE  H11A20629   6.684   5.531   6.095 -1.4629 -0.2628  1.1956
  181SOPE  H11B20630   6.672   5.508   5.916  1.2336 -0.5842  0.1081
  181SOPE     P20631   6.735   5.228   5.931  0.0139 -0.3620  0.4848
  181SOPE   O1320632   6.822   5.274   5.818 -0.0418 -0.1140 -0.4665
  181SOPE   O1420633   6.600   5.188   5.881  0.0719 -0.1836 -0.3270
  181SOPE   O1220634   6.730   5.345   6.037 -0.2279  0.3156 -0.1839
  181SOPE   O1120635   6.805   5.115   6.021 -0.0750 -0.6904 -0.0161
  181SOPE    C120636   6.926   5.126   6.098 -0.3079 -0.0689  0.7312
  181SOPE    HA20637   6.981   5.220   6.081  1.8197 -0.6993  3.8092
  181SOPE    HB20638   6.991   5.043   6.064  1.9172  1.4129  1.2873
  181SOPE    C220639   6.901   5.111   6.249 -0.3238  0.3156  0.0632
  181SOPE    HS20640   6.841   5.019   6.266  0.7313 -0.7742 -1.9850
  181SOPE   O2120641   6.858   5.236   6.308  0.4068 -0.4621 -0.2148
  181SOPE   C2120642   6.727   5.242   6.320  0.5825 -0.1807  0.4050
  181SOPE   O2220643   6.653   5.148   6.298 -0.8061  0.0391 -0.3191
  181SOPE   C2220644   6.684   5.372   6.375  0.6243 -0.6241  0.5753
  181SOPE   H2R20645   6.662   5.451   6.300 -1.4981 -1.5599  0.2038
  181SOPE   H2S20646   6.773   5.412   6.429  1.6234  0.3698 -1.7500
  181SOPE    C320647   7.036   5.072   6.326 -0.0908 -0.2564 -0.4263
  181SOPE    HX20648   7.112   5.153   6.318 -2.2824  2.2062  2.6473
  181SOPE    HY20649   7.084   4.986   6.274  1.5955  0.6594 -0.4442
  181SOPE   O3120650   7.011   5.030   6.463  0.3937  0.8622  0.5029
  181SOPE   C3120651   7.055   5.110   6.556  0.1782 -0.6560 -0.8752
  181SOPE   O3220652   7.076   5.225   6.536 -1.1672 -0.8050  0.1055
  181SOPE   C3220653   7.068   5.035   6.685  0.0319  0.0383 -0.3395
  181SOPE   H2X20654   7.000   4.948   6.689 -0.3771  0.4016  1.3880
  181SOPE   H2Y20655   7.026   5.101   6.765 -1.9100 -2.6336  0.9101
  181SOPE   C2320656   6.567   5.365   6.473 -0.3472  0.2045  0.3097
  181SOPE   H3R20657   6.495   5.283   6.450 -0.2621 -0.6773  3.0399
  181SOPE   H3S20658   6.519   5.464   6.457  3.0546  1.9975  0.6286
  181SOPE   C2420659   6.612   5.366   6.616 -0.3659 -0.4919 -0.6774
  181SOPE   H4R20660   6.701   5.431   6.633 -0.0064 -1.1298 -0.0453
  181SOPE   H4S20661   6.533   5.388   6.691 -1.3546 -1.7131 -1.3365
  181SOPE   C2520662   6.653   5.226   6.661 -0.1031  0.4604  0.0325
  181SOPE   H5R20663   6.578   5.147   6.641  1.0767 -0.2515 -1.6618
  181SOPE   H5S20664   6.740   5.185   6.605 -2.1265 -0.9750 -2.1158
  181SOPE   C2620665   6.682   5.224   6.812 -0.4406  0.4150 -0.8305
  181SOPE   H6R20666   6.592   5.261   6.865  1.0181  1.6037  0.9267
  181SOPE   H6S20667   6.687   5.120   6.850 -3.1554  0.5161 -0.1483
  181SOPE   C2720668   6.817   5.298   6.854  0.3825  0.0218 -0.2241
  181SOPE   H7R20669   6.896   5.256   6.788 -2.6633  0.3300 -4.2439
  181SOPE   H7S20670   6.809   5.400   6.811  0.1738  0.1587  0.1338
  181SOPE   C2820671   6.857   5.302   7.003 -0.5167  0.4246 -0.4377
  181SOPE   H8R20672   6.905   5.208   7.036  1.4000  1.5778  0.1390
  181SOPE   H8S20673   6.939   5.376   7.015 -2.4349  2.5237  0.1878
  181SOPE   C2920674   6.755   5.348   7.103  0.0274  0.7212 -0.1870
  181SOPE   H9120675   6.680   5.416   7.062  0.2019  1.2697  0.3914
  181SOPE  C21020676   6.747   5.315   7.240  0.1071  0.0616  0.0802
  181SOPE  H10120677   6.663   5.360   7.294  2.2495  2.1644  1.7436
  181SOPE  C21120678   6.837   5.227   7.311  0.6460  0.5016 -0.2176
  181SOPE  H11R20679   6.923   5.206   7.244  0.0502  1.6678 -1.3700
  181SOPE  H11S20680   6.794   5.124   7.316 -4.2144  2.4692  1.6208
  181SOPE  C21220681   6.874   5.271   7.458  0.9514  0.0464 -0.1270
  181SOPE  H12R20682   6.778   5.280   7.514  1.9983  0.0296  1.7246
  181SOPE  H12S20683   6.922   5.371   7.470  1.7717 -0.1739 -1.5506
  181SOPE  C21320684   6.965   5.173   7.538  0.1821  0.1840  0.0312
  181SOPE  H13R20685   7.065   5.170   7.489  0.2723 -1.9067  0.3194
  181SOPE  H13S20686   6.917   5.074   7.553 -0.5480  0.5064 -0.1806
  181SOPE  C21420687   6.984   5.231   7.684  0.0057  0.4489 -0.1051
  181SOPE  H14R20688   7.023   5.335   7.682 -2.1225  1.2659 -3.0110
  181SOPE  H14S20689   7.055   5.171   7.746  1.0055  0.7154 -0.9831
  181SOPE  C21520690   6.849   5.227   7.759  0.0626 -0.1131 -0.2456
  181SOPE  H15R20691   6.814   5.123   7.779 -1.3403  0.2536 -0.6949
  181SOPE  H15S20692   6.768   5.280   7.705 -2.5367 -1.8617  1.7847
  181SOPE  C21620693   6.869   5.305   7.892 -0.3572 -0.4160 -0.9939
  181SOPE  H16R20694   6.977   5.317   7.916 -0.4420  1.0504 -1.3339
  181SOPE  H16S20695   6.819   5.254   7.977 -1.2802  1.5306 -0.3391
  181SOPE  C21720696   6.793   5.436   7.892  0.2056  0.2056  0.6426
  181SOPE  H17R20697   6.690   5.426   7.852  1.0732  1.2783 -1.9244
  181SOPE  H17S20698   6.862   5.503   7.837 -1.2815  0.4764 -0.9265
  181SOPE  C21820699   6.774   5.492   8.038 -0.2824 -0.5643 -0.2180
  181SOPE  H18R20700   6.717   5.587   8.030 -0.0687 -0.4036  0.1621
  181SOPE  H18S20701   6.871   5.508   8.089 -0.9501 -2.5841  1.7682
  181SOPE  H18T20702   6.714   5.415   8.091 -0.9467 -0.6097 -1.0313
  181SOPE   C3320703   7.207   4.981   6.719 -0.5522 -0.4604  0.3040
  181SOPE   H3X20704   7.277   5.068   6.719 -2.4957  1.1540  2.1607
  181SOPE   H3Y20705   7.232   4.913   6.635 -3.4503 -1.2162  0.0292
  181SOPE   C3420706   7.222   4.907   6.857 -0.8495 -0.1885 -0.2228
  181SOPE   H4X20707   7.325   4.869   6.869 -0.6495  0.4513  0.0980
  181SOPE   H4Y20708   7.142   4.834   6.881 -1.0306  0.4107  1.0145
  181SOPE   C3520709   7.202   5.002   6.969 -0.5442  0.1340  0.6559
  181SOPE   H5X20710   7.101   5.046   6.982 -1.9383 -2.1390 -1.9426
  181SOPE   H5Y20711   7.266   5.089   6.944 -2.3263  1.1145 -0.6104
  181SOPE   C3620712   7.226   4.935   7.106 -0.1059 -0.2375 -0.5713
  181SOPE   H6X20713   7.323   4.881   7.100 -1.8632 -3.5629  0.0894
  181SOPE   H6Y20714   7.138   4.871   7.126  1.1220 -1.1632  2.1293
  181SOPE   C3720715   7.247   5.037   7.220 -0.3913 -0.3036 -0.4698
  181SOPE   H7X20716   7.143   5.062   7.251  0.3946  1.7480  0.5699
  181SOPE   H7Y20717   7.307   5.122   7.181  1.2447 -0.7012  1.1239
  181SOPE   C3820718   7.307   4.969   7.339  0.0941 -0.2803  0.0051
  181SOPE   H8X20719   7.398   4.915   7.304 -1.5031 -2.2124 -1.2989
  181SOPE   H8Y20720   7.233   4.896   7.378 -0.7806  0.2163 -0.7006
  181SOPE   C3920721   7.344   5.061   7.458  0.4970  0.1779 -0.1504
  181SOPE   H9X20722   7.266   5.140   7.465 -0.6124 -0.9774  0.9198
  181SOPE   H9Y20723   7.438   5.109   7.426  0.4520  0.6794  0.4410
  181SOPE  C31020724   7.349   4.987   7.593 -0.2143 -0.3769 -0.2003
  181SOPE  H10X20725   7.421   4.902   7.591  2.2172  1.6612 -2.2315
  181SOPE  H10Y20726   7.250   4.938   7.606  0.7208 -1.8194  1.6654
  181SOPE  C31120727   7.376   5.076   7.712 -0.7542  0.3485  0.2517
  181SOPE  H11X20728   7.290   5.146   7.724 -2.4933 -1.4929 -1.0643
  181SOPE  H11Y20729   7.474   5.127   7.695 -1.0906  0.2914 -2.0478
  181SOPE  C31220730   7.379   4.974   7.835 -0.3162 -0.0525 -0.1446
  181SOPE  H12X20731   7.439   4.882   7.820  3.1010  2.5311 -3.0316
  181SOPE  H12Y20732   7.274   4.938   7.833  0.1519 -1.4231 -1.8436
  181SOPE  C31320733   7.414   5.032   7.966 -0.1431  0.6621  0.2233
  181SOPE  H13X20734   7.521   5.061   7.965 -0.2200  0.9848  1.0974
  181SOPE  H13Y20735   7.390   4.956   8.043  0.7066  0.5692  0.3991
  181SOPE  C31420736   7.336   5.165   7.994  0.5639  0.2012 -0.4353
  181SOPE  H14X20737   7.233   5.174   7.952  0.1481  0.5528  0.6581
  181SOPE  H14Y20738   7.393   5.238   7.933  0.8335 -1.0671 -1.7337
  181SOPE  C31520739   7.339   5.211   8.142  0.3774 -0.2256  0.3171
  181SOPE  H15X20740   7.448   5.216   8.164  0.7029 -2.3527 -0.6977
  181SOPE  H15Y20741   7.299   5.135   8.213 -1.4714  1.7412  1.4548
  181SOPE  C31620742   7.284   5.353   8.155 -0.5099 -0.0045 -0.7152
  181SOPE  H16X20743   7.175   5.334   8.156 -0.4756 -0.1740 -0.0854
  181SOPE  H16Y20744   7.307   5.426   8.075  0.3745  1.9504  1.2578
  181SOPE  C31720745   7.309   5.423   8.293 -0.2203  0.4547  0.8546
  181SOPE  H17X20746   7.410   5.468   8.282 -0.5391  1.1097  0.5496
  181SOPE  H17Y20747   7.312   5.339   8.365 -0.0666 -1.3865 -1.2295
  181SOPE  C31820748   7.208   5.529   8.333 -0.5383  0.3467  0.3850
  181SOPE  H18X20749   7.246   5.621   8.282  1.3160  0.7403  2.3752
  181SOPE  H18Y20750   7.227   5.542   8.442 -3.4881 -1.2756  1.1356
  181SOPE  H18Z20751   7.103   5.505   8.307 -0.0900  1.2999 -2.5400
  182SOPE     N20752   6.705   6.779   5.998 -0.5148  0.5673 -0.2277
  182SOPE   HN120753   6.661   6.771   5.904  1.4609 -1.3203 -1.0246
  182SOPE   HN220754   6.764   6.694   6.014 -3.1442 -1.4915 -1.0650
  182SOPE   HN320755   6.627   6.778   6.066  0.3771  0.1568  0.8030
  182SOPE   C1220756   6.790   6.903   6.006 -0.4482 -0.2371 -0.1167
  182SOPE  H12A20757   6.729   6.996   6.013  0.3057  0.3121 -0.6322
  182SOPE  H12B20758   6.857   6.917   5.918  0.2438  2.5434  0.7805
  182SOPE   C1120759   6.882   6.892   6.140 -0.2333  0.5757  0.6357
  182SOPE  H11A20760   6.808   6.867   6.218 -0.3830 -0.8433  0.0499
  182SOPE  H11B20761   6.922   6.991   6.172 -1.2504  1.2655 -0.1647
  182SOPE     P20762   7.115   6.797   6.224 -0.0888 -0.5499  0.7379
  182SOPE   O1320763   7.183   6.927   6.216 -0.5724 -0.6335 -0.1360
  182SOPE   O1420764   7.199   6.685   6.192 -0.3762  1.2341  0.5385
  182SOPE   O1220765   6.989   6.795   6.126  0.3314 -0.1134  0.0084
  182SOPE   O1120766   7.057   6.779   6.371  0.8473 -0.6686  0.1593
  182SOPE    C120767   6.932   6.708   6.395  0.2754 -0.1933  0.3244
  182SOPE    HA20768   6.950   6.605   6.432 -2.8074 -0.9965 -0.2472
  182SOPE    HB20769   6.875   6.699   6.300  0.2147 -1.5052  0.4683
  182SOPE    C220770   6.843   6.783   6.501  0.9651 -0.3494 -0.6438
  182SOPE    HS20771   6.832   6.887   6.466  0.9246 -0.6032 -1.3947
  182SOPE   O2120772   6.909   6.772   6.632  0.4948  0.0673  0.0866
  182SOPE   C2120773   6.977   6.873   6.665  1.1006 -0.4513  0.9152
  182SOPE   O2220774   7.008   6.970   6.596 -0.5132  0.4994 -0.5048
  182SOPE   C2220775   7.033   6.839   6.797  0.1101  0.5426  0.4010
  182SOPE   H2R20776   7.088   6.929   6.833  2.2370 -0.5391 -0.0693
  182SOPE   H2S20777   7.107   6.757   6.788 -0.4656 -0.0132  0.6450
  182SOPE    C320778   6.704   6.716   6.502 -0.4627  0.2128 -0.0446
  182SOPE    HX20779   6.717   6.605   6.504 -1.3062  0.1017 -0.3410
  182SOPE    HY20780   6.664   6.734   6.400  1.7340  0.5644 -0.8704
  182SOPE   O3120781   6.609   6.762   6.607 -0.0120 -0.5117 -0.1245
  182SOPE   C3120782   6.566   6.886   6.580  0.1462  0.7142 -0.0429
  182SOPE   O3220783   6.595   6.955   6.489  0.0093 -0.0574  0.2750
  182SOPE   C3220784   6.461   6.917   6.683 -0.2454  0.0454 -0.1697
  182SOPE   H2X20785   6.385   6.837   6.677 -0.0652 -0.2560  1.2798
  182SOPE   H2Y20786   6.419   7.017   6.659  2.1922  0.6953 -1.9256
  182SOPE   C2320787   6.927   6.825   6.909  0.5840  0.0758 -0.7545
  182SOPE   H3R20788   6.854   6.745   6.884  0.5280 -0.4473  0.9908
  182SOPE   H3S20789   6.882   6.926   6.911 -1.2354 -0.7481  0.8847
  182SOPE   C2420790   7.000   6.797   7.035 -0.5378  0.5306  0.1530
  182SOPE   H4R20791   7.050   6.699   7.026 -0.6725  0.5383 -0.6987
  182SOPE   H4S20792   7.075   6.878   7.046  1.2096 -0.5347 -3.2390
  182SOPE   C2520793   6.909   6.792   7.154  0.7213  0.0272  1.0463
  182SOPE   H5R20794   6.839   6.877   7.169 -1.2813 -1.0558 -1.5807
  182SOPE   H5S20795   6.842   6.705   7.135  1.6707 -1.1924  3.2050
  182SOPE   C2620796   6.988   6.755   7.277 -0.1971  0.3803  0.3005
  182SOPE   H6R20797   7.066   6.684   7.243 -0.6284 -0.5016  1.1452
  182SOPE   H6S20798   7.040   6.848   7.309  1.5234 -0.7216  0.7084
  182SOPE   C2720799   6.900   6.706   7.393 -0.1973 -0.0234 -0.2922
  182SOPE   H7R20800   6.822   6.781   7.420  1.3777  1.0529  1.4465
  182SOPE   H7S20801   6.849   6.614   7.359  0.6617 -0.4904 -0.3109
  182SOPE   C2820802   6.984   6.678   7.516  0.0035  0.7063 -0.0240
  182SOPE   H8R20803   6.925   6.614   7.585 -1.8324  1.1986 -1.0954
  182SOPE   H8S20804   7.071   6.622   7.475 -0.0796 -0.3430  1.1930
  182SOPE   C2920805   7.025   6.808   7.582 -0.8538  0.0578  0.1039
  182SOPE   H9120806   7.077   6.882   7.520  0.8352 -0.8392  0.4173
  182SOPE  C21020807   7.035   6.829   7.717 -0.1373 -0.8957 -0.6350
  182SOPE  H10120808   7.074   6.926   7.752 -1.3056 -0.9696  0.9095
  182SOPE  C21120809   7.012   6.730   7.830 -1.1537  0.0755 -0.4868
  182SOPE  H11R20810   7.108   6.718   7.885 -0.7434 -2.1089 -1.6585
  182SOPE  H11S20811   6.991   6.630   7.788  3.1542 -0.8460 -0.6065
  182SOPE  C21220812   6.899   6.778   7.927  0.0674  0.2030  0.0627
  182SOPE  H12R20813   6.892   6.710   8.014  1.1047  0.1236  0.0919
  182SOPE  H12S20814   6.804   6.770   7.870  0.2546 -0.1285 -0.1992
  182SOPE  C21320815   6.919   6.921   7.988  0.1833  0.3040  0.7789
  182SOPE  H13R20816   6.905   6.996   7.907  0.4696  0.0083  0.4539
  182SOPE  H13S20817   7.025   6.929   8.022  0.5593  0.9381 -0.4956
  182SOPE  C21420818   6.827   6.955   8.106  0.3169  0.4442 -0.6514
  182SOPE  H14R20819   6.847   6.887   8.192  0.4786  0.1411 -0.9284
  182SOPE  H14S20820   6.733   6.910   8.070 -0.3568  0.2987  1.2602
  182SOPE  C21520821   6.801   7.093   8.160 -0.2675  0.8177  0.0415
  182SOPE  H15R20822   6.892   7.156   8.156  1.6998 -1.9559 -0.9464
  182SOPE  H15S20823   6.766   7.100   8.265 -0.0012  2.7241  0.0067
  182SOPE  C21620824   6.701   7.162   8.065  0.0039 -1.1052  0.4419
  182SOPE  H16R20825   6.607   7.102   8.056 -2.2098  2.2495  0.3160
  182SOPE  H16S20826   6.746   7.177   7.964 -0.2107 -0.4144  0.4483
  182SOPE  C21720827   6.659   7.297   8.118  0.0152  0.5023  0.3517
  182SOPE  H17R20828   6.745   7.368   8.123 -0.5281  1.4993 -2.8075
  182SOPE  H17S20829   6.600   7.286   8.211  0.3123 -0.9856  0.3833
  182SOPE  C21820830   6.560   7.364   8.014 -0.1911  0.3682 -0.4752
  182SOPE  H18R20831   6.619   7.385   7.923  0.8850  0.9360  0.3440
  182SOPE  H18S20832   6.502   7.453   8.049 -0.1002  0.4048 -0.4190
  182SOPE  H18T20833   6.484   7.288   7.985 -0.0135  0.9844 -2.5740
  182SOPE   C3320834   6.517   6.916   6.826  0.2186 -0.0436 -0.2418
  182SOPE   H3X20835   6.620   6.884   6.855 -1.0870 -1.1600  3.4833
  182SOPE   H3Y20836   6.440   6.864   6.887  0.7929 -0.9450 -0.2600
  182SOPE   C3420837   6.517   7.059   6.877  0.4822 -0.1244 -0.6775
  182SOPE   H4X20838   6.412   7.095   6.872  0.7844  0.8721  0.0544
  182SOPE   H4Y20839   6.562   7.125   6.799  2.5937 -2.1498 -1.2337
  182SOPE   C3520840   6.583   7.074   7.019  0.1296 -0.0308  0.2911
  182SOPE   H5X20841   6.692   7.055   7.007  0.7460  4.0703 -1.2054
  182SOPE   H5Y20842   6.532   6.996   7.079  0.3503  1.3270  2.3042
  182SOPE   C3620843   6.554   7.207   7.087  0.3145 -0.1341  0.7208
  182SOPE   H6X20844   6.626   7.281   7.045 -1.8162  1.3908 -0.3286
  182SOPE   H6Y20845   6.585   7.193   7.193  0.8278  1.6047  0.8178
  182SOPE   C3720846   6.404   7.255   7.090 -0.9954 -0.2736 -0.0166
  182SOPE   H7X20847   6.362   7.272   6.989  1.8460 -0.7712 -1.3151
  182SOPE   H7Y20848   6.393   7.354   7.140  0.5084 -0.1485  0.0908
  182SOPE   C3820849   6.307   7.148   7.152 -0.3530 -0.5839 -0.2071
  182SOPE   H8X20850   6.322   7.048   7.106 -0.7144 -0.9097  0.3666
  182SOPE   H8Y20851   6.204   7.182   7.127 -0.7674 -2.0188 -0.4654
  182SOPE   C3920852   6.309   7.129   7.304 -0.4517 -0.2837 -0.1875
  182SOPE   H9X20853   6.306   7.229   7.353  1.4965  0.0248 -0.6348
  182SOPE   H9Y20854   6.409   7.084   7.325 -0.3711 -0.3307 -0.6592
  182SOPE  C31020855   6.186   7.062   7.362  0.0773  0.0047 -0.0160
  182SOPE  H10X20856   6.196   6.952   7.352 -0.3772 -0.0029 -0.4114
  182SOPE  H10Y20857   6.093   7.097   7.312  0.1763  0.5839  0.2026
  182SOPE  C31120858   6.166   7.105   7.507  0.4186 -0.6864  0.2663
  182SOPE  H11X20859   6.100   7.194   7.502  0.6162 -0.5996 -0.7250
  182SOPE  H11Y20860   6.263   7.132   7.555 -0.0787  0.6641  0.5243
  182SOPE  C31220861   6.091   7.003   7.595 -0.5020 -0.3010  0.0469
  182SOPE  H12X20862   6.175   6.934   7.620  1.6929  2.1619 -0.2007
  182SOPE  H12Y20863   6.011   6.953   7.537  0.6636 -0.0321 -1.8231
  182SOPE  C31320864   6.033   7.072   7.723 -0.1329  0.5509 -0.6551
  182SOPE  H13X20865   5.961   7.002   7.770 -2.4677  2.8353 -0.7509
  182SOPE  H13Y20866   5.966   7.157   7.699 -1.1776  0.5888  2.2640
  182SOPE  C31420867   6.139   7.120   7.823 -0.8931 -0.2427  0.0325
  182SOPE  H14X20868   6.193   7.197   7.763  1.3555 -1.2645  0.6559
  182SOPE  H14Y20869   6.205   7.034   7.850 -2.0947 -0.7043  1.5673
  182SOPE  C31520870   6.084   7.190   7.947  0.6656 -0.5520  0.1522
  182SOPE  H15X20871   6.003   7.260   7.915 -1.8938 -3.0891  0.8476
  182SOPE  H15Y20872   6.170   7.242   7.996 -0.6549  2.9410 -1.0546
  182SOPE  C31620873   6.028   7.098   8.053 -0.4276 -0.5184 -0.1059
  182SOPE  H16X20874   6.111   7.024   8.059 -0.8900 -1.2522 -2.1716
  182SOPE  H16Y20875   5.942   7.042   8.012 -0.5671 -0.9459  0.7584
  182SOPE  C31720876   6.000   7.174   8.183 -0.2290  0.1246 -0.2736
  182SOPE  H17X20877   5.892   7.190   8.204 -0.3095 -1.7565  0.8622
  182SOPE  H17Y20878   6.058   7.267   8.170  2.3533 -0.7927  3.7504
  182SOPE  C31820879   6.062   7.126   8.315 -0.1480  0.0627  0.1589
  182SOPE  H18X20880   6.173   7.124   8.314 -0.1313 -1.2494  2.2537
  182SOPE  H18Y20881   6.021   7.027   8.343 -1.8902  0.2773 -1.5145
  182SOPE  H18Z20882   6.038   7.200   8.394  1.5799  2.5364 -1.5344
  183SOPE     N20883   2.857   4.325   5.966  0.1241 -0.1269 -0.7402
  183SOPE   HN120884   2.905   4.412   5.935  3.2598 -1.3904  0.3334
  183SOPE   HN220885   2.857   4.248   5.896  2.7795  1.2836 -2.3912
  183SOPE   HN320886   2.760   4.346   5.997  0.6622  1.1620  0.1053
  183SOPE   C1220887   2.936   4.276   6.081  0.6063  0.3424  0.0947
  183SOPE  H12A20888   3.041   4.268   6.045 -0.2531  0.5040 -2.5544
  183SOPE  H12B20889   2.897   4.178   6.116  1.0686  0.2383  0.3223
  183SOPE   C1120890   2.930   4.375   6.206 -0.0061 -0.1450 -0.2008
  183SOPE  H11A20891   2.980   4.470   6.177  0.9759 -1.5986 -3.5389
  183SOPE  H11B20892   2.978   4.314   6.286 -0.3056 -0.2749 -0.1177
  183SOPE     P20893   2.731   4.525   6.281  0.2952 -0.3494  0.0251
  183SOPE   O1320894   2.585   4.502   6.306 -0.4124  0.3275 -0.2404
  183SOPE   O1420895   2.767   4.634   6.179  0.0526 -0.3992  0.2612
  183SOPE   O1220896   2.791   4.388   6.235 -0.5046  0.3831  0.6548
  183SOPE   O1120897   2.812   4.547   6.412 -0.0028 -0.5025  0.2639
  183SOPE    C120898   2.794   4.454   6.516  0.2015 -0.4564 -0.1431
  183SOPE    HA20899   2.836   4.355   6.488 -2.2813 -0.4501 -4.3105
  183SOPE    HB20900   2.687   4.434   6.539  0.1226 -3.2959 -2.6715
  183SOPE    C220901   2.851   4.509   6.650  0.3311 -0.1566  0.0353
  183SOPE    HS20902   2.786   4.585   6.698  0.9657 -0.8812  2.0558
  183SOPE   O2120903   2.987   4.553   6.631 -0.2871  0.0119 -1.0280
  183SOPE   C2120904   2.996   4.688   6.624 -0.0221  0.5014  0.2716
  183SOPE   O2220905   2.905   4.769   6.632  0.0510 -0.3906 -0.9741
  183SOPE   C2220906   3.141   4.720   6.627  0.7567  0.3833 -0.4614
  183SOPE   H2R20907   3.172   4.745   6.523 -1.5795  2.0851 -0.7885
  183SOPE   H2S20908   3.200   4.633   6.663 -0.8296 -1.1309 -1.4164
  183SOPE    C320909   2.847   4.405   6.768 -0.0044  0.6194  0.7419
  183SOPE    HX20910   2.921   4.324   6.753 -1.5517 -1.1821  2.5993
  183SOPE    HY20911   2.756   4.343   6.758  0.5094 -0.1384  0.6918
  183SOPE   O3120912   2.875   4.465   6.896 -0.3402  0.1832  0.4449
  183SOPE   C3120913   2.999   4.471   6.944 -0.2674  0.4998  0.2008
  183SOPE   O3220914   3.099   4.434   6.889  0.0283 -0.4595  0.0506
  183SOPE   C3220915   2.992   4.521   7.089  0.5050 -0.0475  0.5221
  183SOPE   H2X20916   2.905   4.472   7.138  1.1254 -3.8894 -2.0903
  183SOPE   H2Y20917   2.982   4.631   7.076  0.4544 -0.2821 -1.5147
  183SOPE   C2320918   3.177   4.850   6.705 -0.6137 -0.0138  0.8170
  183SOPE   H3R20919   3.120   4.941   6.675  0.9356  0.1045 -1.8834
  183SOPE   H3S20920   3.279   4.880   6.673 -0.0654 -0.3943  2.1797
  183SOPE   C2420921   3.167   4.838   6.854  0.5371 -0.0832  0.1340
  183SOPE   H4R20922   3.056   4.832   6.868  0.8919 -1.5606  2.7269
  183SOPE   H4S20923   3.200   4.739   6.891  1.9096  1.0701  2.0856
  183SOPE   C2520924   3.209   4.961   6.934 -0.0300  0.1455  0.3667
  183SOPE   H5R20925   3.312   4.997   6.915 -0.6320  2.5465  1.4592
  183SOPE   H5S20926   3.147   5.046   6.899 -1.8160 -1.2011  0.2025
  183SOPE   C2620927   3.188   4.929   7.078  0.7263 -0.2038  0.4791
  183SOPE   H6R20928   3.081   4.916   7.105  0.8787 -3.9498 -0.4679
  183SOPE   H6S20929   3.229   4.827   7.095 -2.7249 -1.4963  1.3136
  183SOPE   C2720930   3.267   5.022   7.173  0.2273 -0.1683 -1.0903
  183SOPE   H7R20931   3.367   5.008   7.128  1.6627 -2.5472  2.6746
  183SOPE   H7S20932   3.228   5.126   7.168  0.3140 -0.0774  0.0018
  183SOPE   C2820933   3.269   4.968   7.311 -0.6919 -0.0001 -0.1579
  183SOPE   H8R20934   3.288   4.858   7.312  0.3781  0.1752  1.9421
  183SOPE   H8S20935   3.348   5.015   7.374 -0.5498 -1.6514  0.9217
  183SOPE   C2920936   3.128   4.992   7.371  0.0426  0.3490  1.0123
  183SOPE   H9120937   3.053   4.944   7.307  1.8181  0.8495 -1.5500
  183SOPE  C21020938   3.091   5.068   7.473 -0.6334  0.0244  0.2513
  183SOPE  H10120939   2.982   5.074   7.489 -0.6286 -1.0118  0.7044
  183SOPE  C21120940   3.174   5.145   7.571  0.1607 -0.4583 -0.2903
  183SOPE  H11R20941   3.160   5.255   7.560  0.9046 -0.4089 -0.7375
  183SOPE  H11S20942   3.281   5.124   7.552 -0.1289 -1.5014 -0.7815
  183SOPE  C21220943   3.143   5.106   7.713 -0.3975  0.0990 -0.9684
  183SOPE  H12R20944   3.168   4.999   7.725 -0.5235  0.0904 -0.7770
  183SOPE  H12S20945   3.032   5.104   7.719 -0.3797 -0.2678 -0.7665
  183SOPE  C21320946   3.205   5.197   7.822 -0.0916 -0.1976  0.5232
  183SOPE  H13R20947   3.179   5.302   7.799  1.2430  0.0095 -0.1361
  183SOPE  H13S20948   3.316   5.186   7.820 -0.3047 -2.9089  1.6928
  183SOPE  C21420949   3.169   5.179   7.971  0.0289 -0.8804 -0.1105
  183SOPE  H14R20950   3.174   5.069   7.984  1.1107 -0.7594  0.5243
  183SOPE  H14S20951   3.065   5.209   7.998  0.3214  0.1077 -0.0701
  183SOPE  C21520952   3.277   5.234   8.072 -0.0052  0.0723  0.4979
  183SOPE  H15R20953   3.264   5.343   8.083 -1.9177 -0.1693  0.8991
  183SOPE  H15S20954   3.374   5.209   8.024 -0.2836  0.7217 -0.3962
  183SOPE  C21620955   3.258   5.168   8.205 -0.0890 -0.0759  0.4569
  183SOPE  H16R20956   3.271   5.060   8.185  1.2539 -0.2892  2.3447
  183SOPE  H16S20957   3.155   5.195   8.238 -0.3134 -0.0405 -0.2472
  183SOPE  C21720958   3.351   5.230   8.306 -1.0150 -0.1123  0.5732
  183SOPE  H17R20959   3.358   5.339   8.284  0.3841 -0.6448 -1.7950
  183SOPE  H17S20960   3.458   5.199   8.300 -0.4194  1.7069  1.4104
  183SOPE  C21820961   3.300   5.192   8.443  0.3649 -0.1963 -0.0653
  183SOPE  H18R20962   3.357   5.245   8.521  0.5078  0.1679 -0.4159
  183SOPE  H18S20963   3.316   5.083   8.458  1.2347 -0.2020 -0.9645
  183SOPE  H18T20964   3.195   5.223   8.463  1.4776  2.3783  1.9285
  183SOPE   C3320965   3.119   4.499   7.180 -0.2836  0.2921  0.1637
  183SOPE   H3X20966   3.202   4.544   7.121  0.6583 -2.0676 -0.3818
  183SOPE   H3Y20967   3.148   4.392   7.197 -4.1136 -0.3602  3.1561
  183SOPE   C3420968   3.104   4.573   7.318 -0.7305  0.2494 -0.2706
  183SOPE   H4X20969   3.014   4.533   7.371 -0.1987  0.2986  0.6729
  183SOPE   H4Y20970   3.094   4.683   7.309  0.3860  0.6736  3.0442
  183SOPE   C3520971   3.227   4.557   7.405  0.4081  0.0688 -0.3018
  183SOPE   H5X20972   3.316   4.608   7.363  1.1845  0.6954  2.0428
  183SOPE   H5Y20973   3.237   4.450   7.432 -1.0531 -0.3285 -1.2986
  183SOPE   C3620974   3.206   4.638   7.537 -0.3247 -0.6203  0.0247
  183SOPE   H6X20975   3.139   4.580   7.605  0.8959  0.8607  2.5500
  183SOPE   H6Y20976   3.146   4.730   7.525 -1.1248 -0.9596  1.2973
  183SOPE   C3720977   3.323   4.660   7.622 -0.2686  0.5180  0.4746
  183SOPE   H7X20978   3.374   4.746   7.574 -0.7039  1.5021  1.7541
  183SOPE   H7Y20979   3.388   4.571   7.607  1.2629  1.3922  1.7059
  183SOPE   C3820980   3.294   4.681   7.775  0.1203 -0.4600 -0.7385
  183SOPE   H8X20981   3.249   4.592   7.825 -1.1093  0.2693 -0.5065
  183SOPE   H8Y20982   3.226   4.769   7.782  1.5913  0.7464 -1.4414
  183SOPE   C3920983   3.414   4.701   7.857 -0.1065 -0.0628 -0.3593
  183SOPE   H9X20984   3.486   4.762   7.797  0.7459 -1.5114 -0.8402
  183SOPE   H9Y20985   3.448   4.600   7.887 -0.6654  0.5342  2.3630
  183SOPE  C31020986   3.399   4.788   7.982  0.0525 -0.0440  0.3168
  183SOPE  H10X20987   3.310   4.753   8.039  0.7491 -0.6330  1.0377
  183SOPE  H10Y20988   3.361   4.889   7.952  1.3132  0.3538  0.0423
  183SOPE  C31120989   3.509   4.789   8.089 -0.4008 -0.6541 -0.1737
  183SOPE  H11X20990   3.603   4.800   8.031  0.4942  0.1304  1.3991
  183SOPE  H11Y20991   3.517   4.684   8.124 -0.6763 -0.6311 -0.0351
  183SOPE  C31220992   3.506   4.900   8.200 -0.5156  0.5406 -0.0233
  183SOPE  H12X20993   3.403   4.901   8.242  0.5540  1.9577  2.6171
  183SOPE  H12Y20994   3.497   5.002   8.155  0.4917  0.1701 -1.0904
  183SOPE  C31320995   3.606   4.896   8.313  0.0744  0.3467  0.0155
  183SOPE  H13X20996   3.597   4.793   8.354  0.5745 -0.2936 -1.4239
  183SOPE  H13Y20997   3.567   4.956   8.398  0.8594  0.3349  0.3916
  183SOPE  C31420998   3.741   4.946   8.258 -0.5271  0.0151  0.2213
  183SOPE  H14X20999   3.731   5.056   8.244  3.1083  0.5323  1.2984
  183SOPE  H14Y21000   3.756   4.900   8.158  1.2290 -2.3030  1.5041
  183SOPE  C31521001   3.865   4.930   8.339 -0.5740 -0.0250 -0.3825
  183SOPE  H15X21002   3.895   4.823   8.343  0.0700  0.1396 -0.7674
  183SOPE  H15Y21003   3.860   4.964   8.444 -1.9382  1.1114 -0.8168
  183SOPE  C31621004   3.990   5.006   8.286  0.1122  0.2800 -0.1227
  183SOPE  H16X21005   3.976   5.102   8.232  2.4106  0.2141 -0.8468
  183SOPE  H16Y21006   4.049   4.936   8.224  0.1066  1.0991 -1.0717
  183SOPE  C31721007   4.078   5.056   8.397 -0.8810  0.5207  0.1091
  183SOPE  H17X21008   4.097   4.983   8.479 -1.3596  1.2451  0.8822
  183SOPE  H17Y21009   4.020   5.130   8.457 -1.1382 -2.0547  3.2286
  183SOPE  C31821010   4.201   5.125   8.351 -0.0032  0.7154 -0.1325
  183SOPE  H18X21011   4.248   5.186   8.431  1.0985  0.6660 -0.7414
  183SOPE  H18Y21012   4.170   5.189   8.265  0.1845 -1.6505 -2.0237
  183SOPE  H18Z21013   4.276   5.049   8.324  0.6673  1.6780 -1.0321
  184SOPE     N21014   2.812   5.012   6.476  0.0669 -0.8075 -0.3989
  184SOPE   HN121015   2.838   4.959   6.561 -0.4108 -3.1624 -1.6841
  184SOPE   HN221016   2.891   5.065   6.433 -0.5457  1.4340  1.1506
  184SOPE   HN321017   2.741   5.084   6.501 -0.2261 -0.4575 -2.1888
  184SOPE   C1221018   2.759   4.913   6.377  0.1587 -0.3571 -0.3417
  184SOPE  H12A21019   2.828   4.826   6.387 -0.3149 -0.7350 -0.3231
  184SOPE  H12B21020   2.786   4.954   6.277 -0.2053  0.8781  0.0559
  184SOPE   C1121021   2.612   4.874   6.390  0.0220 -0.4584  0.1278
  184SOPE  H11A21022   2.597   4.829   6.490  2.1519 -1.1927  0.1467
  184SOPE  H11B21023   2.586   4.796   6.315  0.8406  0.7496 -1.4447
  184SOPE     P21024   2.500   5.051   6.227  0.0217 -0.2225 -0.0619
  184SOPE   O1321025   2.499   4.949   6.118  0.0834  0.3486  0.0753
  184SOPE   O1421026   2.601   5.155   6.216 -0.5113 -0.1126  0.3021
  184SOPE   O1221027   2.510   4.973   6.365 -0.4013 -0.4127 -0.4629
  184SOPE   O1121028   2.362   5.124   6.241 -0.3434 -0.3616 -0.0544
  184SOPE    C121029   2.337   5.213   6.353  0.1763  0.1755  0.9219
  184SOPE    HA21030   2.316   5.311   6.306  3.5370 -0.0998 -1.3379
  184SOPE    HB21031   2.423   5.234   6.420  0.6044  0.7721  0.1893
  184SOPE    C221032   2.213   5.161   6.435  0.0611 -0.2572 -0.1234
  184SOPE    HS21033   2.189   5.243   6.506  2.3144  0.5966 -0.2946
  184SOPE   O2121034   2.250   5.049   6.511  0.0582  0.4244 -0.3384
  184SOPE   C2121035   2.318   5.059   6.623 -0.2885  0.0471 -0.0850
  184SOPE   O2221036   2.333   5.166   6.683  0.2045  0.0841  0.2967
  184SOPE   C2221037   2.378   4.930   6.672 -0.4962  0.6960  0.0201
  184SOPE   H2R21038   2.405   4.866   6.586 -2.0535 -0.3621  0.2826
  184SOPE   H2S21039   2.288   4.880   6.714 -0.4762  0.4985 -0.1728
  184SOPE    C321040   2.102   5.130   6.344  0.5035  0.1250  0.3306
  184SOPE    HX21041   2.128   5.036   6.290  0.4587  1.0862 -1.4102
  184SOPE    HY21042   2.093   5.207   6.264  1.8732 -1.0767 -1.0092
  184SOPE   O3121043   1.979   5.113   6.422  0.2756 -0.3765  0.4031
  184SOPE   C3121044   1.926   5.221   6.476  0.2621 -0.3247  0.1930
  184SOPE   O3221045   1.972   5.333   6.478 -0.3852 -0.4077 -0.3338
  184SOPE   C3221046   1.783   5.184   6.504  0.8028  0.0642  0.5807
  184SOPE   H2X21047   1.766   5.075   6.487 -0.8283  0.3592  0.2526
  184SOPE   H2Y21048   1.722   5.238   6.429  1.5145  0.5380  0.3380
  184SOPE   C2321049   2.499   4.938   6.773 -0.0486 -0.0041  0.7262
  184SOPE   H3R21050   2.499   5.026   6.840 -0.2472 -0.3240  1.1492
  184SOPE   H3S21051   2.594   4.944   6.716 -0.7519  0.9994 -0.3549
  184SOPE   C2421052   2.502   4.817   6.863 -0.6111 -0.2674  0.6006
  184SOPE   H4R21053   2.406   4.822   6.919 -1.1805  2.6131 -0.5350
  184SOPE   H4S21054   2.503   4.722   6.806  0.1462  1.2624 -1.9910
  184SOPE   C2521055   2.628   4.811   6.949  0.6709 -0.0356  0.5341
  184SOPE   H5R21056   2.648   4.709   6.988  1.3154  0.2227  0.8935
  184SOPE   H5S21057   2.716   4.840   6.887  0.9887  0.9701  1.4357
  184SOPE   C2621058   2.632   4.898   7.075 -0.0308 -0.6994  0.4779
  184SOPE   H6R21059   2.590   4.997   7.047  0.6029 -0.8575 -1.0770
  184SOPE   H6S21060   2.567   4.855   7.154 -2.2693  0.2178 -0.8074
  184SOPE   C2721061   2.775   4.923   7.133 -0.0487  0.2520  0.0516
  184SOPE   H7R21062   2.829   4.825   7.130  0.1868  0.4225 -1.9089
  184SOPE   H7S21063   2.818   4.987   7.054  0.1516  0.2083  0.1253
  184SOPE   C2821064   2.764   4.993   7.267 -0.3504 -0.8614 -0.5388
  184SOPE   H8R21065   2.855   5.056   7.272  0.3026 -1.6465 -2.3308
  184SOPE   H8S21066   2.681   5.067   7.259  0.1749 -0.0388  1.3105
  184SOPE   C2921067   2.766   4.903   7.394 -0.4141 -0.5022  0.2076
  184SOPE   H9121068   2.850   4.832   7.402  0.2515  0.3310  0.6480
  184SOPE  C21021069   2.678   4.913   7.494  0.1511  0.5294 -0.1490
  184SOPE  H10121070   2.691   4.843   7.578 -0.9075 -0.6259 -0.9269
  184SOPE  C21121071   2.568   5.015   7.505 -0.1545 -0.0496 -0.0606
  184SOPE  H11R21072   2.481   4.977   7.446  0.7164 -0.9464 -0.7980
  184SOPE  H11S21073   2.590   5.116   7.464  1.3421 -0.8395 -1.2514
  184SOPE  C21221074   2.524   5.018   7.647  0.2741  0.3336  0.8553
  184SOPE  H12R21075   2.494   4.915   7.676 -0.8115 -0.1391 -1.8284
  184SOPE  H12S21076   2.439   5.085   7.670 -0.8992 -0.5813 -0.7255
  184SOPE  C21321077   2.624   5.067   7.749 -0.2302  0.6783  0.0387
  184SOPE  H13R21078   2.668   5.157   7.699 -0.0412  0.2142 -0.6362
  184SOPE  H13S21079   2.710   4.997   7.752 -0.5955  0.2390  0.2005
  184SOPE  C21421080   2.568   5.098   7.884 -0.1744  0.0621 -0.4514
  184SOPE  H14R21081   2.541   5.001   7.932 -0.4384  0.8550  1.0014
  184SOPE  H14S21082   2.479   5.165   7.879  1.1143  1.7136 -1.3843
  184SOPE  C21521083   2.681   5.159   7.966  0.0393  0.3018  0.0425
  184SOPE  H15R21084   2.716   5.253   7.920  0.6584 -1.8430 -4.0701
  184SOPE  H15S21085   2.770   5.093   7.977  0.3945  0.0907 -3.6586
  184SOPE  C21621086   2.642   5.193   8.108 -1.1588 -0.5274  0.3804
  184SOPE  H16R21087   2.659   5.108   8.176 -0.2902 -0.5898  0.0966
  184SOPE  H16S21088   2.532   5.207   8.109 -1.2727 -1.4122  0.4116
  184SOPE  C21721089   2.724   5.307   8.158  0.7074  0.6939  0.8408
  184SOPE  H17R21090   2.704   5.401   8.102  1.3061 -1.2875 -2.8942
  184SOPE  H17S21091   2.832   5.289   8.139  1.0938  4.0204 -0.4353
  184SOPE  C21821092   2.709   5.341   8.304 -0.2090  0.7437 -0.3512
  184SOPE  H18R21093   2.709   5.449   8.328 -0.9053  0.3695  1.4152
  184SOPE  H18S21094   2.789   5.289   8.362 -1.3273 -1.7097 -0.9309
  184SOPE  H18T21095   2.613   5.297   8.338  0.5547 -0.9937 -0.3766
  184SOPE   C3321096   1.734   5.212   6.650  0.2650 -1.1413  0.6067
  184SOPE   H3X21097   1.624   5.201   6.649  0.1917 -0.3202 -0.8535
  184SOPE   H3Y21098   1.763   5.314   6.683  1.7119 -0.9270 -1.2628
  184SOPE   C3421099   1.777   5.105   6.758 -0.1079 -0.3981  0.5027
  184SOPE   H4X21100   1.888   5.093   6.759 -0.1927 -2.3504 -3.0280
  184SOPE   H4Y21101   1.748   5.005   6.719 -1.6511  0.3661 -0.3434
  184SOPE   C3521102   1.727   5.125   6.901  0.1504  0.2895  0.5477
  184SOPE   H5X21103   1.616   5.133   6.897  0.2628  1.3468 -1.6932
  184SOPE   H5Y21104   1.770   5.222   6.935 -0.2730  0.9796 -0.8235
  184SOPE   C3621105   1.771   5.013   6.992 -0.1413 -0.2724 -0.1980
  184SOPE   H6X21106   1.881   5.020   6.993 -0.0472 -1.1393 -2.0143
  184SOPE   H6Y21107   1.734   4.912   6.968 -0.3254 -0.2924  0.1609
  184SOPE   C3721108   1.733   5.042   7.145 -0.1870  0.8129  0.8022
  184SOPE   H7X21109   1.623   5.042   7.157 -0.1299 -1.8151  1.5541
  184SOPE   H7Y21110   1.762   5.146   7.173  1.4133  0.6721 -0.2499
  184SOPE   C3821111   1.802   4.944   7.246  0.4951  0.1983  0.4340
  184SOPE   H8X21112   1.912   4.944   7.229  0.7545  1.7121  2.0381
  184SOPE   H8Y21113   1.764   4.841   7.232  0.0863  0.5934 -1.5830
  184SOPE   C3921114   1.781   5.000   7.388 -0.3713 -0.2672  0.5426
  184SOPE   H9X21115   1.673   5.022   7.403 -0.3637 -1.8537  3.1960
  184SOPE   H9Y21116   1.843   5.092   7.404  1.6906 -1.6699  0.8387
  184SOPE  C31021117   1.824   4.908   7.502  0.9071 -0.2865  0.0502
  184SOPE  H10X21118   1.934   4.912   7.489  0.8824  0.7671  0.0600
  184SOPE  H10Y21119   1.770   4.811   7.496 -0.2549  0.3399  0.1461
  184SOPE  C31121120   1.790   4.970   7.643 -0.0742  0.5282 -0.1953
  184SOPE  H11X21121   1.679   4.962   7.649 -0.0182 -0.8640 -0.7861
  184SOPE  H11Y21122   1.825   5.075   7.633  1.4763 -0.1735 -2.6901
  184SOPE  C31221123   1.859   4.891   7.754 -0.3894  0.0520  0.1968
  184SOPE  H12X21124   1.969   4.886   7.737 -0.5700  1.5505 -1.6110
  184SOPE  H12Y21125   1.819   4.788   7.765 -0.3288  0.0209  0.1275
  184SOPE  C31321126   1.837   4.965   7.888  0.4159  0.0834 -0.2016
  184SOPE  H13X21127   1.730   4.987   7.909  0.6054  1.1557 -0.3123
  184SOPE  H13Y21128   1.888   5.064   7.887 -0.8494  0.7500 -0.1203
  184SOPE  C31421129   1.904   4.884   7.995 -0.1807  0.1997 -0.1790
  184SOPE  H14X21130   2.012   4.876   7.971 -1.1338 -2.3753 -4.0333
  184SOPE  H14Y21131   1.855   4.784   7.997 -1.7133  0.9131  3.2856
  184SOPE  C31521132   1.873   4.941   8.135 -0.3539 -0.3604 -0.6125
  184SOPE  H15X21133   1.766   4.966   8.147  0.3579  2.9199 -0.7953
  184SOPE  H15Y21134   1.925   5.038   8.124 -3.6890  1.3981 -1.2816
  184SOPE  C31621135   1.940   4.870   8.251 -0.7814 -0.0829  0.3815
  184SOPE  H16X21136   2.049   4.864   8.234 -0.7520  0.4646  0.3929
  184SOPE  H16Y21137   1.928   4.759   8.244  0.8230 -0.1196 -2.3545
  184SOPE  C31721138   1.914   4.914   8.392 -0.1380 -0.5327 -0.4483
  184SOPE  H17X21139   1.924   5.025   8.395 -4.3663 -0.0061 -2.8406
  184SOPE  H17Y21140   1.995   4.868   8.454  0.7800 -2.5682 -3.0424
  184SOPE  C31821141   1.782   4.861   8.448  0.1563 -0.0342  0.1560
  184SOPE  H18X21142   1.776   4.751   8.454  0.5723 -0.2850 -3.0513
  184SOPE  H18Y21143   1.701   4.895   8.380  1.5511  1.8288 -0.6183
  184SOPE  H18Z21144   1.767   4.901   8.551 -2.6226  0.6267 -0.4498
  185SAPI   C1221145   4.998   2.016  11.121  0.0610 -0.2844  0.1819
  185SAPI    H221146   4.919   2.051  11.191 -0.6908 -1.8601  0.1552
  185SAPI    O221147   5.074   2.134  11.100  0.7114 -0.3113 -0.3244
  185SAPI   HO221148   5.026   2.199  11.048  1.8744 -0.2146 -1.3041
  185SAPI   C1321149   5.077   1.901  11.178 -0.1661  0.3392 -0.3610
  185SAPI    H321150   5.012   1.811  11.178  1.6012 -0.9704 -0.0489
  185SAPI    O321151   5.109   1.919  11.314 -0.4287 -0.6511 -0.5032
  185SAPI   HO321152   5.169   1.993  11.318  0.4422 -1.4176  1.0137
  185SAPI   C1421153   5.192   1.862  11.093 -0.5693  0.0753  0.3942
  185SAPI    H421154   5.262   1.948  11.094 -0.6957  0.1765  0.4780
  185SAPI    O421155   5.271   1.751  11.142  0.0999  0.6651 -0.0496
  185SAPI   HO421156   5.363   1.764  11.119  0.7508 -1.8049  0.9795
  185SAPI   C1521157   5.140   1.830  10.950 -0.1286  0.0597  0.3737
  185SAPI    H521158   5.077   1.739  10.954  0.0103 -0.0437  0.1811
  185SAPI    O521159   5.248   1.800  10.865 -0.0453 -0.0975  0.5054
  185SAPI   HO521160   5.318   1.866  10.871  1.5389 -1.3690 -2.9453
  185SAPI   C1621161   5.050   1.936  10.895 -0.0666  0.1464 -0.1757
  185SAPI    H621162   5.110   2.027  10.875  1.3725 -0.0266  3.1211
  185SAPI    O621163   4.993   1.891  10.774 -0.1835  0.0772  0.2036
  185SAPI   HO621164   5.012   1.962  10.713 -2.6130  1.1575  0.6391
  185SAPI   C1121165   4.938   1.968  10.987 -0.1675 -0.2203 -0.6759
  185SAPI    H121166   4.872   1.879  10.998 -0.8802  0.4441  0.5436
  185SAPI     P21167   4.702   2.103  10.947 -0.3742  0.3299 -0.1059
  185SAPI   O1321168   4.679   2.244  10.974  0.5010  0.2583  0.2848
  185SAPI   O1421169   4.644   2.010  11.049  0.2304  0.1501  0.1249
  185SAPI   O1221170   4.868   2.080  10.938 -0.2818  0.3135 -0.1777
  185SAPI   O1121171   4.657   2.056  10.794  0.1627  0.2655 -0.0108
  185SAPI    C121172   4.681   2.151  10.692  0.0866  0.8771  0.0816
  185SAPI    HA21173   4.623   2.245  10.705  0.4910  1.4814 -2.3032
  185SAPI    HB21174   4.786   2.186  10.697  0.3170  0.1063  0.8062
  185SAPI    C221175   4.635   2.095  10.556 -0.1431 -0.3549  0.1930
  185SAPI    HS21176   4.533   2.054  10.572 -0.0311 -0.5568  0.3829
  185SAPI   O2121177   4.728   2.009  10.495  0.5856  0.0991 -0.5511
  185SAPI   C2121178   4.681   1.890  10.477 -0.0879 -0.0801 -0.5896
  185SAPI   O2221179   4.576   1.846  10.521 -0.2927  0.1654 -0.6459
  185SAPI   C2221180   4.792   1.802  10.415 -0.2222  0.1926  0.7325
  185SAPI   H2R21181   4.892   1.846  10.434  0.7023 -2.5686  2.6551
  185SAPI   H2S21182   4.787   1.711  10.478 -0.8898  0.7616  1.5136
  185SAPI    C321183   4.618   2.209  10.456 -0.3914  0.9980  0.3061
  185SAPI    HX21184   4.691   2.289  10.479  1.0270 -0.7024  1.8032
  185SAPI    HY21185   4.520   2.257  10.478 -0.7108  0.3842  0.2568
  185SAPI   O3121186   4.613   2.166  10.315 -0.3558  0.9231  0.8411
  185SAPI   C3121187   4.632   2.273  10.240  0.1380 -0.1492  0.0448
  185SAPI   O3221188   4.677   2.376  10.282 -0.1395  0.3725  0.3735
  185SAPI   C3221189   4.573   2.246  10.101 -0.3950  0.0531  1.0137
  185SAPI   H2X21190   4.478   2.191  10.116  0.0671 -0.1723  3.1814
  185SAPI   H2Y21191   4.646   2.199  10.031 -1.6976 -0.0112 -0.3210
  185SAPI   C2321192   4.768   1.744  10.271 -0.0270 -0.7962 -0.2398
  185SAPI   H3R21193   4.660   1.723  10.256 -0.3889  0.2672  0.8987
  185SAPI   H3S21194   4.825   1.649  10.262  0.5658 -0.3034 -1.8476
  185SAPI   C2421195   4.809   1.840  10.160 -0.1542  0.4736  0.1540
  185SAPI   H4R21196   4.915   1.866  10.179  0.5313 -2.5104  0.7198
  185SAPI   H4S21197   4.750   1.931  10.180  0.2652  1.1515 -1.5506
  185SAPI   C2521198   4.789   1.780  10.023 -0.1914  0.2182  0.4114
  185SAPI   H5R21199   4.786   1.670  10.023  0.0852  0.1680 -2.3084
  185SAPI   C2621200   4.795   1.842   9.901  0.6197  0.5866 -0.4530
  185SAPI   H6R21201   4.788   1.784   9.808 -1.0174  2.1361 -1.3259
  185SAPI   C2721202   4.808   1.988   9.858  0.3931  0.6346  0.4898
  185SAPI   H7R21203   4.768   2.058   9.934 -1.2472 -0.2634  0.4705
  185SAPI   H7S21204   4.751   1.997   9.763  2.3087 -0.5616 -0.8071
  185SAPI   C2821205   4.954   2.008   9.833  0.3572 -0.2191  0.4597
  185SAPI   H8R21206   5.014   2.009   9.925 -1.3587  0.7120  1.6057
  185SAPI   C2921207   5.010   2.032   9.711  0.0733 -0.3390 -0.2988
  185SAPI   H9R21208   5.119   2.034   9.695  0.0130 -0.3340 -0.7143
  185SAPI  C21021209   4.930   2.045   9.585 -0.8852  0.2528 -0.5847
  185SAPI  H10R21210   4.975   2.131   9.530  1.3496 -0.0292  0.7260
  185SAPI  H10S21211   4.825   2.076   9.605 -1.1448  0.0464 -1.6193
  185SAPI  C21121212   4.936   1.937   9.476  0.1141  0.0017 -1.6522
  185SAPI  H11R21213   5.015   1.861   9.478 -1.2692 -1.4455 -0.6675
  185SAPI  C21221214   4.842   1.916   9.384  0.0748 -0.0765 -0.0391
  185SAPI  H12R21215   4.848   1.824   9.323  1.4991  0.3462 -0.5449
  185SAPI  C21321216   4.719   2.004   9.366 -0.0485 -0.8983  0.3072
  185SAPI  H13R21217   4.756   2.100   9.324  1.5400 -1.2156  0.9492
  185SAPI  H13S21218   4.677   2.034   9.465 -1.2682 -0.2543 -0.3905
  185SAPI  C21421219   4.604   1.943   9.288 -0.8267 -0.4151 -0.1974
  185SAPI  H14R21220   4.532   1.896   9.358 -0.6002  0.2906  0.5147
  185SAPI  C21521221   4.581   1.949   9.159 -0.5922  0.0553 -0.3366
  185SAPI  H15R21222   4.485   1.908   9.123 -1.7704  0.7770  1.8818
  185SAPI  C21621223   4.652   2.010   9.041 -0.6701 -0.8570 -0.6898
  185SAPI  H16R21224   4.762   2.008   9.052 -0.5530  1.2401 -1.2552
  185SAPI  H16S21225   4.620   2.115   9.025 -1.1001 -1.0859 -1.3443
  185SAPI  C21721226   4.611   1.934   8.911 -0.1813  0.4151 -0.4934
  185SAPI  H17R21227   4.500   1.941   8.909 -0.1644  1.6804  1.5000
  185SAPI  H17S21228   4.632   1.826   8.926 -1.2105  0.4863  1.6557
  185SAPI  C21821229   4.679   1.993   8.781  0.6273 -0.0003 -0.3153
  185SAPI  H18R21230   4.789   1.988   8.790  0.7603  2.0502 -0.6737
  185SAPI  H18S21231   4.656   2.101   8.781  0.8222  0.0400 -0.5075
  185SAPI  C21921232   4.653   1.908   8.657  0.5464 -0.1525  0.2540
  185SAPI  H19R21233   4.700   1.808   8.670  0.2760 -0.3974 -0.5812
  185SAPI  H19S21234   4.706   1.945   8.567 -1.0867 -2.3163 -1.6707
  185SAPI  C22021235   4.506   1.880   8.613 -0.0647 -0.0537  0.3798
  185SAPI  H20R21236   4.467   1.966   8.553  1.5572  0.0818 -0.5028
  185SAPI  H20S21237   4.428   1.853   8.687  0.6262  0.6715  1.3829
  185SAPI  H20T21238   4.511   1.790   8.548  1.2623  0.4508 -0.2237
  185SAPI   C3321239   4.527   2.378  10.033 -0.3334 -0.5839 -0.3916
  185SAPI   H3X21240   4.607   2.455  10.035 -1.6983  0.8723 -0.2609
  185SAPI   H3Y21241   4.444   2.424  10.090 -1.4753 -1.8195 -1.0314
  185SAPI   C3421242   4.486   2.342   9.890  0.3295 -0.8663 -0.2465
  185SAPI   H4X21243   4.568   2.282   9.846  0.2165 -0.3645 -1.1461
  185SAPI   H4Y21244   4.478   2.433   9.827  0.9617 -0.7339 -0.1355
  185SAPI   C3521245   4.357   2.259   9.873  0.3704 -0.5204 -0.0618
  185SAPI   H5X21246   4.278   2.327   9.911  2.8203  2.5029 -0.1745
  185SAPI   H5Y21247   4.362   2.171   9.941  1.2047  0.1241  0.7210
  185SAPI   C3621248   4.308   2.220   9.732  0.5279  0.3610  0.2832
  185SAPI   H6X21249   4.242   2.131   9.736 -0.2795  1.0503  4.3679
  185SAPI   H6Y21250   4.398   2.188   9.676 -0.0010 -0.5674 -0.0506
  185SAPI   C3721251   4.242   2.334   9.661 -0.3308  0.1704  0.0930
  185SAPI   H7X21252   4.321   2.407   9.634  1.0227 -1.7092 -1.2081
  185SAPI   H7Y21253   4.167   2.379   9.729 -2.9465 -1.8747 -1.3095
  185SAPI   C3821254   4.165   2.285   9.539 -0.0676 -0.3793 -0.2347
  185SAPI   H8X21255   4.108   2.374   9.507 -0.1398 -0.3357  0.0138
  185SAPI   H8Y21256   4.093   2.208   9.576 -1.4332 -1.2591 -4.4934
  185SAPI   C3921257   4.244   2.230   9.428 -0.3149  0.8577  0.7134
  185SAPI   H9X21258   4.207   2.132   9.390  1.3951  0.5332 -0.1290
  185SAPI   H9Y21259   4.343   2.195   9.464 -0.5156 -0.2265  0.2407
  185SAPI  C31021260   4.261   2.330   9.314  0.7302  0.3701 -0.1426
  185SAPI  H10X21261   4.288   2.429   9.357  2.1015  0.0975 -0.3796
  185SAPI  H10Y21262   4.159   2.343   9.272 -0.3526 -0.2888  2.1768
  185SAPI  C31121263   4.339   2.279   9.200  0.3261  0.2167  0.1813
  185SAPI  H11X21264   4.299   2.179   9.175  0.2391  0.9705 -2.9487
  185SAPI  H11Y21265   4.444   2.259   9.231 -0.0568  0.1849  1.4845
  185SAPI  C31221266   4.343   2.386   9.085  0.3518 -0.3253  0.1482
  185SAPI  H12X21267   4.338   2.492   9.118 -0.0220 -0.0115 -0.8979
  185SAPI  H12Y21268   4.241   2.369   9.044 -0.1117 -0.2832  1.2597
  185SAPI  C31321269   4.441   2.368   8.968  0.7002  0.0054 -0.2094
  185SAPI  H13X21270   4.545   2.367   9.007  0.9055  0.6184 -0.7257
  185SAPI  H13Y21271   4.439   2.463   8.911  0.3292  0.4080  0.4788
  185SAPI  C31421272   4.412   2.261   8.860 -0.2078  0.3387 -0.3959
  185SAPI  H14X21273   4.394   2.164   8.910  1.1804 -0.6996 -1.8678
  185SAPI  H14Y21274   4.508   2.254   8.805 -0.5190  0.9668 -1.0328
  185SAPI  C31521275   4.306   2.321   8.761  0.0106  0.1806  0.5551
  185SAPI  H15X21276   4.355   2.370   8.674 -2.0821  0.0160 -0.7549
  185SAPI  H15Y21277   4.252   2.405   8.809  0.2054  0.5712  0.0891
  185SAPI  C31621278   4.219   2.202   8.694  0.1606  0.7494 -0.3922
  185SAPI  H16X21279   4.168   2.143   8.773  2.0001  0.6289  0.7536
  185SAPI  H16Y21280   4.279   2.126   8.640  1.8908  0.9889  1.1250
  185SAPI  C31721281   4.101   2.255   8.609  0.3549 -0.2650  0.2509
  185SAPI  H17X21282   4.051   2.340   8.662  0.1724  0.5920 -1.2517
  185SAPI  H17Y21283   4.034   2.167   8.596  1.8533 -1.5014  0.7776
  185SAPI  C31821284   4.149   2.293   8.468 -0.2667 -0.2138 -0.9510
  185SAPI  H18X21285   4.178   2.201   8.413 -0.1389 -0.6009 -0.2481
  185SAPI  H18Y21286   4.240   2.356   8.462 -1.0175  1.0838  0.8990
  185SAPI  H18Z21287   4.074   2.337   8.399 -0.2040 -0.2659 -1.0507
  186SAPI   C1221288   6.199   6.418  10.950  0.1281  0.1278  0.2830
  186SAPI    H221289   6.099   6.368  10.949 -0.8779  2.0410  1.7810
  186SAPI    O221290   6.213   6.482  11.079  0.5324  0.4961  0.2590
  186SAPI   HO221291   6.136   6.540  11.077  0.7663  0.8239  0.6396
  186SAPI   C1321292   6.304   6.314  10.930 -0.1427  0.1791 -0.2375
  186SAPI    H321293   6.286   6.266  10.831 -0.0401 -0.5915  0.1191
  186SAPI    O321294   6.303   6.214  11.033  0.2443  0.0311  0.1477
  186SAPI   HO321295   6.276   6.266  11.108 -2.6457 -1.2106  0.0263
  186SAPI   C1421296   6.442   6.384  10.935 -0.6568  0.8337 -0.9650
  186SAPI    H421297   6.457   6.434  11.033  0.7730 -2.6602  0.6692
  186SAPI    O421298   6.548   6.288  10.919 -0.7116  0.5964  0.7108
  186SAPI   HO421299   6.630   6.319  10.959  1.5828 -1.1922 -2.4047
  186SAPI   C1521300   6.460   6.487  10.837 -0.3362 -0.5294  0.4108
  186SAPI    H521301   6.460   6.446  10.734  0.0190  1.0918 -0.2445
  186SAPI    O521302   6.584   6.558  10.855 -0.1969  0.4369  0.4700
  186SAPI   HO521303   6.645   6.527  10.788 -1.1067 -1.0460  0.3099
  186SAPI   C1621304   6.340   6.589  10.842 -0.9296 -0.0362  0.6961
  186SAPI    H621305   6.357   6.658  10.928 -0.6906  0.0524  0.5757
  186SAPI    O621306   6.347   6.675  10.727 -0.5330  0.1944 -0.3509
  186SAPI   HO621307   6.288   6.750  10.738 -1.5186 -0.7410  0.8775
  186SAPI   C1121308   6.204   6.514  10.838 -0.8951  0.5171 -0.4507
  186SAPI    H121309   6.200   6.457  10.743  0.1244  1.4623 -1.0722
  186SAPI     P21310   5.959   6.588  10.738  0.0878  0.1029 -0.3230
  186SAPI   O1321311   5.855   6.678  10.792 -0.0489 -0.0893  0.2252
  186SAPI   O1421312   5.916   6.454  10.702 -0.5140 -0.1358  0.7250
  186SAPI   O1221313   6.086   6.596  10.838 -0.3254 -0.0340 -0.8203
  186SAPI   O1121314   6.019   6.660  10.613  0.8792  0.4923 -0.2524
  186SAPI    C121315   6.102   6.581  10.516  0.2029  0.3746  0.3374
  186SAPI    HA21316   6.206   6.617  10.515  0.0352  0.8607 -1.7876
  186SAPI    HB21317   6.096   6.471  10.537  0.5140  0.3753  0.4276
  186SAPI    C221318   6.045   6.609  10.369 -0.3737 -0.7312 -0.1234
  186SAPI    HS21319   6.020   6.715  10.349 -2.7004 -0.8539  1.8348
  186SAPI   O2121320   5.920   6.536  10.351 -1.2964 -0.0015  0.0651
  186SAPI   C2121321   5.807   6.597  10.376 -0.2877  0.1082 -0.5701
  186SAPI   O2221322   5.798   6.707  10.427  0.1718  0.1817 -0.0403
  186SAPI   C2221323   5.691   6.504  10.336 -0.6969  0.3252  0.1066
  186SAPI   H2R21324   5.717   6.448  10.243  0.2181  0.7712  0.0838
  186SAPI   H2S21325   5.682   6.423  10.411  2.2355  0.9666  1.2393
  186SAPI    C321326   6.153   6.547  10.274  0.0230  0.3517  0.4472
  186SAPI    HX21327   6.178   6.449  10.320 -0.6583 -0.0845 -0.0944
  186SAPI    HY21328   6.236   6.620  10.279  1.2695 -0.8000 -2.4424
  186SAPI   O3121329   6.106   6.522  10.144 -0.2074 -0.0921  0.6530
  186SAPI   C3121330   6.189   6.467  10.067  0.0148  0.2373 -0.5510
  186SAPI   O3221331   6.304   6.422  10.087  0.2649  0.4069  0.1063
  186SAPI   C3221332   6.124   6.448   9.931 -0.1522 -0.0201  0.1769
  186SAPI   H2X21333   6.045   6.519   9.900 -1.1748 -2.1340 -2.2664
  186SAPI   H2Y21334   6.079   6.346   9.935  0.9968 -0.5162  0.7598
  186SAPI   C2321335   5.549   6.570  10.333 -0.3478  0.4265  0.4691
  186SAPI   H3R21336   5.541   6.646  10.413 -1.6282  0.2953  0.4854
  186SAPI   H3S21337   5.485   6.481  10.353  2.0633 -2.4456 -3.8472
  186SAPI   C2421338   5.502   6.620  10.195 -0.0540 -0.5528  0.2727
  186SAPI   H4R21339   5.400   6.664  10.198  0.6363  1.0288  0.7059
  186SAPI   H4S21340   5.506   6.524  10.139 -0.3471  0.0027 -0.7067
  186SAPI   C2521341   5.599   6.727  10.142  0.3245 -0.1543  0.1839
  186SAPI   H5R21342   5.667   6.775  10.213  1.2356  0.7626 -1.2856
  186SAPI   C2621343   5.608   6.759  10.013  0.5812  0.2645 -0.2222
  186SAPI   H6R21344   5.677   6.842   9.993  1.7108 -0.6812 -0.2707
  186SAPI   C2721345   5.536   6.700   9.895 -0.3757 -0.5189  0.4124
  186SAPI   H7R21346   5.496   6.785   9.835  2.3975 -1.3808 -2.8397
  186SAPI   H7S21347   5.462   6.627   9.935 -0.0405  0.3329  2.6459
  186SAPI   C2821348   5.645   6.624   9.828 -0.0017  0.3357 -0.0960
  186SAPI   H8R21349   5.707   6.565   9.898  0.0173  1.7349  1.0910
  186SAPI   C2921350   5.699   6.654   9.709 -0.4298 -0.4648 -0.2708
  186SAPI   H9R21351   5.767   6.582   9.661  0.1866  0.6476 -1.0838
  186SAPI  C21021352   5.656   6.755   9.613  0.1598 -0.3789  0.5931
  186SAPI  H10R21353   5.746   6.774   9.551 -0.9088 -0.8395 -1.1217
  186SAPI  H10S21354   5.641   6.852   9.665  0.1624  0.4909 -1.0062
  186SAPI  C21121355   5.545   6.722   9.515 -0.3874 -0.0421 -0.2837
  186SAPI  H11R21356   5.468   6.674   9.576 -0.8581  1.0533 -0.0050
  186SAPI  C21221357   5.534   6.744   9.381 -0.7019  0.5494  0.0977
  186SAPI  H12R21358   5.439   6.724   9.329 -1.4505 -0.8957  1.9432
  186SAPI  C21321359   5.644   6.805   9.294 -0.4851 -0.8939  0.4644
  186SAPI  H13R21360   5.701   6.880   9.353  1.4270 -1.1639 -0.9975
  186SAPI  H13S21361   5.580   6.867   9.228 -3.4132 -3.7915  0.4377
  186SAPI  C21421362   5.747   6.706   9.240  0.2441  0.4661 -0.5271
  186SAPI  H14R21363   5.746   6.602   9.275 -2.7355  0.6985  0.2119
  186SAPI  C21521364   5.825   6.744   9.135  0.3928 -0.2717  0.4405
  186SAPI  H15R21365   5.883   6.675   9.072  1.6763  3.1864 -2.3246
  186SAPI  C21621366   5.836   6.880   9.063  0.2132  0.3862 -0.1819
  186SAPI  H16R21367   5.935   6.931   9.065  0.5002 -0.1349 -0.6424
  186SAPI  H16S21368   5.760   6.945   9.109  0.0908  0.0581  0.0764
  186SAPI  C21721369   5.807   6.857   8.914 -0.1687  0.6805  0.8743
  186SAPI  H17R21370   5.696   6.845   8.911 -0.3550  1.9004  2.2978
  186SAPI  H17S21371   5.865   6.771   8.873 -0.5395  1.2580 -0.9279
  186SAPI  C21821372   5.834   6.974   8.823 -0.0504 -0.0648  0.1135
  186SAPI  H18R21373   5.936   7.014   8.843  0.2058  0.1731 -1.6160
  186SAPI  H18S21374   5.759   7.051   8.851  0.8909  1.6161 -1.8254
  186SAPI  C21921375   5.825   6.938   8.667  0.3202  0.6067 -0.4536
  186SAPI  H19R21376   5.902   6.865   8.633  1.4696  0.4646  2.3720
  186SAPI  H19S21377   5.859   7.031   8.617 -3.1808  1.8444 -0.6367
  186SAPI  C22021378   5.696   6.898   8.609 -1.0899 -0.1373 -0.7855
  186SAPI  H20R21379   5.621   6.978   8.628 -2.0197 -1.3042  0.6273
  186SAPI  H20S21380   5.656   6.802   8.649 -0.2246 -0.2650 -0.2046
  186SAPI  H20T21381   5.700   6.898   8.498  1.0495 -0.4450 -0.7287
  186SAPI   C3321382   6.239   6.449   9.828 -0.1305 -0.1086  0.6124
  186SAPI   H3X21383   6.326   6.385   9.856 -0.3135 -0.6511 -0.0433
  186SAPI   H3Y21384   6.275   6.552   9.812  0.2408 -0.1314  1.2866
  186SAPI   C3421385   6.197   6.387   9.689 -0.8987  0.6497 -0.2203
  186SAPI   H4X21386   6.108   6.446   9.661 -0.4457  1.5593  0.2302
  186SAPI   H4Y21387   6.165   6.282   9.702  1.0945  0.0440  0.0458
  186SAPI   C3521388   6.312   6.384   9.593  0.3254 -0.8342  0.6898
  186SAPI   H5X21389   6.410   6.364   9.642 -1.1275 -0.9966  3.6547
  186SAPI   H5Y21390   6.316   6.491   9.563 -2.0617  0.0754  3.3839
  186SAPI   C3621391   6.300   6.294   9.471 -0.9396 -0.1505  0.4949
  186SAPI   H6X21392   6.200   6.296   9.422 -1.2236 -0.9323  1.0437
  186SAPI   H6Y21393   6.324   6.189   9.496 -1.4461 -0.2468  0.5767
  186SAPI   C3721394   6.396   6.336   9.356  0.5004 -0.1484 -0.0391
  186SAPI   H7X21395   6.504   6.329   9.380  0.4274  0.4026  0.4458
  186SAPI   H7Y21396   6.388   6.447   9.352 -1.2053 -0.2707 -0.3126
  186SAPI   C3821397   6.367   6.260   9.224  0.5441 -0.4468 -0.1157
  186SAPI   H8X21398   6.352   6.150   9.237  2.9605 -0.6655  0.9804
  186SAPI   H8Y21399   6.440   6.280   9.142 -2.1429  1.5083 -2.1354
  186SAPI   C3921400   6.238   6.315   9.162  0.6271 -0.3833 -0.4316
  186SAPI   H9X21401   6.146   6.299   9.222  0.9735 -1.0812 -0.0887
  186SAPI   H9Y21402   6.232   6.252   9.071  2.5423 -0.6859 -0.3727
  186SAPI  C31021403   6.252   6.462   9.131 -0.4049 -0.3181  0.1199
  186SAPI  H10X21404   6.357   6.499   9.131 -0.4694 -0.1320 -0.4607
  186SAPI  H10Y21405   6.194   6.531   9.196 -0.9630 -1.0644  0.4204
  186SAPI  C31121406   6.190   6.489   9.001  0.7723 -0.0034  0.4519
  186SAPI  H11X21407   6.085   6.453   8.996  1.1390 -1.2006  1.0955
  186SAPI  H11Y21408   6.257   6.447   8.923  1.3723  1.2642  0.2784
  186SAPI  C31221409   6.181   6.639   8.959  0.0060 -0.0096  0.2631
  186SAPI  H12X21410   6.287   6.670   8.960 -0.3819  1.4447  2.8883
  186SAPI  H12Y21411   6.132   6.689   9.046  0.8878  0.1329  0.6827
  186SAPI  C31321412   6.108   6.662   8.819 -0.4104  0.0351 -0.5462
  186SAPI  H13X21413   6.102   6.772   8.804 -4.7805 -0.0706 -0.2046
  186SAPI  H13Y21414   6.003   6.626   8.816 -0.7234  1.0452 -2.5395
  186SAPI  C31421415   6.177   6.586   8.707 -0.0692  0.8639  0.1294
  186SAPI  H14X21416   6.168   6.476   8.720 -0.4182  0.8795  0.0206
  186SAPI  H14Y21417   6.288   6.595   8.703 -0.0908  0.4703 -2.6619
  186SAPI  C31521418   6.122   6.615   8.564  0.0282 -0.0316 -0.0708
  186SAPI  H15X21419   6.131   6.724   8.541 -2.5898 -0.1493 -1.7367
  186SAPI  H15Y21420   6.013   6.595   8.561 -0.1305  0.9661 -1.7278
  186SAPI  C31621421   6.183   6.533   8.450 -0.2615  0.1143  0.1163
  186SAPI  H16X21422   6.208   6.433   8.492 -0.9856 -0.4236 -0.7053
  186SAPI  H16Y21423   6.280   6.580   8.425 -0.3493  0.5321  0.5704
  186SAPI  C31721424   6.110   6.511   8.323  0.0968  0.2261  0.0579
  186SAPI  H17X21425   6.010   6.468   8.346 -0.1601  1.5829  1.5350
  186SAPI  H17Y21426   6.145   6.427   8.260  2.0729  0.5464  0.7075
  186SAPI  C31821427   6.097   6.643   8.242 -0.4192  0.3843  0.4040
  186SAPI  H18X21428   6.068   6.624   8.137  1.9125 -0.7035 -0.0716
  186SAPI  H18Y21429   6.186   6.708   8.234  0.8588 -1.1325  1.9282
  186SAPI  H18Z21430   6.021   6.710   8.288  0.0733  1.7784 -0.7957
  187SAPI   C1221431   1.945   1.026   6.087 -0.2524 -0.3604 -0.8197
  187SAPI    H221432   2.047   1.068   6.074 -0.1476  0.1846  1.4391
  187SAPI    O221433   1.853   1.108   6.023 -0.8336 -0.5162  0.2355
  187SAPI   HO221434   1.910   1.167   5.973  1.0520 -1.0026  1.7652
  187SAPI   C1321435   1.938   0.889   6.026 -0.1000 -0.0007 -0.7550
  187SAPI    H321436   2.011   0.830   6.086 -1.6727 -0.1489  1.0503
  187SAPI    O321437   1.980   0.891   5.887  0.9116  0.4755 -0.1860
  187SAPI   HO321438   1.986   0.801   5.854  1.4315 -0.8270  3.2341
  187SAPI   C1421439   1.803   0.826   6.046 -0.7012 -0.4851 -0.4668
  187SAPI    H421440   1.730   0.877   5.979  0.2789 -0.9768 -1.9286
  187SAPI    O421441   1.791   0.695   5.989  0.3753  0.1533  0.4197
  187SAPI   HO421442   1.820   0.638   6.061  0.5930 -1.7758 -1.1567
  187SAPI   C1521443   1.764   0.830   6.195  0.0456 -0.5641 -1.1120
  187SAPI    H521444   1.837   0.768   6.251 -2.7734 -0.0505  3.4214
  187SAPI    O521445   1.642   0.768   6.219  0.2877  0.1692 -0.4228
  187SAPI   HO521446   1.634   0.759   6.314  1.4596 -1.3931 -0.4423
  187SAPI   C1621447   1.776   0.970   6.252  0.5771  0.1419  0.2249
  187SAPI    H621448   1.698   1.036   6.209 -0.1547 -1.4774 -1.0280
  187SAPI    O621449   1.753   0.964   6.394 -0.3134 -0.5478 -0.2098
  187SAPI   HO621450   1.792   1.042   6.434  1.1080 -0.0951 -2.4077
  187SAPI   C1121451   1.918   1.016   6.237  0.6655  0.1742  0.3762
  187SAPI    H121452   1.991   0.943   6.278 -0.4138 -0.6613  0.8384
  187SAPI     P21453   2.028   1.190   6.410 -0.0225 -0.1550 -0.1544
  187SAPI   O1321454   2.061   1.331   6.380 -0.0156 -1.1074  0.1507
  187SAPI   O1421455   2.145   1.105   6.426  0.1282  1.0447  0.2154
  187SAPI   O1221456   1.934   1.143   6.295 -0.4168  0.5149  0.3517
  187SAPI   O1121457   1.930   1.176   6.541 -0.1738 -0.4618 -0.2161
  187SAPI    C121458   1.829   1.275   6.562 -0.1332 -0.0577 -0.2829
  187SAPI    HA21459   1.855   1.372   6.514 -1.3852  0.0347 -0.7748
  187SAPI    HB21460   1.736   1.237   6.515 -0.9863  1.0304  0.5155
  187SAPI    C221461   1.790   1.295   6.716  0.1670 -0.5659 -0.1729
  187SAPI    HS21462   1.751   1.399   6.727 -0.3338 -0.6691 -0.9767
  187SAPI   O2121463   1.898   1.257   6.803  0.0287 -0.9577  0.0946
  187SAPI   C2121464   2.008   1.335   6.784  0.5984 -0.1310 -0.1781
  187SAPI   O2221465   1.998   1.442   6.725 -0.1915 -0.2404 -0.1202
  187SAPI   C2221466   2.132   1.275   6.850 -0.3635 -0.6047  0.6085
  187SAPI   H2R21467   2.155   1.179   6.799 -0.6275 -0.0791 -0.5246
  187SAPI   H2S21468   2.212   1.351   6.839 -0.6553 -0.2969  0.5951
  187SAPI    C321469   1.664   1.208   6.756 -0.2041  0.0986  0.4809
  187SAPI    HX21470   1.671   1.104   6.717 -1.5986 -0.1630  0.9127
  187SAPI    HY21471   1.588   1.261   6.696 -1.5322 -1.8337  0.4283
  187SAPI   O3121472   1.652   1.196   6.901  0.5322 -0.7213  0.1322
  187SAPI   C3121473   1.565   1.279   6.959  0.4468  0.2378  0.1140
  187SAPI   O3221474   1.513   1.370   6.899 -0.2868 -0.2322 -0.4335
  187SAPI   C3221475   1.531   1.229   7.102 -1.1533 -0.2149  1.6219
  187SAPI   H2X21476   1.591   1.136   7.117  0.6436  0.2573 -2.0818
  187SAPI   H2Y21477   1.421   1.218   7.111 -1.2853 -0.5189 -0.1421
  187SAPI   C2321478   2.116   1.250   7.003 -0.0269 -0.7285  0.4041
  187SAPI   H3R21479   2.219   1.219   7.030  0.7687  1.4704 -0.0421
  187SAPI   H3S21480   2.050   1.162   7.019  0.3154 -0.7318  1.8064
  187SAPI   C2421481   2.071   1.376   7.075 -0.2900  0.1486 -0.2313
  187SAPI   H4R21482   2.071   1.335   7.178 -0.8383 -0.9099 -0.6471
  187SAPI   H4S21483   1.966   1.395   7.043 -0.4522  1.4030  0.9861
  187SAPI   C2521484   2.151   1.501   7.053 -0.4212  0.6328 -1.0087
  187SAPI   H5R21485   2.158   1.538   6.949  3.2821  1.0263 -0.6765
  187SAPI   C2621486   2.230   1.554   7.147 -0.5467  0.1628 -0.4260
  187SAPI   H6R21487   2.286   1.646   7.123 -0.2670 -0.2946 -1.5469
  187SAPI   C2721488   2.244   1.502   7.290  0.5092  0.1806 -1.0475
  187SAPI   H7R21489   2.262   1.395   7.266 -1.8960 -0.8304  1.3717
  187SAPI   H7S21490   2.142   1.499   7.333  0.8011  1.3099 -0.2416
  187SAPI   C2821491   2.345   1.571   7.379  0.5333  0.6640  0.6077
  187SAPI   H8R21492   2.439   1.609   7.337  0.9140 -1.2971 -0.4152
  187SAPI   C2921493   2.327   1.584   7.511 -0.0264 -0.8822  0.0809
  187SAPI   H9R21494   2.402   1.638   7.572  0.7336 -1.1490 -0.6052
  187SAPI  C21021495   2.221   1.533   7.598  0.1953  0.1021 -0.7787
  187SAPI  H10R21496   2.120   1.540   7.552 -0.0286 -2.7463 -0.8017
  187SAPI  H10S21497   2.221   1.589   7.695  3.6396 -2.5491  0.8333
  187SAPI  C21121498   2.239   1.384   7.625 -0.9352 -0.2067  0.3814
  187SAPI  H11R21499   2.254   1.314   7.542  2.4133  0.8075  0.0629
  187SAPI  C21221500   2.223   1.326   7.749 -0.3587 -0.5270  0.6096
  187SAPI  H12R21501   2.262   1.226   7.770  2.6853  0.5195  0.2504
  187SAPI  C21321502   2.205   1.400   7.877 -0.6436 -0.3020 -0.1019
  187SAPI  H13R21503   2.263   1.494   7.869  1.1953 -1.4416 -0.3990
  187SAPI  H13S21504   2.260   1.331   7.944  1.6532  0.7104 -0.9058
  187SAPI  C21421505   2.063   1.444   7.889  0.0265  0.5431 -0.2804
  187SAPI  H14R21506   1.995   1.427   7.804 -1.5746  2.3153  0.5856
  187SAPI  C21521507   2.009   1.468   8.006  0.3092  0.0974 -0.0390
  187SAPI  H15R21508   1.900   1.487   8.010  0.1638 -0.5723 -0.8174
  187SAPI  C21621509   2.070   1.474   8.142  0.1980  0.3988 -0.6907
  187SAPI  H16R21510   2.066   1.579   8.176  2.2703 -0.7006  3.2930
  187SAPI  H16S21511   2.178   1.449   8.136  0.4545  1.3348 -0.1467
  187SAPI  C21721512   1.994   1.388   8.240 -0.8128  0.0659  0.5070
  187SAPI  H17R21513   1.884   1.404   8.234 -0.8872 -1.3647 -2.5248
  187SAPI  H17S21514   2.036   1.402   8.342 -1.6962  0.3871  0.8320
  187SAPI  C21821515   2.026   1.237   8.207  0.1719 -0.2144 -0.2647
  187SAPI  H18R21516   2.133   1.210   8.205  0.5487  1.2700 -1.4143
  187SAPI  H18S21517   1.991   1.220   8.103  0.5427 -1.8516 -0.1361
  187SAPI  C21921518   1.954   1.142   8.295 -0.3443 -0.0410 -1.0737
  187SAPI  H19R21519   1.864   1.188   8.340  0.2749 -0.2783  0.4374
  187SAPI  H19S21520   2.020   1.119   8.382  0.4132  0.6310 -1.4666
  187SAPI  C22021521   1.904   1.020   8.223  0.3061  0.0627  0.1328
  187SAPI  H20R21522   1.817   1.050   8.160  0.7375  2.4175  0.5974
  187SAPI  H20S21523   1.873   0.946   8.299  2.3267 -1.3770 -0.4145
  187SAPI  H20T21524   1.976   0.967   8.159  0.9971 -0.0828  1.0204
  187SAPI   C3321525   1.575   1.338   7.203 -0.0883 -0.1980 -0.2553
  187SAPI   H3X21526   1.507   1.425   7.193 -0.8615 -0.8710 -0.9703
  187SAPI   H3Y21527   1.679   1.376   7.190 -0.5624  1.6780  1.2261
  187SAPI   C3421528   1.560   1.269   7.339  0.1940  0.5710  0.0571
  187SAPI   H4X21529   1.611   1.170   7.343 -1.8803 -0.6154 -2.1158
  187SAPI   H4Y21530   1.451   1.249   7.336  0.4553 -1.0313  0.9775
  187SAPI   C3521531   1.590   1.351   7.461 -0.8451 -0.1736  0.0935
  187SAPI   H5X21532   1.548   1.453   7.451 -0.7587 -0.1154  0.3196
  187SAPI   H5Y21533   1.699   1.355   7.442 -0.7276 -0.4363  0.7192
  187SAPI   C3621534   1.551   1.288   7.592  0.7067 -0.2284  0.4139
  187SAPI   H6X21535   1.572   1.179   7.600  1.3327  0.0012  1.9344
  187SAPI   H6Y21536   1.440   1.297   7.602  0.7393 -0.0445  0.6124
  187SAPI   C3721537   1.619   1.350   7.719 -0.3124  0.1930 -0.7015
  187SAPI   H7X21538   1.617   1.461   7.712  0.1226  0.3612  1.7336
  187SAPI   H7Y21539   1.724   1.316   7.733 -0.8954 -1.4518 -0.2030
  187SAPI   C3821540   1.543   1.311   7.847 -0.1056  0.9784  0.3045
  187SAPI   H8X21541   1.508   1.209   7.818 -0.0353  1.1636 -0.4521
  187SAPI   H8Y21542   1.450   1.370   7.857 -0.9506 -0.3066  0.0683
  187SAPI   C3921543   1.634   1.309   7.972 -0.2091  0.1224  0.4116
  187SAPI   H9X21544   1.659   1.414   7.998 -0.0766 -0.1744  1.5126
  187SAPI   H9Y21545   1.732   1.264   7.948  0.7415  0.1338  3.9288
  187SAPI  C31021546   1.577   1.246   8.101 -0.3015  0.6810 -0.1500
  187SAPI  H10X21547   1.653   1.257   8.181 -0.5507 -2.0045  0.5299
  187SAPI  H10Y21548   1.566   1.135   8.092 -2.2450  0.8110  0.2842
  187SAPI  C31121549   1.449   1.312   8.162  0.8647  0.1395  0.0224
  187SAPI  H11X21550   1.359   1.289   8.100 -1.2449  2.4504  2.1316
  187SAPI  H11Y21551   1.467   1.421   8.162  0.8769  0.1406  1.7498
  187SAPI  C31221552   1.412   1.268   8.310  0.3100  0.7829 -0.2980
  187SAPI  H12X21553   1.421   1.157   8.311 -1.5730  0.6295  2.1555
  187SAPI  H12Y21554   1.302   1.274   8.319  0.1889 -0.5920 -0.6816
  187SAPI  C31321555   1.484   1.339   8.421  0.1281 -0.0321 -0.4079
  187SAPI  H13X21556   1.438   1.441   8.430  0.9412  0.2565  0.5154
  187SAPI  H13Y21557   1.589   1.339   8.386  0.2672 -0.5472  0.0186
  187SAPI  C31421558   1.501   1.256   8.557  0.1834 -0.0061 -0.1527
  187SAPI  H14X21559   1.402   1.207   8.573 -1.8760  2.9044 -3.1943
  187SAPI  H14Y21560   1.522   1.321   8.645 -2.6516 -0.3560  0.8295
  187SAPI  C31521561   1.606   1.147   8.545 -0.0195 -0.1528  0.3427
  187SAPI  H15X21562   1.702   1.202   8.544 -1.3877  2.2918 -1.1363
  187SAPI  H15Y21563   1.590   1.097   8.447  1.1076 -1.4049  0.7753
  187SAPI  C31621564   1.615   1.039   8.661 -0.1108 -1.3748  0.5149
  187SAPI  H16X21565   1.514   0.994   8.672  0.0486 -1.2654  2.4957
  187SAPI  H16Y21566   1.636   1.089   8.757  0.7043 -1.9730  0.6584
  187SAPI  C31721567   1.711   0.922   8.624 -0.2063 -0.3258  0.0356
  187SAPI  H17X21568   1.811   0.962   8.599 -0.0986 -0.4499  0.2716
  187SAPI  H17Y21569   1.673   0.869   8.534  2.5952 -1.8636 -0.2709
  187SAPI  C31821570   1.728   0.813   8.730  0.1491  0.5978 -0.5163
  187SAPI  H18X21571   1.730   0.860   8.831  2.9278 -0.8194  0.1478
  187SAPI  H18Y21572   1.813   0.745   8.709  0.9881  1.6715 -0.6894
  187SAPI  H18Z21573   1.642   0.743   8.728  0.8975 -0.3103 -2.7037
  188SAPI   C1221574   4.153   4.594   6.468 -0.0845 -0.1104 -0.0380
  188SAPI    H221575   4.112   4.630   6.565 -1.5974 -1.4620 -0.1591
  188SAPI    O221576   4.081   4.646   6.356  0.3114  0.0418 -0.2021
  188SAPI   HO221577   4.022   4.716   6.386  0.1277  0.9045 -2.4451
  188SAPI   C1321578   4.305   4.638   6.474  0.3318 -0.1145  0.2264
  188SAPI    H321579   4.350   4.606   6.571 -0.8956  0.1955  0.9142
  188SAPI    O321580   4.308   4.779   6.473  0.1879 -0.7319  0.4656
  188SAPI   HO321581   4.244   4.802   6.406  2.0776  2.2201 -0.4442
  188SAPI   C1421582   4.382   4.580   6.365  0.2950  0.2877  0.1145
  188SAPI    H421583   4.351   4.618   6.266  0.0787  0.4962  0.2612
  188SAPI    O421584   4.522   4.617   6.372  0.3210 -0.0474  0.1590
  188SAPI   HO421585   4.529   4.711   6.355 -1.5247  0.1169  0.1819
  188SAPI   C1521586   4.374   4.428   6.351  0.6362 -0.5397  0.3604
  188SAPI    H521587   4.410   4.379   6.443  0.2148  1.9166  1.8882
  188SAPI    O521588   4.452   4.374   6.246 -0.0147  0.3380 -0.0552
  188SAPI   HO521589   4.545   4.396   6.259  0.3118 -1.6950  1.1960
  188SAPI   C1621590   4.232   4.383   6.352  0.4667 -0.1453  0.2158
  188SAPI    H621591   4.191   4.418   6.255  0.9220 -1.3702 -0.4344
  188SAPI    O621592   4.226   4.242   6.351 -0.4711 -0.6229 -0.0933
  188SAPI   HO621593   4.167   4.222   6.423 -1.3058  2.4499  0.1524
  188SAPI   C1121594   4.150   4.433   6.470 -0.2731 -0.8029  0.3677
  188SAPI    H121595   4.204   4.402   6.562 -1.7222 -1.5212  0.9845
  188SAPI     P21596   3.962   4.260   6.557 -0.6406  0.5532 -0.1424
  188SAPI   O1321597   4.067   4.156   6.534 -0.2709  0.5145  0.1172
  188SAPI   O1421598   3.819   4.227   6.530 -0.1178 -0.7373  0.4565
  188SAPI   O1221599   4.009   4.393   6.482 -0.4556 -0.3271  0.4361
  188SAPI   O1121600   3.969   4.311   6.714 -0.4324 -0.1794 -0.5764
  188SAPI    C121601   3.856   4.384   6.767 -0.2347 -0.3789  0.1256
  188SAPI    HA21602   3.795   4.434   6.690  0.7585 -1.7193 -1.5840
  188SAPI    HB21603   3.784   4.313   6.813 -1.0266 -1.3667 -2.5443
  188SAPI    C221604   3.907   4.480   6.874  0.3354  0.1105  0.0495
  188SAPI    HS21605   3.823   4.529   6.928  0.6932  1.0356 -0.2332
  188SAPI   O2121606   3.998   4.581   6.821  0.1004 -0.0608  0.0945
  188SAPI   C2121607   3.978   4.706   6.855 -0.3726  0.3787  0.0928
  188SAPI   O2221608   3.891   4.742   6.929  0.8458 -0.4896  0.2955
  188SAPI   C2221609   4.080   4.802   6.788  0.0060 -0.2206  0.4515
  188SAPI   H2R21610   4.064   4.804   6.678 -0.5229 -2.5774  0.4779
  188SAPI   H2S21611   4.038   4.901   6.817 -0.8974 -0.0589 -1.3281
  188SAPI    C321612   3.974   4.397   6.984 -0.7839  0.1540 -0.4039
  188SAPI    HX21613   4.055   4.336   6.940 -0.0750  1.4392 -0.8953
  188SAPI    HY21614   3.901   4.327   7.031  0.1833  0.2660  1.2887
  188SAPI   O3121615   4.040   4.478   7.082 -0.1424  0.2010  0.0754
  188SAPI   C3121616   3.980   4.504   7.195 -0.6428 -0.5442 -0.3043
  188SAPI   O3221617   3.868   4.474   7.231 -0.3230  0.3668  0.3129
  188SAPI   C3221618   4.082   4.573   7.282  0.7994  0.4673 -0.3010
  188SAPI   H2X21619   4.041   4.675   7.292 -0.8017 -0.4092  2.9358
  188SAPI   H2Y21620   4.174   4.588   7.222  0.9645  3.1905  0.5610
  188SAPI   C2321621   4.230   4.787   6.828  0.2698 -0.0252 -0.0535
  188SAPI   H3R21622   4.287   4.841   6.749 -0.1199 -0.7881 -0.8647
  188SAPI   H3S21623   4.256   4.680   6.813  0.3564 -0.1602  1.0433
  188SAPI   C2421624   4.265   4.840   6.971  0.0258 -0.2059  1.0722
  188SAPI   H4R21625   4.372   4.819   6.994  0.3201  0.6335  0.5046
  188SAPI   H4S21626   4.197   4.791   7.043 -2.2693 -0.6104 -1.2969
  188SAPI   C2521627   4.220   4.993   6.964 -0.9856  0.0183 -0.3762
  188SAPI   H5R21628   4.242   5.050   6.872 -0.9239 -2.1627 -1.7503
  188SAPI   C2621629   4.165   5.055   7.075  0.0802 -0.6762 -0.0200
  188SAPI   H6R21630   4.123   5.156   7.066  0.1358 -0.4683  1.9256
  188SAPI   C2721631   4.127   4.995   7.216 -0.1955  0.3384  0.1154
  188SAPI   H7R21632   4.222   4.990   7.274  0.7683  1.9469 -1.2645
  188SAPI   H7S21633   4.098   4.891   7.194  1.2604  0.0654 -0.5931
  188SAPI   C2821634   4.011   5.057   7.290  0.0769 -1.0369 -0.4023
  188SAPI   H8R21635   3.925   5.094   7.232 -0.9547 -3.1001 -0.2370
  188SAPI   C2921636   4.002   5.055   7.425 -0.5005  0.9384 -0.6903
  188SAPI   H9R21637   3.915   5.103   7.473  0.0218 -0.8657  2.1684
  188SAPI  C21021638   4.111   4.996   7.515 -0.5060  0.3027 -0.6099
  188SAPI  H10R21639   4.118   4.888   7.493 -3.1055  0.2754 -1.5487
  188SAPI  H10S21640   4.067   4.998   7.617  0.7522  0.9669 -0.0778
  188SAPI  C21121641   4.237   5.075   7.516  0.4839 -0.0596 -0.2324
  188SAPI  H11R21642   4.237   5.151   7.437 -2.1972  0.1328 -0.0806
  188SAPI  C21221643   4.321   5.085   7.618 -0.5761  0.0358 -0.2953
  188SAPI  H12R21644   4.413   5.145   7.613 -1.0088  0.8590  1.1817
  188SAPI  C21321645   4.320   5.006   7.750  0.4403  0.8772 -0.5924
  188SAPI  H13R21646   4.422   4.968   7.771 -0.7998 -1.9213  0.7563
  188SAPI  H13S21647   4.247   4.924   7.732  0.0822  0.9674  0.3819
  188SAPI  C21421648   4.276   5.090   7.871  0.4564 -0.3607  0.1763
  188SAPI  H14R21649   4.356   5.158   7.905  0.3770  0.4023 -1.1385
  188SAPI  C21521650   4.156   5.102   7.922  0.0145  1.0339  0.0804
  188SAPI  H15R21651   4.143   5.163   8.013 -0.6072  1.0494 -0.0180
  188SAPI  C21621652   4.024   5.032   7.883 -0.6568 -0.2703 -0.1117
  188SAPI  H16R21653   3.989   4.982   7.976 -0.2521 -1.5434 -0.6324
  188SAPI  H16S21654   4.031   4.955   7.803 -0.4320 -0.7182  0.3293
  188SAPI  C21721655   3.910   5.126   7.842 -0.1956 -0.0264  0.1891
  188SAPI  H17R21656   3.930   5.195   7.757 -0.9604 -0.3963 -0.3045
  188SAPI  H17S21657   3.874   5.182   7.931  0.8669  0.7013  0.1653
  188SAPI  C21821658   3.793   5.054   7.785  0.0733 -0.5412  0.1478
  188SAPI  H18R21659   3.755   4.977   7.856 -2.4890  1.5135  1.0692
  188SAPI  H18S21660   3.831   5.010   7.690 -1.5678 -0.0338 -0.7690
  188SAPI  C21921661   3.678   5.143   7.740  0.2461  0.0719  0.0181
  188SAPI  H19R21662   3.723   5.210   7.663  0.8515  1.4047  1.4987
  188SAPI  H19S21663   3.629   5.208   7.815  1.2967  2.5874 -1.3988
  188SAPI  C22021664   3.573   5.056   7.667 -0.6200 -0.8929  0.0342
  188SAPI  H20R21665   3.471   5.100   7.678 -0.2126  0.2884 -0.8637
  188SAPI  H20S21666   3.567   4.955   7.714  0.2009 -0.9818 -0.0464
  188SAPI  H20T21667   3.593   5.033   7.561  1.2168  1.2162 -0.1189
  188SAPI   C3321668   4.102   4.511   7.420  0.2082 -0.1344 -0.0897
  188SAPI   H3X21669   4.146   4.411   7.400  0.2537 -0.0885 -0.2192
  188SAPI   H3Y21670   4.005   4.499   7.473 -0.6063  3.5115 -0.6034
  188SAPI   C3421671   4.199   4.582   7.512  0.2239  0.1211  0.2986
  188SAPI   H4X21672   4.169   4.688   7.530  0.7378  0.4820 -0.9372
  188SAPI   H4Y21673   4.298   4.592   7.463 -0.4900  1.9279 -0.8071
  188SAPI   C3521674   4.218   4.507   7.644 -0.4839 -0.0979  0.3134
  188SAPI   H5X21675   4.297   4.430   7.627  2.7201  3.6738 -2.6635
  188SAPI   H5Y21676   4.119   4.470   7.680 -0.8149  0.9066  0.4454
  188SAPI   C3621677   4.277   4.598   7.751 -0.6037 -0.1262 -0.0463
  188SAPI   H6X21678   4.210   4.685   7.768 -1.3929 -0.6741 -0.3017
  188SAPI   H6Y21679   4.377   4.638   7.724 -0.3820  1.2550  2.6652
  188SAPI   C3721680   4.295   4.524   7.885  0.2270 -0.0546 -0.3973
  188SAPI   H7X21681   4.359   4.434   7.884  1.9170  1.1171 -0.6552
  188SAPI   H7Y21682   4.201   4.482   7.926  1.1519 -1.9136 -0.1393
  188SAPI   C3821683   4.331   4.622   7.997 -0.4765  0.3424  0.5492
  188SAPI   H8X21684   4.259   4.704   8.014 -1.5020 -0.7169  1.3611
  188SAPI   H8Y21685   4.424   4.672   7.961 -0.5402 -1.0060 -1.5782
  188SAPI   C3921686   4.360   4.551   8.131 -0.6043 -0.3753  0.2880
  188SAPI   H9X21687   4.452   4.488   8.124 -1.4182 -1.5267 -0.1251
  188SAPI   H9Y21688   4.269   4.489   8.144 -0.4312 -0.7054 -0.0585
  188SAPI  C31021689   4.385   4.647   8.247 -1.0152  0.3551 -0.5522
  188SAPI  H10X21690   4.434   4.736   8.202 -1.7872  0.5243 -1.0661
  188SAPI  H10Y21691   4.472   4.613   8.307 -0.8418  1.7437  0.0105
  188SAPI  C31121692   4.276   4.693   8.342  0.2204 -0.2011 -0.3793
  188SAPI  H11X21693   4.185   4.727   8.288  0.4456  1.3660  0.1845
  188SAPI  H11Y21694   4.309   4.784   8.397  1.9811  0.1102 -1.9084
  188SAPI  C31221695   4.234   4.580   8.441  0.3848  0.0060  0.5885
  188SAPI  H12X21696   4.213   4.488   8.382 -0.1336 -0.5151  1.5743
  188SAPI  H12Y21697   4.143   4.611   8.497  1.0784  0.7674  1.3058
  188SAPI  C31321698   4.345   4.541   8.552  0.8529 -0.2778 -0.3198
  188SAPI  H13X21699   4.386   4.628   8.608  0.7058 -0.7906  0.6048
  188SAPI  H13Y21700   4.427   4.488   8.497  0.1892 -0.9791 -0.6417
  188SAPI  C31421701   4.284   4.437   8.648 -0.3650 -0.1821 -0.1733
  188SAPI  H14X21702   4.236   4.355   8.590 -1.7612 -0.8576  1.8733
  188SAPI  H14Y21703   4.204   4.482   8.711  0.7367  0.9988  0.4273
  188SAPI  C31521704   4.387   4.376   8.740  0.5775  0.3739 -0.3169
  188SAPI  H15X21705   4.488   4.378   8.692  2.2667  1.0577  3.1499
  188SAPI  H15Y21706   4.364   4.268   8.751  2.4186 -0.0508 -0.4278
  188SAPI  C31621707   4.410   4.465   8.862 -0.7120  0.1917  0.0736
  188SAPI  H16X21708   4.333   4.448   8.940 -0.4988 -0.6682  0.1064
  188SAPI  H16Y21709   4.411   4.569   8.822 -1.2914 -0.0135 -0.4856
  188SAPI  C31721710   4.554   4.437   8.917 -0.3102  0.5308 -0.3996
  188SAPI  H17X21711   4.591   4.342   8.874  1.9655  0.6147  1.3112
  188SAPI  H17Y21712   4.543   4.418   9.026  1.5279  1.1982 -0.0881
  188SAPI  C31821713   4.647   4.556   8.889  0.1837 -0.6998  0.3282
  188SAPI  H18X21714   4.635   4.585   8.783  2.4926 -2.4100 -0.4513
  188SAPI  H18Y21715   4.747   4.509   8.903  1.2110  0.1098 -3.6991
  188SAPI  H18Z21716   4.624   4.645   8.951 -1.9426 -0.5248 -0.6788
  189POPC     N21717   2.771   5.155  10.752  0.1740  0.4508 -0.0916
  189POPC   C1221718   2.765   5.085  10.885 -0.5849 -0.6324 -0.2816
  189POPC  H12A21719   2.667   5.045  10.907 -0.2906 -0.9540  0.4475
  189POPC  H12B21720   2.792   5.160  10.957 -4.2821  2.6371 -2.0746
  189POPC   C1321721   2.749   5.064  10.636  0.0108  0.5489 -0.0976
  189POPC  H13A21722   2.766   5.120  10.546 -1.1240 -0.4756 -0.9671
  189POPC  H13B21723   2.829   4.992  10.649 -0.6884 -0.2844 -0.4314
  189POPC  H13C21724   2.652   5.017  10.634 -0.2296  1.1240 -2.5922
  189POPC   C1421725   2.672   5.259  10.748 -0.3104  0.4085 -0.0056
  189POPC  H14A21726   2.667   5.312  10.842  1.4124 -2.1169  1.5487
  189POPC  H14B21727   2.702   5.334  10.676 -0.5028  1.8693  1.3973
  189POPC  H14C21728   2.579   5.224  10.705 -0.7901 -0.0562  1.4013
  189POPC   C1521729   2.906   5.213  10.737  0.4410 -0.1023  0.2074
  189POPC  H15A21730   2.913   5.249  10.635  0.6079 -0.7398 -0.0064
  189POPC  H15B21731   2.987   5.146  10.762 -0.3656 -0.7972  0.9695
  189POPC  H15C21732   2.915   5.296  10.806  0.8318  0.2891 -0.3136
  189POPC   C1121733   2.856   4.963  10.923  0.6429  1.0061 -0.3258
  189POPC  H11A21734   2.815   4.883  10.857 -1.1873  1.8944 -0.3154
  189POPC  H11B21735   2.826   4.958  11.030 -1.6003 -1.9060 -1.0191
  189POPC     P21736   3.092   4.867  10.932  0.3532 -0.1392 -0.1533
  189POPC   O1321737   3.033   4.752  10.863 -0.1233 -0.8496  0.1005
  189POPC   O1421738   3.119   4.849  11.076  0.2436  0.0656 -0.4528
  189POPC   O1221739   2.994   4.992  10.912 -0.6326 -0.1534 -0.0323
  189POPC   O1121740   3.228   4.914  10.867 -0.1711 -0.4473 -0.6152
  189POPC    C121741   3.241   5.004  10.761 -0.3879  0.7176 -0.2496
  189POPC    HA21742   3.349   5.025  10.745  0.0836 -0.3650  1.4000
  189POPC    HB21743   3.183   5.099  10.769 -2.5508 -0.5042 -0.8454
  189POPC    C221744   3.198   4.937  10.631 -0.6883  0.3161 -0.0548
  189POPC    HS21745   3.091   4.910  10.633 -1.0556  1.5563 -1.7316
  189POPC   O2121746   3.275   4.814  10.611  0.2925 -0.0274 -0.6837
  189POPC   C2121747   3.229   4.725  10.521 -0.7260 -0.2832 -0.3286
  189POPC   O2221748   3.120   4.726  10.468 -0.0590 -0.5433  0.5993
  189POPC   C2221749   3.344   4.628  10.497 -0.0630  0.5805 -1.1632
  189POPC   H2R21750   3.315   4.542  10.432  0.4065 -0.3827 -0.1081
  189POPC   H2S21751   3.373   4.580  10.592  0.5107 -0.1624 -1.7071
  189POPC    C321752   3.212   5.032  10.507 -0.4756  0.0013 -0.2242
  189POPC    HX21753   3.148   5.116  10.540 -0.1041  0.5421 -0.8655
  189POPC    HY21754   3.164   4.986  10.418 -0.7821 -1.5128  0.7055
  189POPC   O3121755   3.349   5.075  10.481  0.1461 -0.2297 -0.1879
  189POPC   C3121756   3.368   5.206  10.478  0.1721 -0.3486 -0.5177
  189POPC   O3221757   3.282   5.290  10.495  0.2722  0.3108  0.1045
  189POPC   C3221758   3.514   5.244  10.440  0.0603  0.5673  0.0608
  189POPC   H2X21759   3.583   5.164  10.472 -0.5110 -0.1656 -0.5329
  189POPC   H2Y21760   3.538   5.334  10.501 -1.4057  0.9456  0.1156
  189POPC   C2321761   3.472   4.695  10.435 -0.2985  0.5637  0.8852
  189POPC   H3R21762   3.555   4.628  10.464 -1.0237 -0.7157  0.0584
  189POPC   H3S21763   3.489   4.790  10.489  2.1693  1.1944 -0.8991
  189POPC   C2421764   3.481   4.697  10.278  0.9680  0.0945 -0.3853
  189POPC   H4R21765   3.458   4.596  10.240 -0.1183 -0.7689  2.4342
  189POPC   H4S21766   3.581   4.732  10.246  0.1727  1.1054 -1.8527
  189POPC   C2521767   3.375   4.791  10.220 -0.7081  0.2799 -0.0141
  189POPC   H5R21768   3.397   4.893  10.259  1.6126 -0.4858  0.7634
  189POPC   H5S21769   3.276   4.763  10.260 -0.6980  1.1298  0.6215
  189POPC   C2621770   3.360   4.777  10.069 -1.0085  0.2759 -0.0228
  189POPC   H6R21771   3.258   4.736  10.057 -0.0599 -1.8800 -1.0800
  189POPC   H6S21772   3.427   4.692  10.042 -0.6099  0.4052  0.5338
  189POPC   C2721773   3.389   4.904   9.990 -0.5419  0.5051 -0.1864
  189POPC   H7R21774   3.484   4.950  10.024  0.0558 -0.5739 -0.3694
  189POPC   H7S21775   3.307   4.975  10.015 -0.7530 -0.0999  0.9041
  189POPC   C2821776   3.387   4.888   9.838 -1.1006 -0.0583  0.5513
  189POPC   H8R21777   3.284   4.857   9.812 -0.2803 -0.7149 -2.0940
  189POPC   H8S21778   3.458   4.812   9.798  0.2231 -0.3643  3.2873
  189POPC   C2921779   3.417   5.016   9.767 -0.3369 -0.4345  0.3993
  189POPC   H9121780   3.437   5.105   9.828 -1.0296  0.5194 -0.7462
  189POPC  C21021781   3.429   5.026   9.636 -1.1387 -0.4711  1.1806
  189POPC  H10121782   3.449   5.129   9.601  0.2128 -0.7135  1.2024
  189POPC  C21121783   3.431   4.927   9.525  0.0569  0.1401 -0.3035
  189POPC  H11R21784   3.341   4.921   9.461 -0.1990  0.7395 -0.0079
  189POPC  H11S21785   3.429   4.827   9.573 -0.7426  1.4238  2.4474
  189POPC  C21221786   3.546   4.962   9.433 -0.6456  0.6088 -0.1393
  189POPC  H12R21787   3.632   4.922   9.490 -0.4880  0.7880 -0.2518
  189POPC  H12S21788   3.557   5.071   9.415  0.9456  0.4995  0.0738
  189POPC  C21321789   3.546   4.892   9.297  0.4680 -0.2540  0.0689
  189POPC  H13R21790   3.451   4.910   9.242 -0.2765 -1.1718  1.0299
  189POPC  H13S21791   3.553   4.786   9.328  1.2814  0.4178  2.2715
  189POPC  C21421792   3.669   4.924   9.215  0.6149 -0.3300  0.0535
  189POPC  H14R21793   3.758   4.885   9.268  1.7119  2.8509  0.6318
  189POPC  H14S21794   3.670   5.033   9.197 -1.2059 -0.6070 -1.9758
  189POPC  C21521795   3.672   4.861   9.072  0.1574  0.4652 -0.7601
  189POPC  H15R21796   3.596   4.902   9.002 -1.2900 -1.2687 -0.2430
  189POPC  H15S21797   3.650   4.752   9.073  0.1690  0.4610 -1.0044
  189POPC  C21621798   3.808   4.882   9.012  0.0273 -0.6050  0.4203
  189POPC  H16R21799   3.881   4.840   9.086 -0.0860 -1.4202  0.0794
  189POPC  H16S21800   3.840   4.988   9.007 -2.2942 -0.0174 -3.1639
  189POPC  C21721801   3.831   4.811   8.875 -0.8545 -0.9661 -0.4498
  189POPC  H17R21802   3.759   4.858   8.805  1.1125  1.8312 -0.6729
  189POPC  H17S21803   3.799   4.706   8.891 -3.2324  0.0558  1.9962
  189POPC  C21821804   3.971   4.833   8.819 -0.3833 -0.1478  0.4440
  189POPC  H18R21805   3.994   4.927   8.764 -2.8809  0.4327  0.3480
  189POPC  H18S21806   4.007   4.753   8.750 -0.9107 -0.7774  0.8922
  189POPC  H18T21807   4.045   4.831   8.902 -0.1817  1.0094  0.3029
  189POPC   C3321808   3.515   5.277  10.296  0.0988 -0.2422  0.5946
  189POPC   H3X21809   3.429   5.343  10.269 -1.3658 -2.1251  0.5951
  189POPC   H3Y21810   3.524   5.187  10.232  2.0246  0.1804  0.2389
  189POPC   C3421811   3.641   5.365  10.259  0.0141 -0.1405 -0.0885
  189POPC   H4X21812   3.722   5.290  10.270 -0.2803 -0.1716  2.0803
  189POPC   H4Y21813   3.655   5.445  10.335 -1.4802 -1.0737  1.1919
  189POPC   C3521814   3.620   5.428  10.121  0.3980 -1.0788 -0.3016
  189POPC   H5X21815   3.702   5.499  10.095 -0.9170 -0.1438 -1.9664
  189POPC   H5Y21816   3.534   5.498  10.125  1.7124  0.4824  1.3826
  189POPC   C3621817   3.596   5.344   9.995 -0.3082  0.3209 -0.0730
  189POPC   H6X21818   3.493   5.303  10.006 -0.0421 -0.1650  0.6421
  189POPC   H6Y21819   3.669   5.261   9.996 -1.1500 -0.4103  0.6307
  189POPC   C3721820   3.620   5.429   9.871 -0.1014 -0.9099  0.8525
  189POPC   H7X21821   3.723   5.468   9.882 -0.5876  0.8815 -0.7679
  189POPC   H7Y21822   3.545   5.512   9.871 -0.5461 -1.3040  0.3456
  189POPC   C3821823   3.618   5.341   9.750  0.3389  0.3927 -0.3362
  189POPC   H8X21824   3.518   5.299   9.728  0.3530 -0.2346  0.7516
  189POPC   H8Y21825   3.689   5.259   9.775  0.5919  1.0994  1.3407
  189POPC   C3921826   3.675   5.420   9.626 -0.7773  0.4691 -0.1908
  189POPC   H9X21827   3.774   5.449   9.665 -1.2418 -0.2182  1.5595
  189POPC   H9Y21828   3.612   5.509   9.605 -0.2537  0.9723  0.3638
  189POPC  C31021829   3.687   5.329   9.507  0.0436  0.0557  0.6551
  189POPC  H10X21830   3.590   5.327   9.453  0.3455  0.2994  0.0940
  189POPC  H10Y21831   3.704   5.221   9.524  0.2174  0.2336  1.6377
  189POPC  C31121832   3.781   5.375   9.401  0.1524 -0.4920 -0.0787
  189POPC  H11X21833   3.855   5.441   9.451 -0.5983  0.6492 -0.4479
  189POPC  H11Y21834   3.733   5.422   9.312  2.8691 -0.2208 -1.4479
  189POPC  C31221835   3.861   5.268   9.331  0.2214 -1.1555 -0.2429
  189POPC  H12X21836   3.782   5.197   9.300 -1.3246  0.2329  0.4268
  189POPC  H12Y21837   3.920   5.207   9.403  0.1950 -1.8879 -0.8470
  189POPC  C31321838   3.950   5.322   9.219  0.0662  0.3022  0.8831
  189POPC  H13X21839   4.019   5.240   9.189 -1.8504 -0.7798 -0.6555
  189POPC  H13Y21840   4.009   5.401   9.270  0.7525  0.0691  0.4609
  189POPC  C31421841   3.889   5.362   9.079 -0.7909 -0.6852 -0.9082
  189POPC  H14X21842   3.795   5.419   9.090 -0.7647 -1.1997  2.9148
  189POPC  H14Y21843   3.872   5.273   9.016 -1.6285 -0.7634 -0.5650
  189POPC  C31521844   3.994   5.443   9.006  0.1368  0.2214  0.0630
  189POPC  H15X21845   4.087   5.383   9.000 -0.0200 -0.0235  0.1088
  189POPC  H15Y21846   4.014   5.544   9.049  0.2936 -0.0879  0.7196
  189POPC  C31621847   3.955   5.460   8.862 -0.6336 -0.2539 -0.6831
  189POPC  H16X21848   3.881   5.542   8.860  0.9509  1.2819  1.4213
  189POPC  H16Y21849   3.912   5.362   8.832  0.4322 -1.4244  1.4799
  189POPC  H16Z21850   4.036   5.500   8.798 -1.1080  2.4653  0.3326
  190POPC     N21851   5.992   1.948  11.235  0.2837  0.3015 -0.0615
  190POPC   C1221852   5.887   1.998  11.143 -0.2906  0.1726 -0.2569
  190POPC  H12A21853   5.902   1.955  11.046  0.3657  1.1707 -0.6032
  190POPC  H12B21854   5.893   2.105  11.130 -0.6444  0.3053  0.6022
  190POPC   C1321855   5.968   2.010  11.368  0.0198 -0.2526  0.1219
  190POPC  H13A21856   6.059   1.997  11.424 -0.2745  1.5597  1.0772
  190POPC  H13B21857   5.948   2.117  11.366 -0.5789 -0.3773 -1.7817
  190POPC  H13C21858   5.883   1.964  11.417 -0.4889 -1.2746 -1.6799
  190POPC   C1421859   5.983   1.796  11.255  0.5069  0.5400  0.4779
  190POPC  H14A21860   5.907   1.782  11.329 -2.2607 -0.4111 -2.4274
  190POPC  H14B21861   5.961   1.753  11.158  0.2981  3.5580 -0.8982
  190POPC  H14C21862   6.072   1.757  11.301  1.5352  1.0190 -1.0352
  190POPC   C1521863   6.120   1.990  11.177 -0.0951  0.3016  0.1807
  190POPC  H15A21864   6.207   1.951  11.228 -1.4260 -0.2490  2.0765
  190POPC  H15B21865   6.129   2.098  11.173 -0.1160  0.3672  1.6899
  190POPC  H15C21866   6.113   1.966  11.072 -0.8052 -1.7855  0.6810
  190POPC   C1121867   5.743   1.973  11.182  0.8533 -0.1576  0.2351
  190POPC  H11A21868   5.706   2.031  11.270 -0.2399  3.7417 -2.6610
  190POPC  H11B21869   5.740   1.864  11.204  1.1311 -0.0525  0.7961
  190POPC     P21870   5.575   1.881  10.993 -0.1307  0.1724  0.1848
  190POPC   O1321871   5.487   1.951  10.903 -0.1762  0.9526 -0.1039
  190POPC   O1421872   5.517   1.792  11.094 -0.2116 -0.4259 -0.3179
  190POPC   O1221873   5.661   1.995  11.067  0.4252 -0.2844 -0.1651
  190POPC   O1121874   5.686   1.793  10.931  1.1526 -0.7659 -0.0785
  190POPC    C121875   5.765   1.848  10.827 -0.2181 -0.0353 -0.1788
  190POPC    HA21876   5.873   1.843  10.855  0.0471 -1.4391 -1.3898
  190POPC    HB21877   5.735   1.948  10.789 -2.0722 -0.2912  0.5730
  190POPC    C221878   5.750   1.745  10.712  0.2199 -1.0388  0.0951
  190POPC    HS21879   5.792   1.781  10.616  0.7714 -2.0254 -0.0330
  190POPC   O2121880   5.611   1.694  10.694 -0.8239 -0.1956  0.2191
  190POPC   C2121881   5.542   1.775  10.613 -0.6784  0.0711  0.0430
  190POPC   O2221882   5.578   1.885  10.579  0.2357 -0.3222 -0.2421
  190POPC   C2221883   5.423   1.694  10.557 -0.8670  0.2597  0.2852
  190POPC   H2R21884   5.346   1.694  10.637  0.8320 -3.0246  2.0207
  190POPC   H2S21885   5.467   1.592  10.548 -0.0492  0.4158  2.3134
  190POPC    C321886   5.837   1.616  10.739  0.0315  0.4810  0.0977
  190POPC    HX21887   5.787   1.573  10.828  0.2041 -1.2372 -0.6111
  190POPC    HY21888   5.937   1.638  10.784 -0.6541  0.9968  1.4016
  190POPC   O3121889   5.849   1.531  10.620  0.6704  0.0413  0.5311
  190POPC   C3121890   5.814   1.405  10.644  0.5745 -0.2061  0.5189
  190POPC   O3221891   5.807   1.357  10.754  0.2026 -0.0779 -0.5330
  190POPC   C3221892   5.776   1.329  10.513 -0.1355  0.2238  0.3911
  190POPC   H2X21893   5.666   1.315  10.526 -0.0099 -0.0936  1.0957
  190POPC   H2Y21894   5.837   1.236  10.509 -1.9472 -0.9439 -1.0651
  190POPC   C2321895   5.364   1.745  10.424 -0.0556  0.2374 -0.2859
  190POPC   H3R21896   5.340   1.852  10.441  1.8030  0.7820 -0.9324
  190POPC   H3S21897   5.270   1.689  10.402 -1.7345  1.9463  2.3101
  190POPC   C2421898   5.448   1.710  10.303  0.9155  0.4406 -0.4548
  190POPC   H4R21899   5.460   1.600  10.313  1.8307  0.7068  1.6824
  190POPC   H4S21900   5.543   1.768  10.304  1.2657 -0.1394  1.3150
  190POPC   C2521901   5.366   1.738  10.172  0.0240  0.2791  0.2206
  190POPC   H5R21902   5.259   1.711  10.186 -1.2234  4.2713 -1.0032
  190POPC   H5S21903   5.406   1.676  10.089  0.4447  1.3534 -0.3854
  190POPC   C2621904   5.361   1.883  10.130 -0.2837  0.2967 -0.1454
  190POPC   H6R21905   5.459   1.930  10.107 -0.1868 -1.0061 -2.5329
  190POPC   H6S21906   5.323   1.942  10.216  0.0971  0.0333  0.2065
  190POPC   C2721907   5.263   1.903  10.014  0.4305 -0.2470  0.0673
  190POPC   H7R21908   5.256   2.009   9.981  1.2116 -0.3619 -0.4679
  190POPC   H7S21909   5.161   1.869  10.041  0.6808  0.8235  2.4722
  190POPC   C2821910   5.293   1.836   9.884  0.6134 -0.2326  0.8574
  190POPC   H8R21911   5.213   1.860   9.811 -0.2384  0.7875  2.0939
  190POPC   H8S21912   5.283   1.726   9.889 -0.1641 -0.1857  0.3903
  190POPC   C2921913   5.426   1.853   9.826 -0.0615 -0.5034 -0.3236
  190POPC   H9121914   5.507   1.843   9.900  0.3457  0.6798 -0.5860
  190POPC  C21021915   5.463   1.866   9.696 -0.9515  0.4383  0.1726
  190POPC  H10121916   5.570   1.855   9.673 -0.8627  1.4597  0.0534
  190POPC  C21121917   5.368   1.864   9.574  0.4941 -0.3177  0.3403
  190POPC  H11R21918   5.352   1.962   9.525  1.3445  0.1776  1.0201
  190POPC  H11S21919   5.267   1.823   9.594  0.2596 -0.6958 -1.5476
  190POPC  C21221920   5.439   1.766   9.471 -0.1166  0.1562  0.1267
  190POPC  H12R21921   5.442   1.665   9.518  1.9536 -0.0372 -0.3759
  190POPC  H12S21922   5.537   1.809   9.441  1.1270 -3.2628 -0.8987
  190POPC  C21321923   5.364   1.726   9.343 -0.2156  0.5448  0.0624
  190POPC  H13R21924   5.291   1.644   9.359  0.4317  0.2015  1.3306
  190POPC  H13S21925   5.436   1.688   9.268 -2.6291 -2.0198 -1.0499
  190POPC  C21421926   5.296   1.846   9.279 -0.8599  0.5437  1.2080
  190POPC  H14R21927   5.364   1.934   9.269 -1.4621  0.9847  0.9736
  190POPC  H14S21928   5.204   1.866   9.337 -0.6126  0.4027  1.6466
  190POPC  C21521929   5.247   1.808   9.138 -0.1544 -0.1350  0.2587
  190POPC  H15R21930   5.182   1.717   9.141  0.8918 -0.9430 -1.1013
  190POPC  H15S21931   5.342   1.793   9.082  0.5313 -0.7885  1.5876
  190POPC  C21621932   5.161   1.918   9.068 -0.2839 -0.2338 -1.0647
  190POPC  H16R21933   5.226   2.008   9.067  1.2317 -1.2906 -4.3465
  190POPC  H16S21934   5.064   1.942   9.117 -0.1662 -0.3741 -0.7614
  190POPC  C21721935   5.131   1.891   8.929 -0.0034 -0.2769  0.6358
  190POPC  H17R21936   5.074   1.979   8.892  1.6468  0.9161  0.8327
  190POPC  H17S21937   5.063   1.805   8.943 -0.5052 -0.1294 -0.8222
  190POPC  C21821938   5.250   1.858   8.834 -0.5976  0.2917  0.4609
  190POPC  H18R21939   5.325   1.785   8.874  0.5163  0.2513 -1.5871
  190POPC  H18S21940   5.306   1.952   8.815 -0.8843  0.4056  0.1908
  190POPC  H18T21941   5.213   1.813   8.739 -0.0225 -0.0925  0.4136
  190POPC   C3321942   5.804   1.416  10.390  0.1698 -0.3376  0.2863
  190POPC   H3X21943   5.908   1.454  10.392 -0.1204  0.4452  0.8065
  190POPC   H3Y21944   5.736   1.503  10.381 -0.5588 -0.4973  3.7160
  190POPC   C3421945   5.804   1.313  10.276 -0.5549  0.3325  0.2127
  190POPC   H4X21946   5.714   1.249  10.271 -0.3429 -0.1318  2.0522
  190POPC   H4Y21947   5.899   1.256  10.285  0.0205  1.0835 -0.9396
  190POPC   C3521948   5.821   1.378  10.141 -0.1812  0.1839  0.8542
  190POPC   H5X21949   5.907   1.447  10.151 -0.4853  0.6222  0.4276
  190POPC   H5Y21950   5.745   1.458  10.132  0.8993  1.1512  0.3001
  190POPC   C3621951   5.839   1.293  10.010 -0.2432 -0.0717  0.4923
  190POPC   H6X21952   5.768   1.213   9.981 -1.7028  0.1514  3.3014
  190POPC   H6Y21953   5.936   1.240  10.023 -1.0994 -1.5100  1.1179
  190POPC   C3721954   5.850   1.400   9.898 -0.0677 -0.2455  0.3272
  190POPC   H7X21955   5.952   1.444   9.892 -0.6050  0.8097 -1.4792
  190POPC   H7Y21956   5.785   1.490   9.893 -0.1697 -0.4175 -1.8281
  190POPC   C3821957   5.837   1.336   9.754 -0.7278 -0.2656 -0.0729
  190POPC   H8X21958   5.730   1.307   9.762 -0.4314 -1.0361  1.2187
  190POPC   H8Y21959   5.900   1.246   9.746 -0.3497  0.0250 -0.3770
  190POPC   C3921960   5.860   1.437   9.642  0.1014 -0.4362  0.3226
  190POPC   H9X21961   5.963   1.478   9.650 -0.5730  1.6299 -1.0535
  190POPC   H9Y21962   5.784   1.515   9.663  0.6116 -0.1679  1.1779
  190POPC  C31021963   5.844   1.388   9.503  0.7219  0.4114  0.1907
  190POPC  H10X21964   5.740   1.350   9.488  0.1000  2.5864 -1.2109
  190POPC  H10Y21965   5.908   1.303   9.472 -2.4850 -3.0132  2.4706
  190POPC  C31121966   5.866   1.504   9.397  0.3885  0.0564  0.3360
  190POPC  H11X21967   5.976   1.515   9.386  0.6250 -1.8044  0.6451
  190POPC  H11Y21968   5.819   1.601   9.424  1.1448  0.5784 -0.2018
  190POPC  C31221969   5.810   1.467   9.255 -0.3200 -0.0820  0.6320
  190POPC  H12X21970   5.709   1.423   9.269 -0.7226  0.3870 -0.7180
  190POPC  H12Y21971   5.884   1.387   9.233  0.7152  1.3325 -1.1885
  190POPC  C31321972   5.824   1.580   9.147  0.2708  0.3476 -0.0813
  190POPC  H13X21973   5.930   1.613   9.157  0.5037  0.2158 -2.0824
  190POPC  H13Y21974   5.758   1.661   9.185 -2.1323 -1.7396  0.2541
  190POPC  C31421975   5.783   1.536   9.009  0.8020  0.3442 -0.2093
  190POPC  H14X21976   5.676   1.506   9.009  0.5172  1.3153 -1.1475
  190POPC  H14Y21977   5.823   1.435   8.985 -2.5842 -1.2083  0.4009
  190POPC  C31521978   5.818   1.643   8.899  0.9029  0.0202 -0.0367
  190POPC  H15X21979   5.760   1.738   8.908  0.1135 -0.5190  0.7023
  190POPC  H15Y21980   5.777   1.609   8.802  0.3519  1.5893 -0.3596
  190POPC  C31621981   5.966   1.664   8.866 -0.3412 -0.1162 -0.1705
  190POPC  H16X21982   6.008   1.691   8.965 -0.9903 -0.5701  0.2303
  190POPC  H16Y21983   5.981   1.745   8.792 -0.6607  0.6943  0.6353
  190POPC  H16Z21984   6.020   1.577   8.823  1.0070  1.6805 -2.2444
  191POPC     N21985   5.978   3.596   6.351 -0.3742  0.1210  0.7495
  191POPC   C1221986   6.128   3.541   6.363  0.6785  0.3543  0.0561
  191POPC  H12A21987   6.185   3.609   6.424  1.3093 -0.5640  0.5024
  191POPC  H12B21988   6.175   3.542   6.266  0.4667  0.3185 -0.0481
  191POPC   C1321989   5.912   3.607   6.491 -0.4828 -0.6464 -0.4808
  191POPC  H13A21990   5.805   3.614   6.477 -0.3544 -0.6431 -1.5275
  191POPC  H13B21991   5.924   3.512   6.540 -0.9398 -0.8751 -0.8077
  191POPC  H13C21992   5.941   3.692   6.552 -1.8386  0.2804 -1.0843
  191POPC   C1421993   5.985   3.733   6.299  0.3417 -0.2701 -0.0332
  191POPC  H14A21994   5.975   3.733   6.192  0.7158 -1.2329 -0.0770
  191POPC  H14B21995   5.899   3.788   6.335  0.6864  0.1619  0.1374
  191POPC  H14C21996   6.061   3.800   6.336  0.3499  0.7051 -1.7857
  191POPC   C1521997   5.891   3.525   6.258  0.7505  0.9259  0.4680
  191POPC  H15A21998   5.937   3.487   6.167 -0.3142  2.2698 -0.6544
  191POPC  H15B21999   5.809   3.589   6.227 -0.9546  0.9812  4.7705
  191POPC  H15C22000   5.833   3.454   6.314  0.5409  1.2462  0.6614
  191POPC   C1122001   6.139   3.394   6.416 -0.2123 -0.0680  0.3855
  191POPC  H11A22002   6.076   3.372   6.504  1.1046 -2.9442  0.6614
  191POPC  H11B22003   6.244   3.376   6.450  0.0776 -2.0391 -1.4416
  191POPC     P22004   6.176   3.195   6.250 -0.3754 -0.7625  0.0349
  191POPC   O1322005   6.286   3.265   6.188  0.6812  0.4877  0.1347
  191POPC   O1422006   6.079   3.127   6.163 -0.0428 -0.2499  0.3029
  191POPC   O1222007   6.097   3.303   6.316 -0.2130  0.0279  0.3596
  191POPC   O1122008   6.230   3.105   6.367 -0.1099  0.2579 -0.5224
  191POPC    C122009   6.130   3.045   6.456  0.1218  0.4284 -0.0238
  191POPC    HA22010   6.052   2.983   6.406 -0.7757 -0.0714  1.9551
  191POPC    HB22011   6.074   3.121   6.514 -1.1718 -0.1318 -0.5362
  191POPC    C222012   6.199   2.961   6.576  0.2432  0.7139  0.8549
  191POPC    HS22013   6.123   2.920   6.646 -0.4950 -4.4887 -2.7199
  191POPC   O2122014   6.292   3.048   6.641 -0.7057  0.0992  0.2836
  191POPC   C2122015   6.252   3.137   6.726 -0.1391  0.0166 -0.1840
  191POPC   O2222016   6.137   3.159   6.756 -0.8484  0.3826 -0.1125
  191POPC   C2222017   6.382   3.213   6.774 -0.1925  0.2172  0.1481
  191POPC   H2R22018   6.413   3.272   6.685  0.8838 -1.9501 -0.9425
  191POPC   H2S22019   6.462   3.138   6.795  0.3188  1.1459  1.6271
  191POPC    C322020   6.269   2.833   6.527  0.7429  0.1617 -0.9422
  191POPC    HX22021   6.351   2.862   6.458  0.1831  0.3541 -1.5350
  191POPC    HY22022   6.203   2.764   6.470 -2.5724  0.7004  2.0386
  191POPC   O3122023   6.315   2.758   6.638 -0.1946 -0.5821 -0.3343
  191POPC   C3122024   6.232   2.687   6.714 -0.3594 -0.6207 -0.2182
  191POPC   O3222025   6.106   2.680   6.691  0.0672 -0.3725 -0.4114
  191POPC   C3222026   6.312   2.615   6.823 -0.8427 -0.0949 -0.1935
  191POPC   H2X22027   6.419   2.608   6.796 -1.0403 -0.4411 -0.8925
  191POPC   H2Y22028   6.277   2.509   6.824 -0.5791 -0.2093 -1.7478
  191POPC   C2322029   6.360   3.293   6.895 -0.2024 -0.3775 -1.4487
  191POPC   H3R22030   6.449   3.288   6.961 -1.3306 -1.0068  0.0528
  191POPC   H3S22031   6.270   3.266   6.954  1.3834  0.9899  1.7098
  191POPC   C2422032   6.336   3.444   6.861 -0.0569 -0.0515  0.5530
  191POPC   H4R22033   6.256   3.457   6.785 -0.0435  0.0240  0.5507
  191POPC   H4S22034   6.433   3.482   6.822  0.0341 -1.4682 -0.6649
  191POPC   C2522035   6.309   3.521   6.995  0.6067 -1.1608 -0.1835
  191POPC   H5R22036   6.228   3.464   7.045 -0.0994 -0.9523 -1.0831
  191POPC   H5S22037   6.265   3.619   6.965  3.8389  0.0838 -1.2090
  191POPC   C2622038   6.407   3.535   7.112 -0.1263  0.1223  1.1806
  191POPC   H6R22039   6.489   3.592   7.063  1.4613 -2.8974  0.1913
  191POPC   H6S22040   6.437   3.434   7.144 -0.1885 -1.1772 -2.5705
  191POPC   C2722041   6.350   3.616   7.226 -0.1568  0.0803 -0.5249
  191POPC   H7R22042   6.247   3.587   7.258 -0.3584  2.0026  0.6998
  191POPC   H7S22043   6.329   3.721   7.196 -1.3348 -0.4909 -1.7243
  191POPC   C2822044   6.444   3.616   7.343  0.2667 -0.1004 -0.3026
  191POPC   H8R22045   6.404   3.683   7.422  0.7015  1.3886 -1.3270
  191POPC   H8S22046   6.541   3.661   7.313 -0.3906 -0.3789 -3.0052
  191POPC   C2922047   6.471   3.483   7.404  0.1282 -0.5819  0.1672
  191POPC   H9122048   6.464   3.398   7.335 -2.3222 -2.0161  2.0814
  191POPC  C21022049   6.474   3.456   7.536  0.3662  0.3880 -0.7925
  191POPC  H10122050   6.493   3.352   7.566 -1.7854 -0.2005 -1.3908
  191POPC  C21122051   6.470   3.554   7.654 -0.1391  0.3082  0.0956
  191POPC  H11R22052   6.365   3.584   7.678 -0.3199  2.2150 -2.8256
  191POPC  H11S22053   6.520   3.650   7.628 -0.8533  0.9446  1.0529
  191POPC  C21222054   6.537   3.516   7.786 -0.4800  0.8013  0.2830
  191POPC  H12R22055   6.559   3.616   7.830 -3.3833  0.3530  2.8878
  191POPC  H12S22056   6.629   3.454   7.783 -2.0834 -1.5745 -2.9763
  191POPC  C21322057   6.436   3.449   7.886 -0.3390 -0.0023 -0.4827
  191POPC  H13R22058   6.426   3.347   7.843  1.6360 -0.4175 -0.0248
  191POPC  H13S22059   6.337   3.499   7.889 -0.0146  0.5892  0.8910
  191POPC  C21422060   6.501   3.436   8.027  1.0905 -0.2224 -0.1700
  191POPC  H14R22061   6.524   3.531   8.078 -1.5281  0.9556 -1.0596
  191POPC  H14S22062   6.597   3.381   8.022  0.9668 -0.2795 -2.3824
  191POPC  C21522063   6.390   3.358   8.112  0.3782 -0.4378  0.2757
  191POPC  H15R22064   6.345   3.280   8.047 -1.3088  0.0896  0.7935
  191POPC  H15S22065   6.314   3.434   8.139  1.1490  0.1714  0.7136
  191POPC  C21622066   6.444   3.304   8.236 -0.0453  0.0933  0.8086
  191POPC  H16R22067   6.360   3.275   8.302 -1.4787  1.9218 -0.1784
  191POPC  H16S22068   6.506   3.377   8.293 -0.1204 -0.3148  1.4192
  191POPC  C21722069   6.548   3.198   8.200  0.1889  0.3661 -0.1157
  191POPC  H17R22070   6.610   3.179   8.290  2.1359  1.2439 -1.2335
  191POPC  H17S22071   6.615   3.218   8.114  0.2921  2.8455  0.5141
  191POPC  C21822072   6.479   3.063   8.161 -0.6995 -0.6381 -0.2783
  191POPC  H18R22073   6.377   3.055   8.205 -0.2471 -0.7920  0.7664
  191POPC  H18S22074   6.541   2.974   8.182  0.1911  0.5690  2.5430
  191POPC  H18T22075   6.461   3.059   8.052 -1.0265  2.2054 -0.3592
  191POPC   C3322076   6.282   2.684   6.964 -0.0051  0.0259  0.2902
  191POPC   H3X22077   6.319   2.788   6.954  2.3639 -0.8230  0.0031
  191POPC   H3Y22078   6.354   2.621   7.021 -0.5844 -0.2691  0.7015
  191POPC   C3422079   6.136   2.690   6.997  0.1924  0.2044 -0.5069
  191POPC   H4X22080   6.083   2.592   6.997  0.2197  0.1893  0.1190
  191POPC   H4Y22081   6.076   2.743   6.920 -1.3536  0.7048  1.0201
  191POPC   C3522082   6.111   2.767   7.130  0.4173  0.1791  0.4068
  191POPC   H5X22083   6.001   2.768   7.145  0.1804 -3.0027 -0.7235
  191POPC   H5Y22084   6.135   2.874   7.113 -1.7839  0.5795 -0.2839
  191POPC   C3622085   6.181   2.706   7.251  0.0399 -0.0685  0.3511
  191POPC   H6X22086   6.287   2.696   7.218 -0.4345 -0.2973 -1.1646
  191POPC   H6Y22087   6.131   2.608   7.267  0.7362 -0.2255  1.5719
  191POPC   C3722088   6.194   2.791   7.381  0.2759 -1.3146  0.3755
  191POPC   H7X22089   6.091   2.806   7.420 -0.7239 -2.2058 -1.8005
  191POPC   H7Y22090   6.241   2.889   7.358 -1.6880  0.4774  3.5997
  191POPC   C3822091   6.273   2.722   7.492  0.3559  0.6013  1.0666
  191POPC   H8X22092   6.378   2.708   7.460 -0.2747 -1.8203 -0.1095
  191POPC   H8Y22093   6.244   2.616   7.506  0.1447  0.1616 -2.1659
  191POPC   C3922094   6.262   2.803   7.621 -0.8244 -0.6846 -0.2197
  191POPC   H9X22095   6.162   2.788   7.668  0.0323  0.6910  2.1377
  191POPC   H9Y22096   6.274   2.911   7.602 -2.8054 -0.4382 -0.2191
  191POPC  C31022097   6.377   2.760   7.718 -0.1514 -0.2165 -0.3884
  191POPC  H10X22098   6.473   2.785   7.669 -0.0176  0.3736  0.1736
  191POPC  H10Y22099   6.374   2.650   7.735 -0.3506 -0.0119  0.9511
  191POPC  C31122100   6.359   2.825   7.855 -0.2948  0.1060  0.3639
  191POPC  H11X22101   6.350   2.935   7.843 -0.0190 -0.1131 -2.1947
  191POPC  H11Y22102   6.444   2.804   7.923  0.0958 -0.3563 -0.2511
  191POPC  C31222103   6.235   2.779   7.933 -0.2732 -0.4731  0.7502
  191POPC  H12X22104   6.230   2.668   7.934 -1.0776 -0.4375  1.0217
  191POPC  H12Y22105   6.140   2.810   7.883  0.6325 -0.6325 -1.1215
  191POPC  C31322106   6.232   2.840   8.075  0.0927  0.1922  0.5483
  191POPC  H13X22107   6.220   2.950   8.069  3.5817  0.6932  1.8026
  191POPC  H13Y22108   6.328   2.818   8.127 -0.0297 -0.5810  0.4579
  191POPC  C31422109   6.101   2.799   8.149  0.0485  0.2978  0.4745
  191POPC  H14X22110   6.017   2.783   8.079  0.4126 -0.5585  0.2259
  191POPC  H14Y22111   6.067   2.881   8.216  1.5591  0.5131  0.9999
  191POPC  C31522112   6.108   2.680   8.247 -0.8287 -0.0712  0.4522
  191POPC  H15X22113   6.143   2.589   8.192 -0.6256  0.0830  0.3271
  191POPC  H15Y22114   6.005   2.665   8.285 -0.9493 -0.1265  0.1057
  191POPC  C31622115   6.207   2.702   8.358 -0.2598  0.1302 -0.2386
  191POPC  H16X22116   6.214   2.617   8.429  1.1426 -0.6289 -1.2592
  191POPC  H16Y22117   6.191   2.796   8.416  0.4031 -0.3069  0.6784
  191POPC  H16Z22118   6.306   2.708   8.308 -0.7337 -0.9897 -1.3381
  192POPC     N22119   4.708   6.524   6.206  0.2666 -0.6396  0.4085
  192POPC   C1222120   4.643   6.661   6.185 -0.2533  0.3572  0.8533
  192POPC  H12A22121   4.540   6.670   6.219 -0.7880 -2.3114  0.0065
  192POPC  H12B22122   4.628   6.676   6.079  0.3936  1.4968  0.9094
  192POPC   C1322123   4.857   6.515   6.172  0.2736 -0.5393 -0.5447
  192POPC  H13A22124   4.922   6.592   6.209 -2.1746  1.9962 -1.3485
  192POPC  H13B22125   4.886   6.413   6.194 -1.4718 -1.0526 -0.5119
  192POPC  H13C22126   4.861   6.535   6.066 -2.3622  1.3125 -0.3555
  192POPC   C1422127   4.696   6.482   6.348  0.2658  0.8703  0.1534
  192POPC  H14A22128   4.592   6.462   6.369  0.8472  1.1584  3.6125
  192POPC  H14B22129   4.758   6.396   6.368 -3.0224 -1.5177  0.5620
  192POPC  H14C22130   4.736   6.563   6.408 -0.4068  0.9284  0.5319
  192POPC   C1522131   4.634   6.419   6.122 -0.5658  0.0798 -0.2534
  192POPC  H15A22132   4.530   6.406   6.147 -0.6033  0.9779  0.0706
  192POPC  H15B22133   4.686   6.325   6.134 -1.9829 -0.5350  1.2549
  192POPC  H15C22134   4.647   6.448   6.019 -1.2155  2.8986  0.4114
  192POPC   C1122135   4.712   6.790   6.236 -0.8639 -0.0542 -0.6602
  192POPC  H11A22136   4.651   6.878   6.206 -0.5242 -0.2516 -1.9239
  192POPC  H11B22137   4.811   6.800   6.188  0.1794  2.2713  1.8074
  192POPC     P22138   4.788   6.889   6.464  0.2485  0.4525 -0.1879
  192POPC   O1322139   4.744   6.864   6.605  0.1778 -0.0934  0.1911
  192POPC   O1422140   4.757   7.017   6.399  0.1236 -0.0845  0.3807
  192POPC   O1222141   4.734   6.775   6.376  0.2566 -0.0741  0.0365
  192POPC   O1122142   4.949   6.889   6.469  0.4049 -0.2802 -0.2474
  192POPC    C122143   5.010   6.765   6.425  0.4670  0.0881 -0.1026
  192POPC    HA22144   5.118   6.788   6.410  0.4518 -0.8680 -1.7068
  192POPC    HB22145   4.975   6.752   6.321  1.1479  5.4794 -1.1337
  192POPC    C222146   5.017   6.649   6.529  0.9253 -0.3972  0.0271
  192POPC    HS22147   4.917   6.605   6.548  0.0134  1.0971 -1.1566
  192POPC   O2122148   5.077   6.702   6.650  0.3408 -0.9742  0.5627
  192POPC   C2122149   5.035   6.642   6.759 -0.5623  0.8380 -0.2332
  192POPC   O2222150   4.948   6.552   6.768 -0.3217  0.4927  0.1015
  192POPC   C2222151   5.104   6.684   6.885 -0.7200 -0.0756  0.0536
  192POPC   H2R22152   5.106   6.795   6.879 -1.6078 -0.0872 -0.6030
  192POPC   H2S22153   5.208   6.646   6.891 -0.5433  0.6517  1.8170
  192POPC    C322154   5.123   6.542   6.467  0.0860 -0.2708 -0.5184
  192POPC    HX22155   5.219   6.598   6.466 -1.0621  1.7484 -0.9486
  192POPC    HY22156   5.101   6.530   6.359 -1.7582 -1.3512 -0.0453
  192POPC   O3122157   5.129   6.419   6.539 -0.2326  0.0398  0.8516
  192POPC   C3122158   5.041   6.329   6.498  0.5718 -0.0590  0.1632
  192POPC   O3222159   4.947   6.349   6.426  0.0703 -0.6862 -0.1274
  192POPC   C3222160   5.062   6.185   6.571 -0.6607 -0.5123 -0.2503
  192POPC   H2X22161   5.101   6.119   6.490  0.7218  1.8175 -1.5386
  192POPC   H2Y22162   4.963   6.144   6.599  0.3220 -0.8832  2.9157
  192POPC   C2322163   5.036   6.654   7.014  0.2755 -0.4812 -1.0489
  192POPC   H3R22164   5.038   6.545   7.036 -1.0221 -0.2378  0.3952
  192POPC   H3S22165   4.933   6.697   7.007 -0.8016 -2.8726 -0.6185
  192POPC   C2422166   5.112   6.714   7.135 -0.7486 -0.1361  0.7168
  192POPC   H4R22167   5.088   6.823   7.136  2.1369  0.5622 -0.0126
  192POPC   H4S22168   5.221   6.702   7.117 -0.7822  0.2941  0.2144
  192POPC   C2522169   5.080   6.642   7.265  0.3366 -0.6234  0.4908
  192POPC   H5R22170   5.083   6.532   7.246  0.4537 -1.0515  2.9072
  192POPC   H5S22171   4.976   6.660   7.299  0.2187 -0.2475 -0.0629
  192POPC   C2622172   5.173   6.671   7.384  0.3162  0.5902  0.0931
  192POPC   H6R22173   5.278   6.659   7.350  0.2934 -2.8349  1.0418
  192POPC   H6S22174   5.152   6.598   7.465  2.5839  0.6458  0.7862
  192POPC   C2722175   5.169   6.817   7.431  1.0336 -0.1882  0.8003
  192POPC   H7R22176   5.063   6.841   7.455 -0.2044 -1.4654 -3.0858
  192POPC   H7S22177   5.202   6.877   7.344  1.9782 -0.0048  1.2662
  192POPC   C2822178   5.269   6.835   7.536  0.4536 -0.0552  0.0135
  192POPC   H8R22179   5.300   6.942   7.544  1.9187 -0.4296 -0.4462
  192POPC   H8S22180   5.360   6.788   7.492  1.5733  0.2163  1.9419
  192POPC   C2922181   5.226   6.764   7.662  0.3216 -0.0543 -0.1938
  192POPC   H9122182   5.168   6.672   7.646  0.5796 -0.1286 -0.7135
  192POPC  C21022183   5.243   6.815   7.782  0.6074 -0.2494 -0.5556
  192POPC  H10122184   5.194   6.769   7.869  3.0016  0.2224  1.1025
  192POPC  C21122185   5.315   6.938   7.825  0.3662 -0.0032  0.1297
  192POPC  H11R22186   5.377   6.982   7.744 -0.5963  1.6553  0.2651
  192POPC  H11S22187   5.395   6.923   7.900  0.2729 -2.5174 -0.2158
  192POPC  C21222188   5.221   7.060   7.851  0.3858 -0.6882  0.4003
  192POPC  H12R22189   5.159   7.075   7.760  2.7857 -0.3137 -1.1954
  192POPC  H12S22190   5.285   7.150   7.860  2.3988 -2.3135  2.9298
  192POPC  C21322191   5.136   7.047   7.981  0.0791  0.3214 -0.0724
  192POPC  H13R22192   5.128   6.937   7.999 -0.8232 -0.4351 -4.3710
  192POPC  H13S22193   5.028   7.055   7.956 -0.0006 -0.4396  0.0038
  192POPC  C21422194   5.178   7.116   8.115  0.2168 -0.5065 -0.3726
  192POPC  H14R22195   5.113   7.082   8.199  1.3516  2.0717  1.6259
  192POPC  H14S22196   5.169   7.226   8.107  1.9920 -0.2315  1.0392
  192POPC  C21522197   5.329   7.089   8.143 -0.1386 -0.2502  0.4721
  192POPC  H15R22198   5.348   7.159   8.228 -0.0794  0.4998 -0.1513
  192POPC  H15S22199   5.390   7.122   8.056 -0.2870 -1.7946 -0.2390
  192POPC  C21622200   5.369   6.948   8.184  0.1547  0.5976  0.4056
  192POPC  H16R22201   5.480   6.947   8.185  0.1582 -0.7267  0.0732
  192POPC  H16S22202   5.318   6.890   8.105  1.8128 -0.6460  0.2218
  192POPC  C21722203   5.318   6.911   8.326 -0.6323  1.1088  0.2459
  192POPC  H17R22204   5.216   6.868   8.324  1.0250 -3.0268 -2.8276
  192POPC  H17S22205   5.315   7.009   8.379  2.5320  1.5562 -0.2679
  192POPC  C21822206   5.399   6.814   8.415 -0.2971 -0.0601  0.1769
  192POPC  H18R22207   5.370   6.708   8.397 -1.9310  0.4023  0.1025
  192POPC  H18S22208   5.381   6.840   8.522 -2.2263  1.6273 -0.5481
  192POPC  H18T22209   5.508   6.817   8.394 -0.1220  1.0876  1.2009
  192POPC   C3322210   5.164   6.164   6.687  0.3325 -0.1749 -0.2654
  192POPC   H3X22211   5.263   6.205   6.658  0.3468  1.5392  2.0163
  192POPC   H3Y22212   5.180   6.054   6.694  1.2578  0.0467  1.3887
  192POPC   C3422213   5.104   6.220   6.814 -0.3367 -0.0045 -0.4579
  192POPC   H4X22214   5.003   6.174   6.818  1.0066 -3.0407 -0.2343
  192POPC   H4Y22215   5.100   6.331   6.807  1.2449  0.0734 -0.4071
  192POPC   C3522216   5.177   6.185   6.941 -0.4095 -1.2122 -0.1326
  192POPC   H5X22217   5.285   6.205   6.921 -0.8102 -0.3982 -1.4835
  192POPC   H5Y22218   5.172   6.075   6.958 -0.5754 -0.9624  1.5138
  192POPC   C3622219   5.122   6.242   7.069 -0.0644  0.0003 -0.0901
  192POPC   H6X22220   5.030   6.189   7.099  1.1664 -0.9045  2.1427
  192POPC   H6Y22221   5.101   6.349   7.046  2.5194 -0.0024 -2.9542
  192POPC   C3722222   5.219   6.224   7.196 -0.2418  0.2579 -0.0996
  192POPC   H7X22223   5.312   6.282   7.173 -1.2333  2.2674  0.8432
  192POPC   H7Y22224   5.248   6.117   7.204 -1.1295  0.1176  1.2420
  192POPC   C3822225   5.160   6.262   7.334 -0.5174 -0.4830 -0.4008
  192POPC   H8X22226   5.072   6.197   7.355 -0.9135  0.5231  1.1484
  192POPC   H8Y22227   5.128   6.368   7.329  0.7265 -0.1979 -3.0902
  192POPC   C3922228   5.263   6.238   7.441 -0.2492  0.1268 -0.1928
  192POPC   H9X22229   5.354   6.294   7.410  0.2037 -1.9906 -2.9046
  192POPC   H9Y22230   5.296   6.133   7.451 -0.3984  0.1617  0.7057
  192POPC  C31022231   5.207   6.291   7.575 -0.4356 -0.1305  0.0654
  192POPC  H10X22232   5.115   6.233   7.599 -2.2452  1.2341 -3.1557
  192POPC  H10Y22233   5.173   6.395   7.556 -1.1133 -0.3658 -0.0255
  192POPC  C31122234   5.315   6.274   7.688  0.3784  0.3699 -0.5326
  192POPC  H11X22235   5.413   6.320   7.664  1.3680 -0.7408  1.2845
  192POPC  H11Y22236   5.328   6.165   7.701  0.4969  0.3418 -0.9056
  192POPC  C31222237   5.256   6.330   7.821  0.6545 -1.2538 -0.2735
  192POPC  H12X22238   5.155   6.290   7.845  0.3197 -0.1450  0.1941
  192POPC  H12Y22239   5.240   6.440   7.811  2.1422 -1.0784 -0.7779
  192POPC  C31322240   5.352   6.307   7.938  0.7255 -0.1520  0.0718
  192POPC  H13X22241   5.453   6.342   7.908  0.3430  0.4042 -0.5868
  192POPC  H13Y22242   5.351   6.199   7.964  1.0749  0.0402  0.8797
  192POPC  C31422243   5.302   6.370   8.070  0.2774 -0.6735 -0.5534
  192POPC  H14X22244   5.366   6.343   8.157 -1.2309  1.4275  1.2742
  192POPC  H14Y22245   5.203   6.322   8.082 -0.4739  0.9595  0.0071
  192POPC  C31522246   5.272   6.524   8.074 -0.4935  0.6841 -0.5602
  192POPC  H15X22247   5.229   6.552   8.173 -0.3885 -2.5875  0.4728
  192POPC  H15Y22248   5.201   6.543   7.991 -0.5611  2.6833 -0.0773
  192POPC  C31622249   5.401   6.597   8.048 -0.4364  0.1319  0.1883
  192POPC  H16X22250   5.393   6.699   8.091  2.5502  0.3892  0.2308
  192POPC  H16Y22251   5.411   6.612   7.938  1.1214 -2.5160 -0.0683
  192POPC  H16Z22252   5.490   6.547   8.090  1.1341  2.4903 -0.1984
  193SOD    SOD22253   0.678   2.246  14.281  0.0462  0.1796  0.5265
  194SOD    SOD22254   2.347   5.150   5.313 -0.2293 -0.4173  0.1068
  195SOD    SOD22255   3.153   4.018  12.647  0.3138  0.2388  0.1360
  196SOD    SOD22256   0.042   3.122   4.589  0.4642  0.2742 -0.3535
  197SOD    SOD22257   0.752   4.783   4.770  0.1613  0.1940 -0.1342
  198SOD    SOD22258   4.878   4.584  11.108 -0.4662  0.2566  0.3960
  199SOD    SOD22259   4.563   0.058  15.763  0.1335 -0.1011 -0.1098
  200SOD    SOD22260   4.951   6.776   2.031  0.2387  0.3089 -0.1046
  201SOD    SOD22261   1.008   0.951  15.218 -0.7099 -0.6055 -0.1300
  202SOD    SOD22262   3.955   1.970  14.660 -0.9197  0.0733  0.4137
  203SOD    SOD22263   1.130   4.030  12.909 -0.4015 -0.1401 -0.6231
  204SOD    SOD22264   6.088   4.462   4.038 -0.8119 -0.0114 -0.5594
  205SOD    SOD22265   1.462   5.015  12.728 -0.2350  0.1379  0.5518
  206SOD    SOD22266   2.042   1.728  15.732 -0.2292  0.2041  0.5338
  207SOD    SOD22267   5.344   4.833   4.253 -0.0177 -0.2860 -0.1791
  208SOD    SOD22268   5.228   4.967  12.248  0.0630  0.0371  0.7906
  209SOD    SOD22269   3.070   3.228  12.316  0.1012 -0.0334  0.4105
  210SOD    SOD22270   3.780   6.024  12.024  0.0839  0.5947  0.7478
  211SOD    SOD22271   2.704   5.658   4.333 -0.3103  0.1132  0.1281
  212SOD    SOD22272   6.245   3.088  13.764 -0.2947 -0.0262 -0.3619
  213SOD    SOD22273   4.453   2.888   1.761  0.2589 -0.1047 -0.2718
  214SOD    SOD22274   3.373   1.066  12.788 -0.0036  0.4234  0.4997
  215SOD    SOD22275   5.220   6.095   3.568 -0.4223  0.3968  0.4169
  216SOD    SOD22276   3.940   3.998  10.822  0.1894 -0.0592  0.1018
  217SOD    SOD22277   1.684   4.604  16.342  0.0242 -0.3237  0.0264
  218SOD    SOD22278   5.121   2.343   0.598 -0.2229  0.0583  0.4339
  219SOD    SOD22279   0.896   6.367   3.585 -0.3398 -0.2914  0.0696
  220SOD    SOD22280   5.347   3.617  10.553  0.4133  0.0235 -0.0723
  221SOD    SOD22281   4.926   4.278   1.906  0.0773 -0.5115  0.2315
  222SOD    SOD22282   5.946   4.877  11.165 -0.0402 -0.0609  0.2166
  223SOD    SOD22283   3.059   0.884   5.907  0.4006 -0.3485 -0.0219
  224SOD    SOD22284   1.748   0.998   5.039  0.4198  0.2597 -0.3095
  225SOD    SOD22285   3.776   2.901   4.234 -0.3956 -0.0557 -0.4907
  226SOD    SOD22286   4.164   6.559   3.418 -0.0878 -0.0366  0.3210
  227SOD    SOD22287   4.587   4.782  16.211 -0.0871 -0.2519 -0.2425
  228SOD    SOD22288   6.460   0.854   1.632 -0.2633  0.2038 -0.1460
  229SOD    SOD22289   2.036   5.912  16.073 -0.2162 -0.2275  0.1795
  230SOD    SOD22290   4.891   1.427  11.390 -0.2181 -0.4489  0.4724
  231SOD    SOD22291   2.237   1.965   5.419 -0.1733  0.0871  0.1140
  232SOD    SOD22292   4.800   2.987  15.168 -0.1385 -0.2465 -0.4251
  233SOD    SOD22293   5.607   4.655  11.006 -0.1022 -0.6096 -0.1675
  234SOD    SOD22294   5.316   5.183   1.583 -0.7303  0.3844 -0.1538
  235SOD    SOD22295   4.901   1.145   5.465  0.5501 -0.0016 -0.2397
  236SOD    SOD22296   2.703   0.431   0.712  0.1869  0.0699 -0.3326
  237SOD    SOD22297   0.406   1.329   6.632  0.0130  0.0502 -0.2366
  238SOD    SOD22298   0.667   5.549  10.975 -0.0837 -0.0541 -0.5815
  239SOD    SOD22299   5.433   6.404  12.544 -0.0650 -0.1224 -0.0695
  240SOD    SOD22300   6.105   4.671   0.786 -0.1215  0.4088 -0.3053
  241SOD    SOD22301   1.553   4.854   6.328  0.0772 -0.2253 -0.1629
  242SOD    SOD22302   6.723   1.003   2.347  0.0296 -0.0331  0.2215
  243SOD    SOD22303   3.998   4.938  14.719 -0.2593 -0.5616 -0.1087
  244SOD    SOD22304   3.132   0.554   2.695 -0.1912  0.0654  0.0334
  245SOD    SOD22305   6.040   5.145   5.755  0.0499  0.5796 -0.4240
  246SOD    SOD22306   5.265   0.644  16.046 -0.0896 -0.7341 -0.1223
  247SOD    SOD22307   4.570   4.922   4.813  0.4203  0.2106 -0.0340
  248SOD    SOD22308   1.713   5.210   3.125  0.0985  0.2373  0.2624
  249SOD    SOD22309   3.851   3.087   6.515 -0.3678 -0.7035 -0.1435
  250SOD    SOD22310   3.805   2.628   5.622 -0.0397 -0.0695  0.0039
  251SOD    SOD22311   2.145   0.765  10.758 -0.0104  0.2997 -0.1482
  252SOD    SOD22312   6.072   1.219  11.643 -0.0682 -0.2609  0.2882
  253SOD    SOD22313   6.459   2.816  11.014  0.3994  0.0276  0.4659
  254SOD    SOD22314   4.372   3.491   3.287 -0.2063 -0.0343  0.1267
  255SOD    SOD22315   6.022   4.245  16.622 -0.0141  0.0113 -0.3506
  256SOD    SOD22316   5.374   1.973   6.158 -0.1741  0.2275  0.2084
  257SOD    SOD22317   3.295   5.068   6.131 -0.1778 -0.1257  0.5723
  258SOD    SOD22318   5.523   2.883  11.149  0.1492  0.1567 -0.0075
  259SOD    SOD22319   0.423   0.966   0.590  0.4029 -0.3136  0.5437
  260SOD    SOD22320   4.160   1.205  13.860  0.4604 -0.2251 -0.2124
  261SOD    SOD22321   0.846   6.657  12.594 -0.1645  0.0469  0.2925
  262SOD    SOD22322   0.866   2.616   6.405  0.1759  0.1041  0.7364
  263SOD    SOD22323   1.058   2.847  16.060  0.5760 -0.5515  0.0673
  264SOD    SOD22324   3.257   1.968   3.393 -0.0520  0.2865  0.4715
  265SOD    SOD22325   5.400   0.295   2.879 -0.0803  0.2586 -0.1133
  266SOD    SOD22326   3.643   2.325  12.955  0.2371 -0.0046 -0.2392
  267SOD    SOD22327   1.760   1.065  16.455 -0.6337  0.3034  0.4280
  268SOD    SOD22328   6.235   2.764  15.281 -0.0738 -0.4170  0.1571
  269SOD    SOD22329   0.179   4.464  16.775 -0.2243 -0.0614 -0.4633
  270CLA    CLA22330   3.706   0.425   5.081 -0.0495 -0.0279 -0.0311
  271CLA    CLA22331   3.223   6.516   4.861 -0.0832 -0.0825  0.2935
  272CLA    CLA22332   5.715   2.331  15.662 -0.0632  0.0163  0.0431
  273CLA    CLA22333   0.250   3.538  15.903 -0.3251  0.1021  0.1974
  274CLA    CLA22334   1.445   3.833  11.605  0.1640 -0.1992  0.3621
  275CLA    CLA22335   5.734   3.878  12.882  0.1733 -0.0062 -0.2962
  276CLA    CLA22336   1.187   1.638  13.453  0.4247  0.5373  0.3589
  277CLA    CLA22337   3.990   6.363  12.256  0.2131 -0.2665 -0.2615
  278CLA    CLA22338   5.392   6.013   3.216  0.1888  0.0104 -0.0322
  279CLA    CLA22339   1.882   3.038  14.292 -0.0585 -0.0932 -0.2005
  280CLA    CLA22340   3.547   2.211   0.021 -0.3530 -0.1838  0.2645
  281CLA    CLA22341   4.016   3.974   4.389 -0.0863 -0.1734 -0.0688
  282CLA    CLA22342   0.160   0.395   1.681 -0.0263  0.0191  0.1902
  283CLA    CLA22343   2.352   3.205  14.486 -0.1172 -0.1255  0.3134
  284CLA    CLA22344   2.090   2.432   4.981 -0.4774  0.3006 -0.5191
  285CLA    CLA22345   4.647   3.555   0.363  0.0066  0.4703 -0.1246
  286CLA    CLA22346   1.837   2.676   4.595 -0.3402 -0.1726 -0.4843
  287CLA    CLA22347   1.202   3.657  16.317  0.3126 -0.2108 -0.2276
  288CLA    CLA22348   1.681   1.194   3.039  0.3708 -0.1806 -0.0347
  289CLA    CLA22349   5.987   1.952  16.532  0.0598 -0.3815  0.2278
  290CLA    CLA22350   3.362   5.694   5.751  0.2965  0.0168 -0.0296
  291CLA    CLA22351   4.230   2.927   5.066  0.3373  0.1678  0.2509
  292CLA    CLA22352   3.813   1.783  15.065  0.0506 -0.2807 -0.0913
  293CLA    CLA22353   2.306   5.426   3.741  0.1329 -0.5606 -0.0456
  294CLA    CLA22354   2.358   6.087  16.641  0.3750 -0.0362  0.0800
  295CLA    CLA22355   4.148   0.554  14.467 -0.1960 -0.4564  0.0047
  296CLA    CLA22356   4.434   2.395   1.830  0.0668 -0.0249  0.1580
  297CLA    CLA22357   0.921   4.480  12.845 -0.4266  0.1047  0.1533
  298CLA    CLA22358   3.625   6.415  11.495 -0.1034 -0.3342 -0.1113
  299CLA    CLA22359   3.411   5.998   0.209 -0.2628  0.5584 -0.6487
  300CLA    CLA22360   2.171   0.237  15.705  0.0670  0.4210 -0.0219
  301CLA    CLA22361   3.354   3.301  16.108 -0.0567  0.0264  0.4819
  302CLA    CLA22362   0.088   2.216   0.995 -0.4280  0.2454  0.0802
  303CLA    CLA22363   3.049   3.355  16.594  0.3910  0.2896 -0.0925
  304CLA    CLA22364   3.351   5.345   1.175  0.0431 -0.0467 -0.1389
  305CLA    CLA22365   6.320   1.739   1.758 -0.0454  0.2838 -0.4117
  306CLA    CLA22366   2.655   4.442  16.553 -0.3051 -0.1969  0.2068
  307CLA    CLA22367   5.038   5.182   3.674  0.4699  0.2392  0.1358
  308CLA    CLA22368   4.102   1.361  13.119  0.1226 -0.1706  0.0958
  309CLA    CLA22369   5.165   0.602  13.356 -0.0575  0.0845  0.0846
  310CLA    CLA22370   5.492   4.392   2.166  0.1485 -0.2305  0.2152
  311CLA    CLA22371   4.657   0.400   1.685 -0.5732 -0.4228 -0.2514
  312CLA    CLA22372   6.748   0.529  14.949  0.1676  0.2872  0.2184
  313CLA    CLA22373   4.497   1.628  11.498  0.1814  0.4179 -0.2402
  314CLA    CLA22374   5.314   1.650   3.219 -0.0647  0.2491  0.1414
  315CLA    CLA22375   1.322   2.175  15.081  0.1295 -0.5038 -0.0097
  316CLA    CLA22376   5.556   0.581   0.609  0.3656  0.0481  0.1276
  317CLA    CLA22377   6.153   4.428   3.000 -0.2538  0.0467 -0.2972
  318CLA    CLA22378   5.212   2.791  15.058 -0.2143  0.2815  0.0551
  319CLA    CLA22379   4.882   4.946  14.361 -0.3244 -0.2445  0.0645
  320CLA    CLA22380   1.574   1.179  16.635 -0.5688 -0.0752 -0.3270
  321CLA    CLA22381   3.200   4.182  14.864 -0.1159 -0.0679 -0.2788
  322CLA    CLA22382   4.917   3.909   2.538  0.2636 -0.0763 -0.2538
  323TIP3   OH222383   0.122   2.093   5.057 -0.7324 -0.2772 -0.0678
  323TIP3    H122384   0.107   2.184   5.081  0.7354 -0.5314  1.9405
  323TIP3    H222385   0.215   2.090   5.034 -0.6541 -1.3564  0.3730
  324TIP3   OH222386   0.380   5.026  14.687  0.2583  0.4120 -0.3285
  324TIP3    H122387   0.469   5.032  14.652  1.0525 -3.0186  0.8821
  324TIP3    H222388   0.374   5.096  14.751  1.4413  1.8396 -1.7293
  325TIP3   OH222389   3.845   3.966   5.795  0.7536  0.3385  0.2400
  325TIP3    H122390   3.869   4.023   5.868  1.2843  1.0813 -0.5075
  325TIP3    H222391   3.882   3.881   5.818  1.4349  0.7178  0.5624
  326TIP3   OH222392   2.419   0.367  15.133 -0.2614  0.6572  0.3324
  326TIP3    H122393   2.364   0.427  15.082 -0.5767  0.6660  0.6817
  326TIP3    H222394   2.363   0.340  15.207 -0.2697 -0.3980 -0.0502
  327TIP3   OH222395   1.963   0.467  14.853  0.0954  0.5425 -0.0186
  327TIP3    H122396   2.048   0.484  14.813  0.1573  1.3512  0.4542
  327TIP3    H222397   1.900   0.516  14.800  0.3480  2.7691  1.6990
  328TIP3   OH222398   6.265   6.350   6.312 -0.0007  0.5176 -0.1812
  328TIP3    H122399   6.308   6.313   6.389  2.9886 -0.1348 -2.0922
  328TIP3    H222400   6.207   6.280   6.281 -0.5295  0.4570  0.9087
  329TIP3   OH222401   1.547   3.361  10.891 -0.1250  0.3749  0.3724
  329TIP3    H122402   1.510   3.446  10.870 -0.4740  0.7964  2.5136
  329TIP3    H222403   1.629   3.381  10.936 -1.7808 -0.2577  3.8439
  330TIP3   OH222404   3.024   3.856   5.338  0.2826 -0.1794  0.3531
  330TIP3    H122405   3.038   3.944   5.304  0.9096 -0.2999  0.2790
  330TIP3    H222406   2.936   3.833   5.311 -0.4503  1.0139  1.6875
  331TIP3   OH222407   5.318   6.745  10.856 -0.2065 -0.1298  0.7329
  331TIP3    H122408   5.295   6.653  10.867 -2.8905  0.4874  0.5877
  331TIP3    H222409   5.385   6.745  10.788  1.5668 -2.1534  2.4232
  332TIP3   OH222410   5.363   3.567   0.968 -0.2332 -0.5043  0.7137
  332TIP3    H122411   5.355   3.474   0.990  0.0707 -0.7362 -0.1271
  332TIP3    H222412   5.312   3.613   1.035 -0.1448 -1.2563  1.3006
  333TIP3   OH222413   0.504   6.195   5.613  0.6040  0.3906  0.0723
  333TIP3    H122414   0.441   6.248   5.663  2.0382  1.1966  1.0660
  333TIP3    H222415   0.579   6.186   5.671  0.8503 -1.8012 -0.5393
  334TIP3   OH222416   3.423   6.260  12.796  0.8376 -0.1375  0.0723
  334TIP3    H122417   3.457   6.235  12.710 -0.7651 -0.8953 -0.3625
  334TIP3    H222418   3.423   6.178  12.846 -3.2983 -0.9277 -0.9752
  335TIP3   OH222419   5.139   4.772  12.410  0.6740 -0.1956 -0.1693
  335TIP3    H122420   5.116   4.679  12.419 -1.7347  0.3006 -0.8627
  335TIP3    H222421   5.059   4.819  12.433  1.6645  1.7159 -0.4971
  336TIP3   OH222422   5.808   1.740  11.522 -0.5674 -0.5683 -0.3440
  336TIP3    H122423   5.726   1.745  11.572 -1.0937 -0.3321 -1.2059
  336TIP3    H222424   5.792   1.671  11.457 -0.6854  0.5479 -1.5421
  337TIP3   OH222425   0.118   3.630  13.385 -0.7464 -0.2520 -0.2332
  337TIP3    H122426   0.038   3.582  13.405 -1.6741  0.9746 -0.9309
  337TIP3    H222427   0.145   3.598  13.299 -0.3398 -0.8501  0.1133
  338TIP3   OH222428   3.028   3.701   1.628 -0.2299 -0.0523  0.2281
  338TIP3    H122429   3.005   3.781   1.673  0.8596 -0.5042  1.6024
  338TIP3    H222430   3.064   3.730   1.544  0.6895  0.9262  0.9458
  339TIP3   OH222431   3.918   6.186   1.244 -0.4539  0.6276  0.2297
  339TIP3    H122432   3.967   6.249   1.191 -0.0218  1.7845  1.9628
  339TIP3    H222433   3.827   6.215   1.238 -0.7709 -0.6409 -1.7610
  340TIP3   OH222434   1.662   2.960  16.835  0.3754  0.1224 -0.0921
  340TIP3    H122435   1.637   3.017  16.762  0.3808 -0.9277 -0.9339
  340TIP3    H222436   1.756   2.947  16.824 -0.0546 -2.1203 -1.4313
  341TIP3   OH222437   1.234   5.861   5.456  0.0618 -0.0158  0.4200
  341TIP3    H122438   1.146   5.876   5.491 -0.6496  0.8711 -1.7109
  341TIP3    H222439   1.274   5.801   5.519 -1.6412  0.4835  2.0456
  342TIP3   OH222440   3.519   3.716   0.699 -0.6624  0.8893  0.5036
  342TIP3    H122441   3.504   3.633   0.654  0.3584 -0.6749  2.9508
  342TIP3    H222442   3.613   3.730   0.692 -0.8011  1.7287  0.2934
  343TIP3   OH222443   6.441   0.951   1.428  0.0753  0.2356 -0.0472
  343TIP3    H122444   6.440   1.038   1.469 -0.0440 -0.8000  2.2330
  343TIP3    H222445   6.471   0.967   1.339  1.4981  2.4292  0.7809
  344TIP3   OH222446   4.221   2.478   3.297 -0.3981 -0.5401 -0.4593
  344TIP3    H122447   4.304   2.493   3.341 -0.5987 -0.5481 -0.0815
  344TIP3    H222448   4.214   2.551   3.235 -0.9695  0.4701  0.7871
  345TIP3   OH222449   0.704   3.412   1.223 -0.3107 -0.1240  0.3156
  345TIP3    H122450   0.636   3.476   1.249 -0.2976  0.1140 -0.2357
  345TIP3    H222451   0.723   3.434   1.132 -0.3633 -0.9774  0.1021
  346TIP3   OH222452   2.604   3.431   1.073 -0.0794 -0.0205 -0.1706
  346TIP3    H122453   2.565   3.430   1.161  0.0323  0.4221 -0.1120
  346TIP3    H222454   2.696   3.409   1.087  0.0778  0.6562 -0.0980
  347TIP3   OH222455   2.229   0.602  11.855  0.0963  0.1703 -0.5393
  347TIP3    H122456   2.315   0.606  11.896  0.6153 -1.8520 -1.3372
  347TIP3    H222457   2.185   0.529  11.900 -0.8700  0.6438 -0.7159
  348TIP3   OH222458   5.481   3.110  11.219 -0.0501 -0.1440 -0.2790
  348TIP3    H122459   5.472   3.146  11.307  1.1834  1.2223 -0.6884
  348TIP3    H222460   5.429   3.169  11.164 -0.6247 -0.8546 -0.5081
  349TIP3   OH222461   4.693   6.333   3.958 -0.3996  0.0111  0.6332
  349TIP3    H122462   4.781   6.306   3.985  0.0775  0.3431 -0.5722
  349TIP3    H222463   4.634   6.283   4.015  0.4979 -2.6186 -0.7006
  350TIP3   OH222464   1.080   0.844   0.506  0.4503 -0.3480  0.2914
  350TIP3    H122465   1.014   0.882   0.448  0.7243  2.4118  1.6727
  350TIP3    H222466   1.154   0.824   0.448  0.0209  0.6202 -0.6273
  351TIP3   OH222467   6.208   1.186  11.855 -0.0295  0.1571 -0.6323
  351TIP3    H122468   6.285   1.130  11.870 -2.3502 -3.4314 -1.3487
  351TIP3    H222469   6.176   1.207  11.943 -0.2134 -1.2857 -0.3420
  352TIP3   OH222470   5.567   0.236  12.954 -0.6811 -0.6882 -0.3397
  352TIP3    H122471   5.597   0.283  13.032 -1.1886 -0.5328 -0.2351
  352TIP3    H222472   5.534   0.153  12.987  1.2759 -1.6023 -0.6518
  353TIP3   OH222473   0.886   3.819   6.477 -0.0248 -0.4783 -0.0630
  353TIP3    H122474   0.806   3.781   6.441 -0.2592  1.8264 -2.0986
  353TIP3    H222475   0.938   3.743   6.504 -0.8392 -2.2159 -3.1789
  354TIP3   OH222476   4.911   5.540   5.833 -0.1946 -0.7768  0.5798
  354TIP3    H122477   4.891   5.629   5.864 -0.9151 -0.2398 -1.3538
  354TIP3    H222478   4.845   5.485   5.874 -0.0442 -0.3637  1.4052
  355TIP3   OH222479   5.041   4.521  14.548 -0.3647 -0.3063 -0.1139
  355TIP3    H122480   5.051   4.475  14.631  2.1473 -0.4850 -0.4969
  355TIP3    H222481   4.971   4.585  14.564  1.0745  0.6524  2.5644
  356TIP3   OH222482   0.461   1.046   3.090  0.5206  0.0418  0.2928
  356TIP3    H122483   0.551   1.020   3.107  0.4067  0.3837  1.4456
  356TIP3    H222484   0.464   1.142   3.084 -0.3742  0.4226  4.3715
  357TIP3   OH222485   5.384   3.024   2.373  0.4510  0.2685 -0.5462
  357TIP3    H122486   5.292   3.047   2.385 -0.2221 -2.2550 -0.6418
  357TIP3    H222487   5.397   3.027   2.279  0.6728  1.3284 -0.4885
  358TIP3   OH222488   4.021   2.736   2.045 -0.3746 -0.1690 -0.0228
  358TIP3    H122489   3.977   2.813   2.008  0.3804 -1.0064 -2.8279
  358TIP3    H222490   4.088   2.772   2.103 -0.3790  1.3060 -0.9070
  359TIP3   OH222491   2.490   4.603  14.408  0.2932  0.3176  0.1540
  359TIP3    H122492   2.411   4.599  14.353 -1.4343 -0.0011  2.5681
  359TIP3    H222493   2.523   4.692  14.396 -0.7172  0.6092 -0.5225
  360TIP3   OH222494   4.226   6.038   3.997 -0.1012  0.7380  0.0078
  360TIP3    H122495   4.282   5.967   4.030  0.2053  1.6906  1.5909
  360TIP3    H222496   4.150   6.037   4.054 -1.0186  0.4178 -1.2128
  361TIP3   OH222497   4.246   3.968   2.992 -0.6306 -0.3628  0.2265
  361TIP3    H122498   4.320   4.027   2.980 -1.1946  0.2481 -0.2526
  361TIP3    H222499   4.275   3.885   2.953 -0.7217  0.2832 -1.2749
  362TIP3   OH222500   2.256   0.329  17.231 -0.1482 -0.3819 -0.0260
  362TIP3    H122501   2.312   0.377  17.170 -1.9582  1.9582  0.0736
  362TIP3    H222502   2.285   0.359  17.317 -0.6423 -0.1825  0.0724
  363TIP3   OH222503   3.171   1.624  12.021 -0.4265 -0.3606 -0.0877
  363TIP3    H122504   3.190   1.532  12.005 -1.4157 -0.1213 -2.9467
  363TIP3    H222505   3.193   1.668  11.938  0.5879  2.0657  1.4106
  364TIP3   OH222506   3.492   4.323  13.168  0.3900 -0.5722  0.2486
  364TIP3    H122507   3.436   4.303  13.093 -0.5983 -1.4106  1.1970
  364TIP3    H222508   3.449   4.396  13.212  1.5230  0.6112 -0.5677
  365TIP3   OH222509   2.819   0.132   1.122  0.0813  0.5431  0.0170
  365TIP3    H122510   2.862   0.215   1.099 -1.8611  1.0602 -1.9539
  365TIP3    H222511   2.729   0.157   1.144  0.0452 -0.8122  1.4400
  366TIP3   OH222512   5.718   3.335  16.592  0.3488  0.0582 -0.4812
  366TIP3    H122513   5.678   3.386  16.662  1.4819 -0.4728  0.5692
  366TIP3    H222514   5.799   3.301  16.631  0.2433 -1.4600 -1.5707
  367TIP3   OH222515   5.293   3.499  14.310 -0.0742  0.1483 -0.5740
  367TIP3    H122516   5.320   3.573  14.365 -2.7230  1.1276 -0.5097
  367TIP3    H222517   5.326   3.520  14.223  1.6791 -0.0113  0.0400
  368TIP3   OH222518   6.100   4.275   2.702  0.9950  0.0477 -0.2354
  368TIP3    H122519   6.106   4.344   2.768 -0.7724 -0.6082  0.6399
  368TIP3    H222520   6.022   4.298   2.650  1.4032 -0.3463 -1.0363
  369TIP3   OH222521   4.732   3.328  11.251 -0.2434 -0.2392 -0.1795
  369TIP3    H122522   4.761   3.237  11.257 -1.0165 -0.4998 -0.3048
  369TIP3    H222523   4.660   3.326  11.188  0.7509  0.7187 -1.3515
  370TIP3   OH222524   3.193   5.413  16.068  0.7465 -0.0999 -0.3768
  370TIP3    H122525   3.156   5.356  16.000 -0.2505 -0.2740  0.3086
  370TIP3    H222526   3.201   5.499  16.025  0.6202 -0.3313 -0.8727
  371TIP3   OH222527   1.944   6.769  16.771 -1.0397  0.5131  0.0706
  371TIP3    H122528   1.904   6.749  16.687 -0.3669 -1.3229  0.1589
  371TIP3    H222529   2.033   6.734  16.764 -0.8699  0.6330  1.4143
  372TIP3   OH222530   2.824   5.351   5.589  0.1526  0.4110 -0.4490
  372TIP3    H122531   2.895   5.287   5.578  0.5466  0.5799  1.0691
  372TIP3    H222532   2.842   5.393   5.673 -3.4157 -1.6327  1.4580
  373TIP3   OH222533   0.493   0.869  13.352 -0.2630  0.2528  0.4581
  373TIP3    H122534   0.571   0.873  13.296 -0.8309 -0.6554 -0.4259
  373TIP3    H222535   0.484   0.957  13.388 -0.7700  1.3163 -2.1344
  374TIP3   OH222536   2.514   0.370   3.467  0.7641 -0.9114  0.4300
  374TIP3    H122537   2.559   0.378   3.383  1.8889  0.5120  1.1404
  374TIP3    H222538   2.435   0.424   3.457  0.0463 -2.0846 -0.2660
  375TIP3   OH222539   0.984   3.735  12.543 -0.1705 -0.3626 -0.0704
  375TIP3    H122540   1.062   3.745  12.488  0.6993 -1.2953  0.9514
  375TIP3    H222541   0.925   3.682  12.490  0.4841 -0.8893 -0.2913
  376TIP3   OH222542   1.466   4.986   2.078  1.1880 -0.4524 -0.0837
  376TIP3    H122543   1.387   4.958   2.124 -0.5141  0.1005 -2.5688
  376TIP3    H222544   1.491   5.068   2.120  0.9540 -1.0685  1.2847
  377TIP3   OH222545   1.583   0.327   5.823 -0.4978 -0.0719 -0.2054
  377TIP3    H122546   1.601   0.237   5.797  1.1960  0.4582 -0.9380
  377TIP3    H222547   1.525   0.361   5.755 -0.2296 -0.2742 -0.5369
  378TIP3   OH222548   1.517   0.061  15.452 -0.5397  0.7487  0.1160
  378TIP3    H122549   1.527   0.037  15.544  0.3443  1.8325  0.3228
  378TIP3    H222550   1.445   0.125  15.451 -1.9531 -0.7939 -0.2472
  379TIP3   OH222551   4.982   6.577   4.622  0.7048  0.1823 -0.3020
  379TIP3    H122552   4.956   6.503   4.677 -0.1640  0.9373  0.3186
  379TIP3    H222553   5.037   6.632   4.678 -0.6592  1.2520  0.0255
  380TIP3   OH222554   6.543   2.536   5.149 -0.0955 -0.3195 -0.3705
  380TIP3    H122555   6.522   2.451   5.112  0.0110 -1.2554  1.6837
  380TIP3    H222556   6.551   2.521   5.243 -1.4808  2.2252  0.2102
  381TIP3   OH222557   1.382   5.169  13.595  0.6248 -0.2497 -0.1391
  381TIP3    H122558   1.340   5.089  13.565 -1.6056  0.5903  0.6380
  381TIP3    H222559   1.458   5.139  13.645  1.0698 -1.7852 -1.7004
  382TIP3   OH222560   2.629   3.106   4.653 -0.2877 -0.1496 -0.3846
  382TIP3    H122561   2.660   3.108   4.744  2.5257  2.2237 -1.3356
  382TIP3    H222562   2.556   3.168   4.652  0.2738  0.5232  0.0468
  383TIP3   OH222563   0.100   5.527  12.638  0.2500  0.3932 -0.6996
  383TIP3    H122564   0.042   5.586  12.685 -0.3680 -0.8203  0.0931
  383TIP3    H222565   0.049   5.497  12.562  0.3928  0.5088 -0.8427
  384TIP3   OH222566   6.219   5.557  11.595  0.2229 -0.7192  0.2611
  384TIP3    H122567   6.135   5.513  11.608  0.3120 -1.1809 -0.6506
  384TIP3    H222568   6.276   5.488  11.561  0.0328  0.3845 -2.3469
  385TIP3   OH222569   2.955   5.463  11.051 -0.1690 -0.3299 -0.7914
  385TIP3    H122570   2.949   5.390  11.112  0.5830 -0.8145 -1.2886
  385TIP3    H222571   2.865   5.477  11.021 -0.7008  0.5497  1.1485
  386TIP3   OH222572   4.326   0.179  14.485  0.0161  0.9947 -0.0526
  386TIP3    H122573   4.244   0.178  14.536 -0.7216  1.3244 -1.2132
  386TIP3    H222574   4.317   0.254  14.427  0.4946  0.1339 -1.2575
  387TIP3   OH222575   6.129   4.418   4.263  0.1134  0.5312  0.0390
  387TIP3    H122576   6.139   4.354   4.333  1.4644 -0.3438 -0.9573
  387TIP3    H222577   6.190   4.488   4.286 -0.5223  0.9492  0.5035
  388TIP3   OH222578   5.985   3.526   2.332 -0.2282 -0.2667  0.4879
  388TIP3    H122579   5.959   3.480   2.411 -0.8619  0.7991  0.9141
  388TIP3    H222580   5.995   3.617   2.359 -0.0722  0.0438 -0.5708
  389TIP3   OH222581   0.191   1.107  13.197 -0.0235  0.2190  0.2317
  389TIP3    H122582   0.160   1.056  13.122 -0.1392 -0.7303  0.9223
  389TIP3    H222583   0.259   1.164  13.160  0.7429 -1.0588 -0.3950
  390TIP3   OH222584   6.111   0.884  11.387  0.3545  0.0913  0.3438
  390TIP3    H122585   6.172   0.819  11.423  1.4856  0.8308 -0.2326
  390TIP3    H222586   6.135   0.966  11.430 -0.2705  0.3721  0.1574
  391TIP3   OH222587   3.454   0.614  12.812 -0.1496 -0.3173  0.8384
  391TIP3    H122588   3.491   0.567  12.737 -0.9267 -0.0568  0.2878
  391TIP3    H222589   3.527   0.622  12.873  0.6183 -0.1257 -0.0858
  392TIP3   OH222590   0.785   0.396  13.260  0.1646 -0.7594  0.6985
  392TIP3    H122591   0.738   0.371  13.340  1.7016 -2.3385  1.1409
  392TIP3    H222592   0.846   0.464  13.289 -1.3826  0.8337  0.2523
  393TIP3   OH222593   5.013   1.472   1.621  0.5650 -0.1809  0.3437
  393TIP3    H122594   5.095   1.426   1.641  0.2708 -1.8430 -2.1016
  393TIP3    H222595   4.945   1.418   1.659  0.3811 -0.6106 -0.5791
  394TIP3   OH222596   4.616   6.692  12.187 -0.0360 -0.1369  0.4194
  394TIP3    H122597   4.582   6.617  12.137  1.2120 -0.7228  0.4240
  394TIP3    H222598   4.672   6.738  12.126 -0.5330  0.6142  0.5237
  395TIP3   OH222599   3.489   2.376  15.347 -0.1279  0.3921  0.6013
  395TIP3    H122600   3.485   2.465  15.381 -0.1183  1.2312 -1.5196
  395TIP3    H222601   3.539   2.383  15.265  1.1820 -1.8107  1.1641
  396TIP3   OH222602   4.404   0.442  12.795 -0.1986 -0.2818 -0.5253
  396TIP3    H122603   4.455   0.432  12.876  0.7380  0.1805 -1.0406
  396TIP3    H222604   4.451   0.510  12.747 -0.7187 -0.6044 -1.4876
  397TIP3   OH222605   6.129   2.238  11.729  0.5925 -0.2298 -0.4560
  397TIP3    H122606   6.055   2.265  11.674 -1.1163 -1.0122  1.4151
  397TIP3    H222607   6.175   2.320  11.747  0.2560  0.2579 -1.6986
  398TIP3   OH222608   2.847   1.953   0.975  0.7412 -0.6909 -0.4866
  398TIP3    H122609   2.902   2.007   0.918  1.6688 -0.6257  0.4446
  398TIP3    H222610   2.828   2.010   1.050  2.1626 -1.8089  0.7583
  399TIP3   OH222611   2.554   0.715  11.431 -0.2175  0.0131 -0.1113
  399TIP3    H122612   2.524   0.788  11.486  1.1596  0.5956 -0.1236
  399TIP3    H222613   2.530   0.637  11.481 -0.6875  0.4953  0.4295
  400TIP3   OH222614   0.084   6.200  17.044  0.7300  0.5304  0.3500
  400TIP3    H122615   0.135   6.172  16.968  0.3941 -0.5126  0.5046
  400TIP3    H222616   0.036   6.277  17.013  1.2471  0.6256 -0.2353
  401TIP3   OH222617   1.211   2.466  17.202  0.2359  0.3183  0.0481
  401TIP3    H122618   1.132   2.480  17.150  1.2638  1.3706 -1.2598
  401TIP3    H222619   1.256   2.551  17.201  0.2678  0.3854  2.6917
  402TIP3   OH222620   3.999   4.007  15.895  0.2410 -0.3842 -0.1634
  402TIP3    H122621   4.002   3.971  15.807 -0.0817  1.4896 -0.9756
  402TIP3    H222622   3.909   3.996  15.923  0.7013 -2.4618  0.6073
  403TIP3   OH222623   1.757   5.219  12.996  0.0531 -0.8340  0.3260
  403TIP3    H122624   1.788   5.200  13.085 -0.1570 -1.1882  0.3243
  403TIP3    H222625   1.670   5.257  13.009  1.1381  1.7404  0.4324
  404TIP3   OH222626   3.017   2.750   2.692  0.5852 -0.0155 -0.0975
  404TIP3    H122627   2.943   2.714   2.741  0.5919 -0.4426 -0.3930
  404TIP3    H222628   2.983   2.830   2.652  0.2262 -0.3129 -0.3898
  405TIP3   OH222629   3.235   6.131   3.917  0.4000  0.4961  0.1560
  405TIP3    H122630   3.298   6.202   3.907  1.6870 -0.8163 -1.3186
  405TIP3    H222631   3.260   6.088   3.999  0.5584  0.8327  0.2827
  406TIP3   OH222632   2.807   4.905  12.482 -0.6175  0.6409  0.1849
  406TIP3    H122633   2.865   4.981  12.494  2.3597 -1.0680 -2.3637
  406TIP3    H222634   2.821   4.851  12.560  1.9590 -0.1187 -0.7229
  407TIP3   OH222635   5.036   2.374  11.754  0.5093  0.0831 -0.6511
  407TIP3    H122636   5.033   2.278  11.759 -1.3699  0.2508  3.4048
  407TIP3    H222637   5.111   2.398  11.809 -0.7487  0.9877  0.7147
  408TIP3   OH222638   0.701   0.763  13.171  0.5799 -0.5640  0.5926
  408TIP3    H122639   0.736   0.839  13.125 -0.2978  1.2078  2.7844
  408TIP3    H222640   0.769   0.741  13.235  0.7555 -1.5436  0.0841
  409TIP3   OH222641   1.391   5.999  14.535  0.2893 -0.5187  0.2151
  409TIP3    H122642   1.353   5.913  14.552  0.4498 -0.7776 -0.7453
  409TIP3    H222643   1.436   6.021  14.617 -1.5804 -0.3745  1.2595
  410TIP3   OH222644   5.537   0.916  14.129 -0.3541 -0.8836 -0.3211
  410TIP3    H122645   5.499   0.939  14.044  2.2714 -1.5681 -1.7533
  410TIP3    H222646   5.609   0.856  14.108  0.4152 -0.9981  2.3858
  411TIP3   OH222647   3.453   4.814  12.657  0.2303 -0.4037  0.4390
  411TIP3    H122648   3.491   4.757  12.724 -0.6597  0.1291  1.4065
  411TIP3    H222649   3.500   4.896  12.665 -0.3090 -0.1289  0.8549
  412TIP3   OH222650   2.801   6.349  15.560  0.1640  0.3415  0.5309
  412TIP3    H122651   2.890   6.369  15.587  0.9291  0.0815 -1.6915
  412TIP3    H222652   2.771   6.428  15.514  0.6300 -0.9084 -2.0071
  413TIP3   OH222653   2.491   4.222   1.155 -0.5551  0.1659 -0.0072
  413TIP3    H122654   2.428   4.228   1.083  1.4291  1.8086 -1.6796
  413TIP3    H222655   2.559   4.162   1.123 -0.9091 -1.0577  1.5015
  414TIP3   OH222656   2.362   4.334  12.224 -0.1890 -0.4692  0.5556
  414TIP3    H122657   2.379   4.389  12.147  1.7007  0.5792  1.6687
  414TIP3    H222658   2.447   4.330  12.268 -0.3572 -4.0619  0.6718
  415TIP3   OH222659   2.255   1.818   1.584 -0.2243  0.2469 -0.3027
  415TIP3    H122660   2.196   1.838   1.511 -0.0180 -1.8923 -1.0948
  415TIP3    H222661   2.338   1.859   1.560 -1.0337  2.3144  0.2898
  416TIP3   OH222662   1.811   0.866  12.840  0.3110  0.3816 -0.8902
  416TIP3    H122663   1.796   0.957  12.868 -0.2177 -0.2917  1.1164
  416TIP3    H222664   1.903   0.865  12.812  1.5308  0.7189  2.7391
  417TIP3   OH222665   4.555   0.962  11.373  0.0754 -0.7872  0.0747
  417TIP3    H122666   4.531   0.882  11.327  2.1426 -1.5077  0.2151
  417TIP3    H222667   4.585   1.022  11.304 -0.3705 -0.5487  0.0884
  418TIP3   OH222668   6.177   1.464   1.835 -0.0007  0.1096  0.0751
  418TIP3    H122669   6.220   1.549   1.843  0.0426 -0.0635  1.9779
  418TIP3    H222670   6.087   1.485   1.809 -0.4691  0.8571  2.2180
  419TIP3   OH222671   3.199   0.057  16.916 -0.0951  0.3734  0.3878
  419TIP3    H122672   3.166   0.133  16.965 -0.5850  1.0823 -1.0151
  419TIP3    H222673   3.143  -0.016  16.944  0.7752  0.3798  2.2104
  420TIP3   OH222674   6.550   5.731   2.988 -0.2409  0.0601 -0.7685
  420TIP3    H122675   6.580   5.772   3.069 -2.2574 -0.4270  0.2705
  420TIP3    H222676   6.595   5.647   2.986  0.1507  0.2558 -0.3740
  421TIP3   OH222677   5.712   2.994  16.369 -0.5024 -0.1660 -0.1120
  421TIP3    H122678   5.796   3.041  16.373  0.7607 -2.3950  0.9629
  421TIP3    H222679   5.677   3.000  16.458  0.7202 -2.9679  0.6302
  422TIP3   OH222680   5.871   3.333   0.877  0.0257 -0.5591 -0.6737
  422TIP3    H122681   5.819   3.404   0.839  1.3373  0.7206 -0.1409
  422TIP3    H222682   5.817   3.298   0.947  0.2903  1.4794  0.5918
  423TIP3   OH222683   4.092   0.374  11.318 -0.0903  0.4759 -0.1963
  423TIP3    H122684   4.036   0.452  11.316 -1.7215 -0.6313  0.9986
  423TIP3    H222685   4.150   0.388  11.393  0.6059  1.1698 -0.8449
  424TIP3   OH222686   1.345   1.159  15.518  0.1691  0.2130  0.0272
  424TIP3    H122687   1.353   1.081  15.573  0.8939  0.1993 -0.0964
  424TIP3    H222688   1.399   1.225  15.562  2.2240 -0.3317 -1.6351
  425TIP3   OH222689   4.979   3.894   0.426 -0.1471  0.7496 -0.3087
  425TIP3    H122690   4.971   3.813   0.377  0.0417  0.1137  0.6964
  425TIP3    H222691   5.057   3.882   0.481 -0.9263  1.0352  0.8941
  426TIP3   OH222692   5.971   6.540  16.514 -0.2578 -0.4615 -0.0899
  426TIP3    H122693   5.962   6.572  16.604 -2.7967 -2.0022  0.2607
  426TIP3    H222694   6.041   6.593  16.476  0.8950  0.1658  2.8171
  427TIP3   OH222695   3.113   1.692  16.494 -0.0713  0.3865  0.3705
  427TIP3    H122696   3.082   1.608  16.528  0.1485 -0.1334 -0.6914
  427TIP3    H222697   3.205   1.696  16.523  0.6031 -0.8074 -1.5031
  428TIP3   OH222698   6.371   3.530   4.884  0.4219 -0.3805  0.0330
  428TIP3    H122699   6.403   3.482   4.961 -0.7366 -0.6411  0.3519
  428TIP3    H222700   6.351   3.462   4.820 -1.8230 -0.3775  0.7084
  429TIP3   OH222701   4.006   6.463  16.455 -0.3953  0.0256  0.1123
  429TIP3    H122702   4.082   6.515  16.430 -0.0796 -0.5001 -0.0186
  429TIP3    H222703   4.012   6.454  16.550 -0.3181  0.0140  0.1062
  430TIP3   OH222704   6.662   2.262   2.543  0.6519 -0.2444  0.7619
  430TIP3    H122705   6.741   2.237   2.495 -0.3995  0.5313 -1.3948
  430TIP3    H222706   6.686   2.344   2.587  0.5725  0.7922 -1.1076
  431TIP3   OH222707   3.081   4.086   5.198  0.2601  0.3010 -0.0657
  431TIP3    H122708   3.025   4.114   5.126  0.1405 -0.0463 -0.1105
  431TIP3    H222709   3.138   4.160   5.214 -0.5105  0.8280  0.2810
  432TIP3   OH222710   0.454   1.124   2.458  0.0070  0.3223  0.4165
  432TIP3    H122711   0.400   1.046   2.451 -1.4312  1.2857  0.5373
  432TIP3    H222712   0.474   1.149   2.368  0.1898  0.0060  0.3701
  433TIP3   OH222713   5.546   2.014   2.904 -0.6559  0.7310  0.4122
  433TIP3    H122714   5.530   1.919   2.904 -2.3401  0.9949  1.1283
  433TIP3    H222715   5.575   2.034   2.992 -1.2289  1.0171  0.5403
  434TIP3   OH222716   0.249   5.288   0.235 -0.0893 -0.1221 -0.1500
  434TIP3    H122717   0.197   5.350   0.183  0.2372 -0.9868 -1.5180
  434TIP3    H222718   0.339   5.304   0.209  0.0025 -1.1279 -0.4696
  435TIP3   OH222719   1.629   1.133   4.466 -0.0845  0.1478 -0.3584
  435TIP3    H122720   1.615   1.227   4.471  0.3081  0.1725  0.4098
  435TIP3    H222721   1.579   1.097   4.539  0.1242 -0.1939 -0.3811
  436TIP3   OH222722   0.020   4.709   4.200  0.2609  0.2693 -0.1953
  436TIP3    H122723   0.065   4.787   4.233  0.6530  0.6106 -1.5026
  436TIP3    H222724  -0.038   4.743   4.132 -2.1644 -0.1300  1.5878
  437TIP3   OH222725   2.424   1.183   5.919 -0.0137 -0.2145 -0.1619
  437TIP3    H122726   2.345   1.136   5.893  0.1656 -0.7324  0.2289
  437TIP3    H222727   2.396   1.240   5.990  0.5175 -2.3562  1.8096
  438TIP3   OH222728   0.903   5.408  12.542  0.0487 -0.2082 -0.2227
  438TIP3    H122729   0.954   5.446  12.470 -0.1068 -1.6662 -1.1143
  438TIP3    H222730   0.821   5.457  12.542  0.4994  0.5636 -0.2878
  439TIP3   OH222731   4.058   0.326  15.701 -0.2336 -0.2668 -0.3105
  439TIP3    H122732   4.057   0.333  15.605  0.3621  0.0227 -0.2959
  439TIP3    H222733   3.989   0.386  15.730 -0.6016 -0.5642 -0.5740
  440TIP3   OH222734   0.468   4.283   5.581  0.6260 -0.2502  0.0534
  440TIP3    H122735   0.529   4.305   5.511 -0.0356  1.9246  0.1293
  440TIP3    H222736   0.400   4.230   5.539  0.0726  1.2991 -1.0123
  441TIP3   OH222737   0.990   0.136   1.729  1.0379  0.3096 -0.2278
  441TIP3    H122738   1.041   0.064   1.691 -0.8433 -1.9548  1.3955
  441TIP3    H222739   0.936   0.169   1.657 -1.4642 -2.9931  0.0245
  442TIP3   OH222740   4.904   0.810   3.513  0.0621 -0.2025  0.2481
  442TIP3    H122741   4.914   0.833   3.421  0.7032  0.2336  0.4238
  442TIP3    H222742   4.810   0.822   3.531 -0.2200 -1.1432 -0.5629
  443TIP3   OH222743   1.060   6.165   4.971 -0.1042 -0.2393 -0.2047
  443TIP3    H122744   1.131   6.220   4.938  0.9217  0.0239  2.2867
  443TIP3    H222745   0.982   6.220   4.966  0.6017  0.8718  0.6311
  444TIP3   OH222746   6.348   6.255  16.883 -0.3422  0.0111  0.1722
  444TIP3    H122747   6.422   6.228  16.829 -0.5177 -1.0173  0.4393
  444TIP3    H222748   6.288   6.297  16.821  0.6952  1.3523  0.0483
  445TIP3   OH222749   2.679   5.151   3.372 -0.1185  0.4551 -0.0079
  445TIP3    H122750   2.737   5.223   3.345 -1.3946  1.0771 -1.1988
  445TIP3    H222751   2.607   5.195   3.417 -1.2440 -0.0189 -1.3385
  446TIP3   OH222752   5.659   6.183  16.892  0.6250 -0.5138  0.5424
  446TIP3    H122753   5.694   6.094  16.883  0.9858 -0.2211 -1.0279
  446TIP3    H222754   5.737   6.240  16.889  0.1715  0.0394 -1.4676
  447TIP3   OH222755   1.446   5.371   0.704 -0.3107 -0.1145  0.3846
  447TIP3    H122756   1.433   5.451   0.755 -0.1596  0.5128 -0.5629
  447TIP3    H222757   1.493   5.399   0.626 -0.1502 -1.1502  0.0977
  448TIP3   OH222758   4.379   1.931   5.581  0.4889  0.0473 -0.1486
  448TIP3    H122759   4.407   2.019   5.608 -0.0529  0.2677 -0.2878
  448TIP3    H222760   4.310   1.909   5.644 -0.4256  0.3472 -1.0330
  449TIP3   OH222761   2.348   2.769  17.196 -0.1742  0.5207 -0.0113
  449TIP3    H122762   2.402   2.697  17.228 -1.1803  0.1740  0.9259
  449TIP3    H222763   2.311   2.808  17.275 -3.4432 -0.9304 -0.7372
  450TIP3   OH222764   5.639   6.773  14.071  0.5607 -0.1544  0.3264
  450TIP3    H122765   5.662   6.694  14.121  1.2623 -0.0789  0.1288
  450TIP3    H222766   5.602   6.739  13.989 -1.2428 -0.2806  1.1731
  451TIP3   OH222767   2.652   5.510   1.652 -0.5316  0.6114 -0.1588
  451TIP3    H122768   2.694   5.490   1.568  1.6461 -0.2631  1.1016
  451TIP3    H222769   2.580   5.448   1.658  0.2127 -0.3160 -0.7022
  452TIP3   OH222770   2.797   3.485  17.000 -0.1861 -0.1820  0.3555
  452TIP3    H122771   2.743   3.521  16.929  0.1044 -1.1832 -0.3849
  452TIP3    H222772   2.885   3.519  16.983 -0.3618  0.5788  0.9495
  453TIP3   OH222773   6.180   6.065   2.030 -0.5495 -0.3265  0.5127
  453TIP3    H122774   6.145   6.133   2.086  0.5112 -0.3198  1.1892
  453TIP3    H222775   6.110   6.046   1.967 -0.8358  1.3928  0.3065
  454TIP3   OH222776   4.248   0.846  15.156  0.8301  0.1828 -0.4937
  454TIP3    H122777   4.318   0.790  15.191  0.1217 -0.2923  0.1830
  454TIP3    H222778   4.168   0.812  15.197  0.4926  2.2390  0.6068
  455TIP3   OH222779   0.715   5.703   0.826  0.0918  0.1167 -0.1009
  455TIP3    H122780   0.726   5.609   0.843  1.0534  0.2902  0.3118
  455TIP3    H222781   0.805   5.735   0.817 -0.2557  0.9176 -0.6699
  456TIP3   OH222782   3.451   6.345   3.892 -0.1120  0.3817  0.7686
  456TIP3    H122783   3.529   6.399   3.897 -0.6172  1.1748  0.3008
  456TIP3    H222784   3.445   6.321   3.799  0.1173 -0.4885  0.9771
  457TIP3   OH222785   3.317   1.587  14.784 -0.3182 -0.7122 -0.4125
  457TIP3    H122786   3.306   1.518  14.848 -2.1260  0.0920  0.1889
  457TIP3    H222787   3.402   1.626  14.805 -0.6023 -0.8669  1.1034
  458TIP3   OH222788   0.260   5.828  13.538 -0.5285 -0.4642  0.4626
  458TIP3    H122789   0.305   5.894  13.590  0.1359  0.5967 -1.4171
  458TIP3    H222790   0.193   5.793  13.597  0.1480  0.7341  1.9959
  459TIP3   OH222791   1.783   3.824  13.386  0.1026  0.3098  0.4004
  459TIP3    H122792   1.776   3.813  13.481  2.8507  0.7306  0.7025
  459TIP3    H222793   1.801   3.917  13.374  1.9681 -0.1310 -0.3601
  460TIP3   OH222794   1.545   1.571   6.316 -0.2236 -0.0457 -0.1635
  460TIP3    H122795   1.617   1.597   6.258 -1.4796  0.3708 -1.5822
  460TIP3    H222796   1.476   1.635   6.298 -1.7674 -1.7616 -0.5028
  461TIP3   OH222797   2.587   3.085  15.753 -0.0961 -0.4244 -0.7521
  461TIP3    H122798   2.528   3.148  15.794 -0.9744  0.1183 -2.7801
  461TIP3    H222799   2.558   3.000  15.784 -1.6997 -0.1307 -1.3752
  462TIP3   OH222800   4.733   2.217   1.098 -0.4501 -0.0114 -0.2988
  462TIP3    H122801   4.657   2.267   1.128 -1.8024 -0.9662 -2.0813
  462TIP3    H222802   4.738   2.143   1.159 -0.6249  0.3426  0.1485
  463TIP3   OH222803   5.603   5.353  15.565 -0.2851  0.4061 -0.1800
  463TIP3    H122804   5.662   5.318  15.632  0.3410  1.3250 -0.2401
  463TIP3    H222805   5.530   5.292  15.563 -0.1692  0.2164  1.1392
  464TIP3   OH222806   0.794   1.623  14.525 -0.4147 -0.1200  0.7361
  464TIP3    H122807   0.861   1.670  14.574 -0.0858 -0.4688  0.6223
  464TIP3    H222808   0.836   1.600  14.442 -1.1498  0.9622  0.0508
  465TIP3   OH222809   0.022   1.216  15.407 -0.7185  0.1678  0.8746
  465TIP3    H122810   0.060   1.264  15.334 -1.6153  0.0405  0.3081
  465TIP3    H222811   0.093   1.160  15.439  0.4420  2.1055  1.7812
  466TIP3   OH222812   0.282   4.741  16.175  0.4810  0.1067  0.2850
  466TIP3    H122813   0.251   4.829  16.197  0.0636 -0.0444  0.3103
  466TIP3    H222814   0.205   4.686  16.187  0.7474 -0.2628  0.2727
  467TIP3   OH222815   4.460   1.278   3.514  0.4192  0.3223  0.7443
  467TIP3    H122816   4.392   1.271   3.447  1.1934  2.9437 -0.4088
  467TIP3    H222817   4.455   1.370   3.542  0.8300 -0.4787  3.5319
  468TIP3   OH222818   6.679   1.158  11.803  0.0582 -0.5951 -0.3484
  468TIP3    H122819   6.734   1.184  11.729  0.4259 -0.7855 -0.1408
  468TIP3    H222820   6.612   1.102  11.763  1.3640 -2.2614 -0.2753
  469TIP3   OH222821   4.056   3.749  12.114  0.6394  0.3554  0.0783
  469TIP3    H122822   3.961   3.744  12.122  0.8013 -2.1684  0.9540
  469TIP3    H222823   4.075   3.719  12.026  0.6878 -0.2368  0.2887
  470TIP3   OH222824   5.025   4.029   4.594 -0.4673 -0.8351 -0.1107
  470TIP3    H122825   5.015   3.942   4.634 -1.2826 -0.7023 -0.0251
  470TIP3    H222826   4.938   4.068   4.599 -0.1405 -0.0768 -0.3100
  471TIP3   OH222827   6.378   3.205  11.200 -0.0107  0.2404  0.1500
  471TIP3    H122828   6.294   3.232  11.162  0.8029  3.2780  0.3691
  471TIP3    H222829   6.370   3.227  11.293 -0.2786 -2.8402  0.8877
  472TIP3   OH222830   2.993   6.618  13.590  0.0369 -0.2314  0.1854
  472TIP3    H122831   2.913   6.639  13.543 -0.2488 -0.3040  0.6440
  472TIP3    H222832   3.035   6.550  13.536  0.0706  0.2093 -0.3418
  473TIP3   OH222833   4.594   0.098  12.399  0.7789  0.5043  0.5984
  473TIP3    H122834   4.673   0.139  12.364  0.5381  1.0563  0.7082
  473TIP3    H222835   4.576   0.026  12.337  0.6165  1.1883 -0.1621
  474TIP3   OH222836   6.485   3.110  13.749 -0.7486 -0.1033  0.0847
  474TIP3    H122837   6.531   3.174  13.803  0.7565 -1.7102  0.7628
  474TIP3    H222838   6.503   3.137  13.659 -0.1549  0.4377  0.3622
  475TIP3   OH222839   6.270   4.006  14.904  0.3517  0.2218  0.0539
  475TIP3    H122840   6.224   4.017  14.820 -0.9800  0.5479  0.8172
  475TIP3    H222841   6.262   3.912  14.923  0.3337  0.2111 -0.0033
  476TIP3   OH222842   1.302   4.939  16.697  0.3058  0.0645  0.3552
  476TIP3    H122843   1.393   4.913  16.685  0.4121 -0.3240  1.9525
  476TIP3    H222844   1.260   4.863  16.736 -0.6528  0.3444 -0.1061
  477TIP3   OH222845   5.662   0.919   1.761 -0.1956 -0.4779  0.1763
  477TIP3    H122846   5.754   0.912   1.735 -0.2194 -1.1540  0.2512
  477TIP3    H222847   5.665   0.917   1.857 -0.2614 -0.1141  0.1861
  478TIP3   OH222848   0.896   0.956  15.000 -0.1350  0.3565  0.1619
  478TIP3    H122849   0.920   1.023  14.936 -0.8014 -0.3192 -0.7922
  478TIP3    H222850   0.847   0.891  14.951 -1.6186  0.3685  1.5773
  479TIP3   OH222851   3.232   4.032   1.891  0.0725 -0.6202 -0.3445
  479TIP3    H122852   3.310   3.986   1.862 -0.2726 -0.7601 -1.0636
  479TIP3    H222853   3.261   4.122   1.907  0.1817 -0.4427 -1.5232
  480TIP3   OH222854   5.247   4.842  16.871 -0.3922  0.1615 -0.5916
  480TIP3    H122855   5.275   4.826  16.780  0.8735 -0.2003 -0.1487
  480TIP3    H222856   5.154   4.823  16.870  0.0534 -2.1817 -1.3051
  481TIP3   OH222857   3.026   1.337  16.743 -0.3818  0.3376  0.1203
  481TIP3    H122858   2.989   1.260  16.785  1.7733 -1.8542 -1.7980
  481TIP3    H222859   3.039   1.400  16.813  0.6076 -2.1950  2.2794
  482TIP3   OH222860   3.687   1.429  11.356  0.9288  0.0663 -0.1000
  482TIP3    H122861   3.616   1.492  11.339  0.3500 -0.2860  0.9458
  482TIP3    H222862   3.758   1.457  11.299 -0.0343  0.4682 -1.1281
  483TIP3   OH222863   5.614   4.948  11.911 -0.3789 -0.1853  0.9873
  483TIP3    H122864   5.539   5.000  11.882 -0.3603 -1.3098 -1.1228
  483TIP3    H222865   5.628   4.975  12.002 -0.9438  2.8285  0.2182
  484TIP3   OH222866   2.683   5.109   5.614 -0.1521  0.3392  0.5097
  484TIP3    H122867   2.702   5.196   5.580  1.6938 -0.5853 -0.8772
  484TIP3    H222868   2.769   5.070   5.630 -0.9585 -1.2047  1.2050
  485TIP3   OH222869   1.485   1.619  13.133 -0.1662  0.1539 -0.0774
  485TIP3    H122870   1.468   1.608  13.040  2.4748  0.7770 -0.6554
  485TIP3    H222871   1.425   1.688  13.160 -2.2077 -1.2580 -0.8937
  486TIP3   OH222872   0.324   4.768  14.783  0.2518 -0.2488  0.3205
  486TIP3    H122873   0.313   4.856  14.747 -1.0429 -0.2930  0.5835
  486TIP3    H222874   0.410   4.770  14.824  0.4604  0.7313 -0.1338
  487TIP3   OH222875   1.281   1.224   2.260 -0.0482 -0.0172 -0.0772
  487TIP3    H122876   1.220   1.260   2.196 -0.6574 -0.2997  0.3321
  487TIP3    H222877   1.268   1.278   2.338 -1.2646 -1.3386  0.6765
  488TIP3   OH222878   2.755   0.765  11.018 -0.4422  0.1102 -0.1685
  488TIP3    H122879   2.831   0.709  11.036 -1.3253 -0.8301  0.6786
  488TIP3    H222880   2.755   0.829  11.088 -1.5427 -1.0822  0.9457
  489TIP3   OH222881   0.270   1.448   4.961 -0.1573 -0.0784  0.2797
  489TIP3    H122882   0.289   1.417   5.049  0.0443  0.6938  0.5119
  489TIP3    H222883   0.317   1.531   4.954  0.4680 -0.5079 -0.8208
  490TIP3   OH222884   2.417   5.342   4.056 -0.3055  0.0594 -0.3224
  490TIP3    H122885   2.398   5.392   3.977  1.2172 -0.4903 -1.0547
  490TIP3    H222886   2.509   5.361   4.075 -0.7678  0.5316  1.5813
  491TIP3   OH222887   1.023   0.645  16.568 -0.1552 -0.5808  0.8153
  491TIP3    H122888   1.014   0.667  16.475  1.1186 -2.0540  0.3164
  491TIP3    H222889   0.988   0.721  16.614 -4.7571 -1.5126 -0.8329
  492TIP3   OH222890   0.361   5.651   0.383 -0.2096  0.6876  0.0631
  492TIP3    H122891   0.415   5.696   0.318 -0.8023 -1.8167 -2.2427
  492TIP3    H222892   0.274   5.646   0.344 -0.1059 -2.6104  0.1427
  493TIP3   OH222893   0.936   4.371  13.798  0.1789 -0.0505 -0.5583
  493TIP3    H122894   0.949   4.282  13.764  0.1991  0.0253 -0.7497
  493TIP3    H222895   0.910   4.423  13.722  1.3948  0.3777 -0.6951
  494TIP3   OH222896   6.624   6.263   1.780 -0.0272  0.4646 -0.5935
  494TIP3    H122897   6.549   6.301   1.827  0.2510 -0.8936  0.9847
  494TIP3    H222898   6.649   6.331   1.718 -1.7569  1.4625 -0.2481
  495TIP3   OH222899   5.507   3.022   4.316  0.2173 -0.6843 -0.3757
  495TIP3    H122900   5.433   2.982   4.362 -0.9809  0.7166 -1.0296
  495TIP3    H222901   5.533   3.095   4.373 -0.6381  0.4493 -1.3995
  496TIP3   OH222902   0.259   6.406   3.246 -0.0030 -0.1769 -0.1338
  496TIP3    H122903   0.223   6.484   3.288 -1.5530 -0.0218 -1.6974
  496TIP3    H222904   0.297   6.439   3.165  3.1061 -0.4450  1.1408
  497TIP3   OH222905   5.492   0.526  13.076 -0.1832  0.1324  0.6134
  497TIP3    H122906   5.401   0.505  13.098  0.4690 -2.5836  0.8801
  497TIP3    H222907   5.488   0.551  12.983 -1.1750 -0.1564  0.5695
  498TIP3   OH222908   4.704   6.546   6.657  0.5797 -0.5868  0.2311
  498TIP3    H122909   4.691   6.638   6.633 -2.0016 -0.4074  2.0711
  498TIP3    H222910   4.781   6.547   6.714  1.1995  0.2695 -0.5976
  499TIP3   OH222911   1.041   0.788  14.608  0.0676  0.0815 -0.1284
  499TIP3    H122912   1.008   0.716  14.554 -1.3226  0.9980 -0.5275
  499TIP3    H222913   1.080   0.745  14.684  1.0455 -1.1708 -1.3164
  500TIP3   OH222914   2.567   3.720   5.378  0.0800  0.1512  0.6005
  500TIP3    H122915   2.587   3.789   5.442 -1.4259  1.1642 -0.0110
  500TIP3    H222916   2.493   3.673   5.416 -1.3650  1.2924 -0.8065
  501TIP3   OH222917   2.049   1.665  16.235  0.6884 -0.0196  0.0449
  501TIP3    H122918   2.044   1.760  16.250 -2.2049 -0.1398  0.1815
  501TIP3    H222919   1.989   1.628  16.299  1.2437 -1.8935 -0.5064
  502TIP3   OH222920   2.848   0.483   0.514  0.1133 -0.1439  0.0348
  502TIP3    H122921   2.833   0.577   0.512  0.5547  0.0075  2.2920
  502TIP3    H222922   2.922   0.470   0.455 -0.9850  0.7027 -1.5422
  503TIP3   OH222923   3.990   5.502  13.816  0.0756 -0.5584  0.4988
  503TIP3    H122924   3.975   5.592  13.846  0.6058  0.6066 -2.5089
  503TIP3    H222925   4.084   5.498  13.797  0.1360 -1.8991  1.0145
  504TIP3   OH222926   6.734   1.640   3.164 -0.2414  0.0300 -0.7745
  504TIP3    H122927   6.806   1.604   3.112 -0.4066 -1.3010 -0.1037
  504TIP3    H222928   6.655   1.611   3.119 -0.3855 -1.1925  0.2414
  505TIP3   OH222929   3.511   3.633  13.583 -0.4466  0.6801  0.3775
  505TIP3    H122930   3.569   3.557  13.591 -0.8971  0.1201 -1.3608
  505TIP3    H222931   3.514   3.675  13.668  0.1080 -1.0879  1.2549
  506TIP3   OH222932   2.523   2.484  14.908 -0.0821 -0.7921  0.2394
  506TIP3    H122933   2.527   2.498  15.002  0.5976  0.9370 -0.0216
  506TIP3    H222934   2.612   2.458  14.883 -0.2180 -1.0810  0.0522
  507TIP3   OH222935   0.472   0.498  14.714 -0.3907 -0.3479  0.1443
  507TIP3    H122936   0.551   0.532  14.756 -0.8294  0.5314  0.2730
  507TIP3    H222937   0.414   0.574  14.708 -1.9905 -1.3764  1.8361
  508TIP3   OH222938   4.693   2.251  13.876  0.3714 -0.3880 -0.0199
  508TIP3    H122939   4.660   2.340  13.864  2.1847  0.3990  0.7708
  508TIP3    H222940   4.622   2.205  13.922 -0.1631  0.9130  0.4645
  509TIP3   OH222941   5.171   5.941  12.293  0.6401 -0.7345 -0.2071
  509TIP3    H122942   5.127   5.866  12.333 -1.2001  0.4441  0.0121
  509TIP3    H222943   5.159   5.929  12.199 -1.4073  0.3285 -0.0918
  510TIP3   OH222944   4.415   6.449  13.453  0.5063 -0.5281 -0.3374
  510TIP3    H122945   4.328   6.428  13.419  0.8935 -1.7682 -0.5789
  510TIP3    H222946   4.431   6.538  13.422 -1.2053  0.2089  0.7861
  511TIP3   OH222947   4.826   4.884  16.160 -0.2204 -0.4101 -0.3418
  511TIP3    H122948   4.910   4.845  16.182 -0.9849 -1.4079  0.9045
  511TIP3    H222949   4.842   4.978  16.158  0.8319 -0.5675  0.2810
  512TIP3   OH222950   0.638   6.216   6.183 -0.3345 -0.2370  0.4009
  512TIP3    H122951   0.697   6.284   6.214 -1.4838  0.6390  0.6817
  512TIP3    H222952   0.616   6.165   6.261  0.4222 -0.8533  0.2144
  513TIP3   OH222953   3.600   2.619   3.345 -0.1114  0.3711 -0.0732
  513TIP3    H122954   3.686   2.633   3.306  0.5817 -1.9328  0.5200
  513TIP3    H222955   3.619   2.581   3.431 -1.7067 -1.4627 -0.4959
  514TIP3   OH222956   5.874   3.982   1.332  0.3061  0.1636  0.9358
  514TIP3    H122957   5.953   3.932   1.352  1.7131  1.9693  0.0242
  514TIP3    H222958   5.852   4.026   1.414  1.4023  1.2167  0.6701
  515TIP3   OH222959   5.123   1.644   1.428 -0.7049  0.3421 -0.0762
  515TIP3    H122960   5.068   1.588   1.483 -0.7566  0.5255  0.0603
  515TIP3    H222961   5.211   1.606   1.435 -0.6680  0.4973  0.3143
  516TIP3   OH222962   2.948   5.494  11.680 -0.3201 -0.5013 -0.0476
  516TIP3    H122963   2.927   5.484  11.587 -2.6651 -1.1570  0.5151
  516TIP3    H222964   2.984   5.582  11.687  0.4529 -0.6702 -1.6640
  517TIP3   OH222965   2.566   4.762   5.706 -0.1952  0.3293 -0.0596
  517TIP3    H122966   2.483   4.806   5.723  0.6798  1.7960  0.4159
  517TIP3    H222967   2.602   4.743   5.793 -0.7738 -1.7899 -0.2325
  518TIP3   OH222968   0.691   2.080  15.477  0.1402  0.2925 -0.4019
  518TIP3    H122969   0.602   2.068  15.445 -0.2269 -1.0956  1.0852
  518TIP3    H222970   0.746   2.031  15.416 -0.7473 -4.0449  2.1058
  519TIP3   OH222971   0.587   2.776   1.864 -0.0643 -0.1581  0.2274
  519TIP3    H122972   0.564   2.858   1.821  0.2619 -0.3714 -0.3527
  519TIP3    H222973   0.653   2.737   1.808  0.5681 -0.3102  1.0665
  520TIP3   OH222974   4.116   2.606  11.595  0.0710  0.9377 -0.0003
  520TIP3    H122975   4.203   2.565  11.595 -0.4735 -0.2250  0.1595
  520TIP3    H222976   4.134   2.700  11.599  1.3225  0.7002  0.1006
  521TIP3   OH222977   6.525   4.834  11.093  0.4843  0.3832  0.4952
  521TIP3    H122978   6.548   4.847  11.185  0.0684 -1.8931  0.9360
  521TIP3    H222979   6.601   4.866  11.045  1.4791 -0.1432  1.6854
  522TIP3   OH222980   5.971   5.871  13.573 -0.0848 -0.2882  0.6303
  522TIP3    H122981   5.903   5.811  13.543 -1.0150  1.7169 -1.4224
  522TIP3    H222982   6.036   5.871  13.503 -0.5182  1.7241  0.1805
  523TIP3   OH222983   4.467   0.830  16.919  0.4016 -0.2792 -0.3096
  523TIP3    H122984   4.458   0.865  16.830  1.6143  2.1740  0.5002
  523TIP3    H222985   4.378   0.803  16.943 -0.4464  1.5961 -1.2454
  524TIP3   OH222986   2.946   1.797   5.565 -0.0316  0.0055  0.3381
  524TIP3    H122987   2.937   1.889   5.539  2.7532  0.4109  0.6101
  524TIP3    H222988   2.967   1.801   5.658 -0.0466 -0.9251  0.3800
  525TIP3   OH222989   2.373   2.492   0.004 -0.6186 -0.0916 -0.2114
  525TIP3    H122990   2.288   2.452   0.023  0.1884 -1.8774 -0.3277
  525TIP3    H222991   2.437   2.427   0.032  0.6987  0.5799 -1.6130
  526TIP3   OH222992   5.123   5.448  12.866 -0.7080 -0.5595  0.2942
  526TIP3    H122993   5.042   5.441  12.918 -0.0107  0.1840  1.5162
  526TIP3    H222994   5.191   5.468  12.931  0.0420  1.2693 -1.0073
  527TIP3   OH222995   0.767   5.925  16.684 -0.3013 -0.2084  0.3980
  527TIP3    H122996   0.736   5.987  16.619 -0.8410 -0.7936  0.0904
  527TIP3    H222997   0.830   5.975  16.737 -0.1835  0.3838 -0.2938
  528TIP3   OH222998   0.287   6.270   3.505  0.5674  0.0785 -0.1701
  528TIP3    H122999   0.196   6.240   3.501 -0.1950  2.0237  1.6971
  528TIP3    H223000   0.298   6.324   3.427  0.0685 -0.0163 -0.3074
  529TIP3   OH223001   6.512   5.164  14.255 -0.3429 -1.0388  0.2771
  529TIP3    H123002   6.488   5.212  14.176 -0.8215 -0.8518  0.5289
  529TIP3    H223003   6.594   5.120  14.233 -0.3096 -0.7358 -0.2167
  530TIP3   OH223004   3.389   1.863   0.172  0.2564  0.3238  0.4801
  530TIP3    H123005   3.453   1.919   0.216  0.0832 -0.3327  1.5731
  530TIP3    H223006   3.442   1.808   0.114  0.7261 -0.4866  1.6734
  531TIP3   OH223007   2.364   6.633  14.322  0.3365 -0.0766  0.2825
  531TIP3    H123008   2.373   6.557  14.379  0.4526  0.8990  1.5930
  531TIP3    H223009   2.301   6.690  14.366  1.0128  1.0518 -0.1608
  532TIP3   OH223010   3.728   2.154   4.265  0.1073  0.0727 -0.4616
  532TIP3    H123011   3.663   2.136   4.197 -0.6540 -0.6978  0.4481
  532TIP3    H223012   3.811   2.162   4.218 -0.5970  0.7385 -1.6037
  533TIP3   OH223013   6.241   5.786  14.427  0.1457 -0.5166  0.2988
  533TIP3    H123014   6.204   5.748  14.507 -0.9314 -0.1398 -0.0043
  533TIP3    H223015   6.264   5.876  14.452  0.6500 -0.6814  0.4272
  534TIP3   OH223016   0.611   1.753   3.697 -0.1334 -0.1777 -0.1747
  534TIP3    H123017   0.677   1.779   3.632 -1.0586  0.4843 -0.8720
  534TIP3    H223018   0.527   1.778   3.657 -0.7260  0.1128  1.2179
  535TIP3   OH223019   2.061   4.179  17.189  0.2544  0.6391  0.1807
  535TIP3    H123020   2.009   4.125  17.130 -1.3549  1.6232  0.6588
  535TIP3    H223021   2.143   4.195  17.141 -1.2910  1.9933 -2.1068
  536TIP3   OH223022   3.458   1.999   0.528 -0.4521  0.3890 -0.6373
  536TIP3    H123023   3.406   2.072   0.564 -1.2616 -0.0799 -0.8425
  536TIP3    H223024   3.494   2.034   0.447  0.0127  0.9015 -0.2147
  537TIP3   OH223025   0.203   6.518  16.682  0.8208 -0.4062 -0.1667
  537TIP3    H123026   0.287   6.477  16.705  1.7168  1.4166 -0.0691
  537TIP3    H223027   0.228   6.595  16.631 -0.5226  2.4399  3.2349
  538TIP3   OH223028   4.301   2.865   5.759 -0.8237 -0.1466  0.3468
  538TIP3    H123029   4.300   2.788   5.817 -1.9741  0.2823  0.9259
  538TIP3    H223030   4.347   2.932   5.809 -1.1297 -0.0118  0.4480
  539TIP3   OH223031   5.182   6.204   2.338 -0.2246  0.3195 -0.5496
  539TIP3    H123032   5.157   6.139   2.403 -0.9622  0.3761 -0.7690
  539TIP3    H223033   5.268   6.234   2.366 -0.5582  0.3899  0.4369
  540TIP3   OH223034   6.193   4.559   4.667  0.0624  1.1854  0.4233
  540TIP3    H123035   6.108   4.529   4.699 -0.0457  2.2433  1.1408
  540TIP3    H223036   6.257   4.515   4.724 -0.0682  1.7427  1.0013
  541TIP3   OH223037   0.238   2.153  13.745  0.3097  0.2630  0.3043
  541TIP3    H123038   0.292   2.091  13.696  1.2094  2.6843 -1.9394
  541TIP3    H223039   0.300   2.198  13.803  0.3693  1.6385 -0.8046
  542TIP3   OH223040   4.022   5.205   3.220 -0.2631  0.5633  0.1502
  542TIP3    H123041   4.002   5.113   3.202  1.1200 -0.2852  2.6728
  542TIP3    H223042   4.048   5.240   3.136 -1.3648 -1.2137 -0.9719
  543TIP3   OH223043   1.858   0.644  12.089  0.3915 -0.0172 -0.2076
  543TIP3    H123044   1.858   0.739  12.092 -0.3551  0.0365 -1.4089
  543TIP3    H223045   1.944   0.619  12.124  0.9074  1.1302 -0.6137
  544TIP3   OH223046   3.985   2.843   0.563 -0.5947 -0.1102 -0.4732
  544TIP3    H123047   3.971   2.787   0.487 -1.3548  0.2991 -0.6442
  544TIP3    H223048   3.976   2.785   0.638 -1.9251 -0.1379 -0.6270
  545TIP3   OH223049   5.252   4.150  16.200 -0.2426 -0.2344 -0.6202
  545TIP3    H123050   5.321   4.153  16.134  0.0856  0.2678 -0.2617
  545TIP3    H223051   5.294   4.112  16.277  0.0756  1.4876  0.0952
  546TIP3   OH223052   5.870   0.925  14.192  0.2464 -0.3286 -0.2076
  546TIP3    H123053   5.787   0.952  14.234  0.4206 -1.2807  0.7855
  546TIP3    H223054   5.935   0.934  14.262  0.9512  0.2166 -0.9332
  547TIP3   OH223055   2.951   6.775  15.118 -0.2486  0.6259  0.0339
  547TIP3    H123056   2.992   6.860  15.104  0.7477  0.3607  1.2232
  547TIP3    H223057   2.857   6.793  15.118 -0.0455  1.6924  0.0981
  548TIP3   OH223058   0.197   6.449   1.236  0.5774 -0.1982 -0.0372
  548TIP3    H123059   0.164   6.532   1.270 -1.0358 -0.4852 -0.8635
  548TIP3    H223060   0.225   6.470   1.147  1.8527 -0.1515  0.3656
  549TIP3   OH223061   2.599   1.386   5.215  0.1678 -0.2644 -0.0020
  549TIP3    H123062   2.659   1.322   5.177  1.4717  0.3747  0.9232
  549TIP3    H223063   2.533   1.334   5.261 -0.7277 -1.0038 -2.0769
  550TIP3   OH223064   6.345   6.445  12.276 -0.1335  0.4724 -0.3429
  550TIP3    H123065   6.404   6.462  12.203 -0.3676  0.2312 -0.5903
  550TIP3    H223066   6.309   6.358  12.258  0.2851  0.1464  0.3917
  551TIP3   OH223067   3.981   6.723   2.260 -0.1070 -0.5485  0.3407
  551TIP3    H123068   3.955   6.753   2.347  1.9720  0.4538  0.6495
  551TIP3    H223069   3.898   6.702   2.216 -1.2178 -0.4000  2.3082
  552TIP3   OH223070   1.014   6.007   3.227  0.6617  0.0731 -0.2107
  552TIP3    H123071   0.948   5.955   3.180  0.6020 -0.0001 -0.0467
  552TIP3    H223072   1.098   5.978   3.190  0.7459 -1.3534  1.0499
  553TIP3   OH223073   5.043   0.758  11.801  0.4109 -0.4655  0.0950
  553TIP3    H123074   4.983   0.822  11.840 -0.7933 -1.7740  0.4455
  553TIP3    H223075   5.018   0.754  11.709  0.9066  0.0254 -0.0634
  554TIP3   OH223076   0.890   6.256   4.030 -0.0822  0.0222 -0.1101
  554TIP3    H123077   0.951   6.320   4.067 -0.5328 -0.2447  1.1140
  554TIP3    H223078   0.946   6.194   3.984  0.3980  1.0021 -0.8787
  555TIP3   OH223079   0.257   6.694   0.227  0.0229  0.0255 -1.0079
  555TIP3    H123080   0.315   6.716   0.155  0.9595 -3.1126 -1.2713
  555TIP3    H223081   0.224   6.607   0.206 -0.1980 -0.6690  2.0390
  556TIP3   OH223082   0.825   0.801  13.436 -0.1481 -0.2877  0.7567
  556TIP3    H123083   0.807   0.745  13.512  1.4503 -1.4352  0.3114
  556TIP3    H223084   0.849   0.886  13.474 -1.2001 -0.2929  1.4687
  557TIP3   OH223085   6.468   5.764   2.571 -0.3437 -0.0847 -0.5812
  557TIP3    H123086   6.505   5.841   2.527 -3.1958  2.0529  0.5896
  557TIP3    H223087   6.447   5.795   2.659 -1.9220 -2.0955 -0.2289
  558TIP3   OH223088   3.782   5.544   5.018  0.1437  0.1954 -0.1511
  558TIP3    H123089   3.734   5.606   4.963  1.3990 -0.6851 -2.3083
  558TIP3    H223090   3.789   5.465   4.964  1.0222 -0.8614  1.4683
  559TIP3   OH223091   0.253   4.586  14.173  0.4276 -0.6911 -0.1510
  559TIP3    H123092   0.286   4.605  14.261 -1.0726 -0.6303  0.4072
  559TIP3    H223093   0.312   4.517  14.141  2.0984  0.5480  0.1801
  560TIP3   OH223094   3.772   3.584   6.101 -0.0940 -0.1549  0.6126
  560TIP3    H123095   3.829   3.651   6.140 -1.0797  0.3526  1.1864
  560TIP3    H223096   3.689   3.629   6.086  0.2359 -0.3635 -2.0015
  561TIP3   OH223097   3.942   3.960  14.871 -0.2507 -0.2832  0.2875
  561TIP3    H123098   3.907   3.872  14.885  1.8950 -1.1590  0.4480
  561TIP3    H223099   3.906   3.987  14.787  0.3953 -2.0355 -0.5931
  562TIP3   OH223100   3.136   6.063   2.192 -0.1523 -0.3113 -0.1832
  562TIP3    H123101   3.151   6.152   2.161 -1.8490 -0.2097 -0.7212
  562TIP3    H223102   3.115   6.073   2.285 -0.8721 -0.0955 -0.3663
  563TIP3   OH223103   4.545   6.574  13.681  0.3653  0.2090 -0.2699
  563TIP3    H123104   4.592   6.549  13.602 -0.9113 -0.9349 -0.6821
  563TIP3    H223105   4.532   6.493  13.729 -0.8685  0.5581  0.0056
  564TIP3   OH223106   0.702   2.137  11.981 -0.1706  0.8342 -0.0926
  564TIP3    H123107   0.674   2.098  11.898  0.1737  1.2353 -0.4012
  564TIP3    H223108   0.748   2.067  12.026  0.7448  0.9730 -0.7934
  565TIP3   OH223109   3.818   1.199  15.874  0.1563  0.3386  0.1919
  565TIP3    H123110   3.879   1.148  15.820 -1.6131 -2.7007  0.9070
  565TIP3    H223111   3.753   1.135  15.903 -1.7037  2.8894  1.8950
  566TIP3   OH223112   3.339   6.219   2.800  0.4126  0.7055  0.7717
  566TIP3    H123113   3.298   6.187   2.880 -0.7499  1.8529  0.6581
  566TIP3    H223114   3.300   6.167   2.730 -1.4329  2.2900  0.5918
  567TIP3   OH223115   3.923   0.635  15.815  0.0086 -0.1766 -0.2440
  567TIP3    H123116   3.905   0.575  15.888  0.3793 -0.6188 -0.5172
  567TIP3    H223117   3.958   0.714  15.857 -0.0111 -0.3387  0.0778
  568TIP3   OH223118   3.396   2.674  14.135 -0.1695  0.5886  0.0986
  568TIP3    H123119   3.395   2.766  14.112  0.3351  1.9410  4.8489
  568TIP3    H223120   3.459   2.669  14.208 -0.8969 -3.3134  0.5572
  569TIP3   OH223121   4.290   5.993   1.821  0.0994  0.0919  0.2977
  569TIP3    H123122   4.342   6.066   1.787  0.0638  0.3833  0.8561
  569TIP3    H223123   4.334   5.968   1.903 -1.6654  1.5345  1.7359
  570TIP3   OH223124   0.193   3.484   4.781 -0.4870  0.3131  0.3477
  570TIP3    H123125   0.134   3.519   4.848 -2.1000 -3.1027  0.8012
  570TIP3    H223126   0.152   3.403   4.752  2.6385 -0.7712 -1.3258
  571TIP3   OH223127   0.965   6.164  11.084  0.4161 -0.1513  0.9767
  571TIP3    H123128   1.051   6.198  11.110  0.9771 -1.6623  1.1626
  571TIP3    H223129   0.954   6.084  11.136  0.1234 -1.4738 -1.0510
  572TIP3   OH223130   2.532   0.238  16.423  0.1842 -0.0115  0.0938
  572TIP3    H123131   2.439   0.247  16.442  0.2950 -0.8615  1.0565
  572TIP3    H223132   2.576   0.257  16.506  0.7669 -1.7226  0.2023
  573TIP3   OH223133   2.563   4.733  13.634  0.9807 -0.2754 -0.3361
  573TIP3    H123134   2.584   4.690  13.717  0.6585 -1.0894 -0.6673
  573TIP3    H223135   2.497   4.676  13.594  1.0071  0.2024 -1.0703
  574TIP3   OH223136   4.634   0.400  12.511  0.2466  0.5994  0.0849
  574TIP3    H123137   4.665   0.339  12.444  0.3508 -0.3100  0.9538
  574TIP3    H223138   4.602   0.475  12.461  0.2101 -0.1141 -0.9969
  575TIP3   OH223139   4.749   3.774   3.396 -0.2381 -0.0488 -0.2042
  575TIP3    H123140   4.768   3.780   3.490 -2.8236 -1.6063  0.4794
  575TIP3    H223141   4.678   3.837   3.382 -1.5408 -1.5590 -0.5805
  576TIP3   OH223142   1.846   5.028  15.464 -0.0332 -0.5177 -0.1813
  576TIP3    H123143   1.880   5.010  15.551  0.3177 -2.7133 -0.7379
  576TIP3    H223144   1.922   5.057  15.414 -0.5639  2.5569  0.6644
  577TIP3   OH223145   3.818   0.404  11.152  0.0288 -0.4700  0.1621
  577TIP3    H123146   3.755   0.374  11.218  0.0583  1.2342  0.9993
  577TIP3    H223147   3.818   0.335  11.086 -4.7284  0.6443 -1.2256
  578TIP3   OH223148   0.568   3.264   2.247 -0.0838 -0.1362  0.5276
  578TIP3    H123149   0.569   3.174   2.280  0.5356 -0.2891  0.1118
  578TIP3    H223150   0.488   3.270   2.195  0.3422 -0.7384 -0.2133
  579TIP3   OH223151   5.161   1.830  16.744  0.3414 -0.2859  0.1960
  579TIP3    H123152   5.256   1.838  16.740  0.5527 -2.4957  0.2293
  579TIP3    H223153   5.145   1.740  16.771 -1.7549  0.6346  2.2380
  580TIP3   OH223154   2.610   2.036  14.387  0.8641  0.2215  0.2762
  580TIP3    H123155   2.548   2.054  14.457 -1.2044  0.4971 -1.5950
  580TIP3    H223156   2.666   2.114  14.384  0.9582  0.2171  1.5797
  581TIP3   OH223157   2.327   1.917   3.381 -0.0118 -0.5796  0.5875
  581TIP3    H123158   2.342   1.881   3.294  6.2752 -0.7779  1.5364
  581TIP3    H223159   2.333   1.841   3.439  0.2911  0.1845  1.5650
  582TIP3   OH223160   0.359   3.008  10.693  0.7619 -0.3925  0.1563
  582TIP3    H123161   0.299   3.068  10.737  0.2987 -0.5761 -0.2193
  582TIP3    H223162   0.377   3.049  10.608  1.6828 -0.0197  0.5179
  583TIP3   OH223163   2.020   2.234  15.660 -0.5831  0.9671 -0.1221
  583TIP3    H123164   1.925   2.228  15.675 -0.4721  0.1462  0.2496
  583TIP3    H223165   2.029   2.241  15.565 -0.8149 -3.0489 -0.5177
  584TIP3   OH223166   1.206   1.517   3.531 -0.3836  0.2550 -0.0721
  584TIP3    H123167   1.240   1.498   3.443  0.6022  1.4176  0.0444
  584TIP3    H223168   1.273   1.571   3.571 -0.4770 -0.9025  1.6943
  585TIP3   OH223169   3.699   2.717  13.785 -0.2101  0.2083  0.4123
  585TIP3    H123170   3.758   2.683  13.852  1.9364  2.1514 -0.4539
  585TIP3    H223171   3.686   2.644  13.725  0.8387 -0.4117  0.9208
  586TIP3   OH223172   5.274   2.414  11.560  0.0765  0.3106  0.1991
  586TIP3    H123173   5.202   2.454  11.510 -0.7982  1.4971  2.3551
  586TIP3    H223174   5.252   2.321  11.561 -0.4594  0.4119 -0.7232
  587TIP3   OH223175   6.328   1.751   3.006 -0.9338 -0.0683 -0.2340
  587TIP3    H123176   6.274   1.724   2.932 -1.1286  0.7863 -0.4180
  587TIP3    H223177   6.277   1.820   3.049  0.6448  1.8217 -1.3101
  588TIP3   OH223178   2.956   5.460   3.538  0.0219 -0.2169 -0.1087
  588TIP3    H123179   3.010   5.538   3.524  0.1134 -0.0261  1.2553
  588TIP3    H223180   2.909   5.478   3.619 -0.8565 -1.0892 -0.4072
  589TIP3   OH223181   1.008   4.356   3.560  0.2489 -0.0560  0.1613
  589TIP3    H123182   1.052   4.368   3.476  0.5645  1.7312  0.5602
  589TIP3    H223183   1.079   4.351   3.623  0.0194 -1.5986  0.3120
  590TIP3   OH223184   2.137   2.763  11.219  0.0170 -0.0634 -0.2251
  590TIP3    H123185   2.154   2.672  11.196  3.7434  0.3725  0.5638
  590TIP3    H223186   2.219   2.808  11.203 -1.2021  2.8020  1.2439
  591TIP3   OH223187   0.570   5.010   3.300 -0.3347  0.3847 -0.0255
  591TIP3    H123188   0.513   4.950   3.251  1.3541 -1.3003 -0.0110
  591TIP3    H223189   0.633   5.042   3.235 -1.9202  3.1201 -0.2934
  592TIP3   OH223190   3.220   1.163   6.111  0.1346  0.2256 -0.3096
  592TIP3    H123191   3.194   1.254   6.104 -2.5163 -0.6303 -2.3134
  592TIP3    H223192   3.223   1.131   6.021 -0.7884 -2.1296  0.4462
  593TIP3   OH223193   2.303   0.315   4.402  0.0364  0.3051 -0.2064
  593TIP3    H123194   2.310   0.409   4.417  2.1188  0.0488  0.5887
  593TIP3    H223195   2.381   0.293   4.351 -0.0858 -1.1031  0.1814
  594TIP3   OH223196   1.338   5.015   1.612  0.2595  0.0841 -1.0239
  594TIP3    H123197   1.415   5.047   1.565 -0.4959  2.9495 -0.3962
  594TIP3    H223198   1.299   5.093   1.651 -2.2995 -1.4727 -0.3196
  595TIP3   OH223199   1.918   1.645   0.197 -0.4626  0.1328 -0.5397
  595TIP3    H123200   1.907   1.689   0.281  0.2776  0.9052 -0.8397
  595TIP3    H223201   1.836   1.660   0.151  0.3863  2.6773 -1.3035
  596TIP3   OH223202   6.184   0.413   5.382 -0.2736  0.4218  0.4048
  596TIP3    H123203   6.215   0.388   5.469  0.5941  1.8241  0.5112
  596TIP3    H223204   6.254   0.467   5.346 -0.9711  0.5013 -0.8562
  597TIP3   OH223205   0.533   0.435  17.126 -0.1229 -0.4105  0.5349
  597TIP3    H123206   0.505   0.486  17.050 -1.5016 -1.1913  0.5074
  597TIP3    H223207   0.574   0.357  17.088  2.1213  0.6861  0.5738
  598TIP3   OH223208   6.523   6.412   1.109 -0.4549  0.3261  0.5676
  598TIP3    H123209   6.535   6.365   1.192 -0.5992 -0.2412  0.2724
  598TIP3    H223210   6.611   6.432   1.080 -0.3428 -0.6683  0.1916
  599TIP3   OH223211   0.124   3.379   2.854 -0.0027 -0.2070 -1.0218
  599TIP3    H123212   0.109   3.345   2.943 -1.0540  2.0375 -0.2946
  599TIP3    H223213   0.111   3.304   2.797 -1.1395 -1.2903  0.6169
  600TIP3   OH223214   4.944   5.795   4.272 -0.0638  0.0640 -0.0334
  600TIP3    H123215   4.937   5.707   4.307  0.0200  0.0969  0.0652
  600TIP3    H223216   4.912   5.788   4.182  0.9098 -0.2749 -0.3575
  601TIP3   OH223217   5.285   3.867  16.468 -0.0102  0.2471  0.0691
  601TIP3    H123218   5.349   3.852  16.399 -0.0649  3.4685 -0.7475
  601TIP3    H223219   5.336   3.875  16.548  0.3801  0.1409 -0.1712
  602TIP3   OH223220   4.225   2.371  15.217 -0.0675  0.3462 -0.3269
  602TIP3    H123221   4.152   2.308  15.213  0.6516 -0.4539 -1.2282
  602TIP3    H223222   4.234   2.391  15.310 -0.1203 -1.1173  0.0092
  603TIP3   OH223223   6.230   3.417   3.523 -0.0915  0.0182  0.1198
  603TIP3    H123224   6.188   3.362   3.589  1.5747 -0.7787  0.5437
  603TIP3    H223225   6.283   3.356   3.471  1.7409  1.1979  0.5556
  604TIP3   OH223226   2.539   4.940   1.683 -0.5300 -0.2535  0.0513
  604TIP3    H123227   2.552   4.845   1.684  0.3622 -0.1350 -0.2106
  604TIP3    H223228   2.626   4.976   1.666 -0.5344  0.6797  1.8654
  605TIP3   OH223229   6.057   3.552   0.275 -0.2430 -0.3171  0.1901
  605TIP3    H123230   6.100   3.485   0.328  0.2104 -1.1048 -1.1648
  605TIP3    H223231   6.113   3.630   0.286 -1.4061  0.2183  2.6977
  606TIP3   OH223232   2.292   2.669   4.165  0.2383  0.0849 -0.0411
  606TIP3    H123233   2.297   2.658   4.259 -1.7419  0.3666  0.1165
  606TIP3    H223234   2.261   2.759   4.153  0.2727 -0.0190 -0.9401
  607TIP3   OH223235   5.166   2.516   5.845 -0.1386  0.4775 -0.8879
  607TIP3    H123236   5.193   2.449   5.909  1.4252 -0.6076 -2.6471
  607TIP3    H223237   5.187   2.599   5.888 -0.4628 -0.1861  0.6032
  608TIP3   OH223238   0.664   4.528  11.355 -0.0920 -0.0165 -0.0613
  608TIP3    H123239   0.635   4.613  11.322 -0.4640 -0.1952 -0.2037
  608TIP3    H223240   0.584   4.485  11.384  0.1800 -0.0487  0.6534
  609TIP3   OH223241   5.684   5.975  11.438  0.2687  0.3918  0.5409
  609TIP3    H123242   5.733   5.921  11.377  1.1009  0.8056  0.8327
  609TIP3    H223243   5.682   6.062  11.396 -1.2718  0.0894 -0.0454
  610TIP3   OH223244   6.284   1.697  11.156  0.1521 -1.1502  0.1941
  610TIP3    H123245   6.316   1.609  11.175  3.7263 -0.1568 -0.8729
  610TIP3    H223246   6.363   1.749  11.143 -1.8685  2.3958  1.4580
  611TIP3   OH223247   6.337   0.482   4.536 -0.8012  0.2493 -0.4816
  611TIP3    H123248   6.347   0.523   4.622 -0.5848  2.4930 -1.5425
  611TIP3    H223249   6.253   0.514   4.503 -1.6284 -1.8517 -0.4549
  612TIP3   OH223250   1.564   1.849   1.042 -0.0564  0.1843 -0.2995
  612TIP3    H123251   1.575   1.836   1.136  0.1563  1.6647 -0.1080
  612TIP3    H223252   1.497   1.918   1.035  0.0656  0.2171 -1.2243
  613TIP3   OH223253   6.642   0.984  17.001 -0.1720 -0.6370  0.4153
  613TIP3    H123254   6.728   0.984  17.043  0.0557  1.8097 -0.0214
  613TIP3    H223255   6.661   0.985  16.907 -0.7034 -1.3324  0.2886
  614TIP3   OH223256   0.790   3.150  12.213 -0.6971  0.1445 -0.0064
  614TIP3    H123257   0.730   3.214  12.251 -0.7227 -0.4295  0.9549
  614TIP3    H223258   0.865   3.150  12.272 -0.6371 -0.6050 -0.0734
  615TIP3   OH223259   6.762   5.195   0.940  0.5088 -0.7955  0.1413
  615TIP3    H123260   6.795   5.244   0.864 -0.6018 -1.2657 -0.6617
  615TIP3    H223261   6.674   5.168   0.914  0.3259 -1.4327  1.3994
  616TIP3   OH223262   5.805   4.601  17.067  0.0840  0.4587  0.2719
  616TIP3    H123263   5.749   4.547  17.012 -0.7786  0.2585  1.3165
  616TIP3    H223264   5.743   4.652  17.120  0.8879  0.6835  1.0043
  617TIP3   OH223265   5.475   1.928  13.191 -0.1960  0.7433  0.1033
  617TIP3    H123266   5.544   1.929  13.124  0.5412 -0.4543  0.8409
  617TIP3    H223267   5.394   1.937  13.141  0.1563 -2.8930 -1.2353
  618TIP3   OH223268   0.421   6.145   4.683 -1.0484 -0.6565  0.4344
  618TIP3    H123269   0.387   6.120   4.769 -0.7000  1.0658  1.0808
  618TIP3    H223270   0.367   6.219   4.655 -3.0488 -2.9851 -2.1453
  619TIP3   OH223271   6.379   6.743   4.652 -0.1012 -0.6212 -0.1277
  619TIP3    H123272   6.337   6.810   4.598 -0.2609  0.1513  0.9465
  619TIP3    H223273   6.469   6.737   4.618 -0.0015  0.3453 -0.0288
  620TIP3   OH223274   0.912   2.869   4.692  0.2813  0.7414 -0.0776
  620TIP3    H123275   0.891   2.913   4.610  1.2565  1.6589  0.1548
  620TIP3    H223276   0.934   2.779   4.666 -0.8187  0.6309 -0.6530
  621TIP3   OH223277   4.287   1.738  11.967  0.4659 -0.4934 -0.1102
  621TIP3    H123278   4.344   1.759  11.893  0.8046 -1.2331 -0.0680
  621TIP3    H223279   4.346   1.698  12.031  0.2993  0.7109  0.8201
  622TIP3   OH223280   2.524   0.627  14.244  0.0530 -0.0364 -0.1770
  622TIP3    H123281   2.542   0.639  14.151  1.1425  2.3511  0.3127
  622TIP3    H223282   2.606   0.592  14.280  0.6744  1.9742  0.4095
  623TIP3   OH223283   2.841   2.996  12.316  0.6959  0.1422  0.1199
  623TIP3    H123284   2.836   2.925  12.380  2.6976 -0.0662  0.0685
  623TIP3    H223285   2.750   3.011  12.291 -0.1105 -0.0344  2.7151
  624TIP3   OH223286   6.175   5.212   4.824  0.0859  0.3013  0.6266
  624TIP3    H123287   6.240   5.216   4.754  0.5028  1.1905  1.0589
  624TIP3    H223288   6.128   5.295   4.818 -0.7705 -0.1777  0.5564
  625TIP3   OH223289   2.852   3.193   0.369 -0.1190 -0.3265  0.2051
  625TIP3    H123290   2.928   3.134   0.370 -0.2574 -0.5066  0.1805
  625TIP3    H223291   2.884   3.274   0.408  0.1504 -0.3247 -0.0119
  626TIP3   OH223292   0.868   6.328   2.168 -0.1934  0.6602 -0.5773
  626TIP3    H123293   0.837   6.415   2.142 -0.4408  0.4505 -0.9982
  626TIP3    H223294   0.811   6.267   2.120 -0.7611  0.2547  0.5922
  627TIP3   OH223295   6.656   3.238  14.555  0.2019 -0.0907  0.1434
  627TIP3    H123296   6.725   3.220  14.491  1.2093 -0.3679  1.2827
  627TIP3    H223297   6.657   3.333  14.565  0.1363 -0.0586 -0.1447
  628TIP3   OH223298   4.896   1.148   0.748 -0.5570  0.7873 -0.3915
  628TIP3    H123299   4.941   1.142   0.664  2.3762 -0.5725  1.1843
  628TIP3    H223300   4.946   1.213   0.798 -0.8655 -0.0463  1.0564
  629TIP3   OH223301   3.000   0.774   1.710 -0.0092  0.1426 -0.1227
  629TIP3    H123302   2.984   0.681   1.726 -0.4233  0.3676  0.8145
  629TIP3    H223303   3.051   0.776   1.629  1.6297 -1.0037  0.8541
  630TIP3   OH223304   2.942   0.859  14.671  0.5186  0.0151 -0.1155
  630TIP3    H123305   3.004   0.913  14.622  0.4977  0.8106  0.6934
  630TIP3    H223306   2.910   0.795  14.608  2.1592 -0.4160 -0.5485
  631TIP3   OH223307   4.201   5.808  13.745 -0.5555 -0.6247  0.0417
  631TIP3    H123308   4.176   5.716  13.737  1.2675 -1.2292  0.9874
  631TIP3    H223309   4.175   5.833  13.834  2.5397 -1.4238  1.2478
  632TIP3   OH223310   2.427   1.172   4.135  0.1645 -0.1333  0.0758
  632TIP3    H123311   2.449   1.215   4.218  1.2621 -0.8498  0.1713
  632TIP3    H223312   2.428   1.242   4.071  2.9565 -0.1151  0.0506
  633TIP3   OH223313   1.102   5.368   2.232 -0.2282 -0.0489 -0.3923
  633TIP3    H123314   1.043   5.295   2.219  0.0857 -0.3304 -0.2402
  633TIP3    H223315   1.135   5.390   2.145 -1.1684  0.6265 -0.5882
  634TIP3   OH223316   1.784   4.662  15.414  0.2110  0.1757  0.3541
  634TIP3    H123317   1.783   4.570  15.389  0.3318  0.5018 -0.8549
  634TIP3    H223318   1.761   4.710  15.334  1.5334  1.2700  0.5946
  635TIP3   OH223319   5.048   3.354  16.384  0.3342  0.0395  0.2539
  635TIP3    H123320   5.078   3.440  16.415  1.2082 -0.2333  0.1730
  635TIP3    H223321   5.106   3.292  16.428  0.6353 -0.4307 -0.7978
  636TIP3   OH223322   3.258   2.381  13.589 -0.0016 -0.3017 -0.4176
  636TIP3    H123323   3.275   2.451  13.652  1.2117  0.4529 -1.5613
  636TIP3    H223324   3.291   2.302  13.632  1.8020  0.3711 -0.5165
  637TIP3   OH223325   5.413   3.882   4.315 -0.5735  0.0103 -0.8539
  637TIP3    H123326   5.346   3.882   4.383 -1.2166  0.2135 -1.4894
  637TIP3    H223327   5.496   3.881   4.363 -1.0306 -1.8352 -0.0620
  638TIP3   OH223328   2.587   0.560   0.274 -0.0405  0.2647  0.4379
  638TIP3    H123329   2.533   0.600   0.205  0.6068  0.8776  0.2771
  638TIP3    H223330   2.677   0.587   0.253  0.0811  1.1710  1.9801
  639TIP3   OH223331   0.832   3.966  13.292 -0.4636  0.2000 -0.2773
  639TIP3    H123332   0.812   3.940  13.382 -1.7766 -0.2518 -0.6875
  639TIP3    H223333   0.923   3.994  13.295 -0.9789  1.7653  1.5243
  640TIP3   OH223334   1.534   6.574   5.442 -0.1859 -0.2116 -0.1277
  640TIP3    H123335   1.509   6.594   5.532 -2.6156 -1.6192 -0.4521
  640TIP3    H223336   1.621   6.535   5.449 -0.6595 -0.9514  1.6903
  641TIP3   OH223337   6.188   5.350  15.201  0.0667 -0.3786 -0.5187
  641TIP3    H123338   6.172   5.370  15.109  2.1455  0.9400 -0.6228
  641TIP3    H223339   6.212   5.257  15.201 -1.5118 -0.8078 -1.0769
  642TIP3   OH223340   1.457   4.317   1.220  0.2623  0.0446  0.1878
  642TIP3    H123341   1.490   4.271   1.297  0.3000  0.8728  0.6762
  642TIP3    H223342   1.535   4.357   1.181 -0.0140  1.2424  0.8279
  643TIP3   OH223343   2.660   3.106  16.400  0.0058 -0.2400  0.1237
  643TIP3    H123344   2.663   3.063  16.315 -1.5506 -1.7733  0.8068
  643TIP3    H223345   2.734   3.167  16.399  1.6712 -2.1965 -1.2915
  644TIP3   OH223346   5.933   3.041  17.160  0.3573  0.0480 -0.5168
  644TIP3    H123347   5.889   3.088  17.231  1.4286  0.9892 -0.4668
  644TIP3    H223348   5.996   3.103  17.125  1.1746 -1.0555 -1.0482
  645TIP3   OH223349   4.076   3.915   2.495  0.1292 -0.1411  0.5141
  645TIP3    H123350   3.989   3.893   2.528 -0.4864  1.3756 -0.0162
  645TIP3    H223351   4.135   3.850   2.533 -1.5072 -2.3404 -0.6184
  646TIP3   OH223352   4.587   0.316  15.265  0.0033  0.2285  0.4495
  646TIP3    H123353   4.565   0.380  15.197 -0.9166 -0.5285  0.0119
  646TIP3    H223354   4.631   0.245  15.218  0.5247  0.2956  0.8421
  647TIP3   OH223355   2.198   2.620  13.903 -0.5702 -0.3458 -0.3542
  647TIP3    H123356   2.106   2.644  13.897 -0.4284  0.0365 -1.1715
  647TIP3    H223357   2.205   2.569  13.983 -1.1980  0.9655  0.5545
  648TIP3   OH223358   3.885   2.392  16.414  0.1301  0.1477  0.4223
  648TIP3    H123359   3.900   2.368  16.505 -0.8742 -0.9978  0.2992
  648TIP3    H223360   3.950   2.341  16.365 -0.4452 -0.5477  0.3644
  649TIP3   OH223361   5.860   4.422   4.019  0.3428  0.3939  0.4351
  649TIP3    H123362   5.786   4.429   3.960  1.1652 -0.2906 -0.6888
  649TIP3    H223363   5.822   4.399   4.104 -0.6536 -0.8265 -0.3391
  650TIP3   OH223364   2.148   3.937  16.695  0.5231 -0.5005 -0.4830
  650TIP3    H123365   2.058   3.907  16.701  0.0996  0.7785 -0.3470
  650TIP3    H223366   2.142   4.022  16.651  1.7444 -0.8350 -1.3266
  651TIP3   OH223367   4.084   1.343   1.355 -0.5400  0.5471 -0.2862
  651TIP3    H123368   4.161   1.363   1.300 -1.4926 -2.1080 -2.7345
  651TIP3    H223369   4.024   1.415   1.339 -1.4254 -0.8912 -4.1063
  652TIP3   OH223370   3.735   2.372  11.882 -0.4408  0.9487 -0.5119
  652TIP3    H123371   3.772   2.380  11.794  0.6390  1.3136 -0.0362
  652TIP3    H223372   3.659   2.430  11.882 -0.8030  0.4784 -1.3895
  653TIP3   OH223373   0.501   4.986  11.323 -0.9137 -0.5832  0.1613
  653TIP3    H123374   0.516   5.053  11.390 -1.7751 -0.3913  0.1653
  653TIP3    H223375   0.572   5.000  11.260 -0.0763 -0.7878  1.0430
  654TIP3   OH223376   3.227   5.679  13.688  0.0259  0.0893  0.0901
  654TIP3    H123377   3.223   5.636  13.774 -0.8199  0.0720  0.0427
  654TIP3    H223378   3.146   5.729  13.682  0.6749  1.1145 -0.1689
  655TIP3   OH223379   3.453   3.655  14.600 -0.1625 -0.4129 -0.0620
  655TIP3    H123380   3.378   3.658  14.541  0.2681  0.8326 -0.5695
  655TIP3    H223381   3.524   3.695  14.549  1.2105 -2.8383 -0.1206
  656TIP3   OH223382   5.527   3.359   0.286 -0.0155 -0.2099  0.1052
  656TIP3    H123383   5.450   3.410   0.261 -0.8581 -0.9014  1.2414
  656TIP3    H223384   5.493   3.272   0.306  0.9557 -0.3238  1.3027
  657TIP3   OH223385   4.914   4.139   1.711  0.1631 -0.4940  0.3061
  657TIP3    H123386   4.984   4.139   1.645  0.2463 -0.9288  0.3852
  657TIP3    H223387   4.863   4.060   1.691 -0.0998 -0.3647  0.4632
  658TIP3   OH223388   0.814   4.406   4.498  0.2731  0.0423  0.2669
  658TIP3    H123389   0.753   4.393   4.425 -0.1752  1.4195  0.3896
  658TIP3    H223390   0.889   4.351   4.476 -0.1407 -0.0734 -0.8951
  659TIP3   OH223391   6.112   4.243  12.634 -0.0199 -0.4068 -0.2085
  659TIP3    H123392   6.058   4.192  12.694  0.3360 -0.7349 -0.1675
  659TIP3    H223393   6.051   4.272  12.566 -0.1778 -1.0896 -0.3637
  660TIP3   OH223394   0.868   2.420   2.388  0.1453  0.1931 -0.1702
  660TIP3    H123395   0.786   2.410   2.436  1.3423  1.0398  2.0782
  660TIP3    H223396   0.932   2.371   2.439  1.3998  0.9251 -1.0268
  661TIP3   OH223397   1.904   5.824   1.587 -0.5042  0.1846 -0.1902
  661TIP3    H123398   1.840   5.874   1.638 -1.7638  0.5367 -2.0590
  661TIP3    H223399   1.862   5.739   1.573 -0.5981  0.4229 -1.4429
  662TIP3   OH223400   0.900   1.461  13.295 -0.1041  0.3539 -0.3673
  662TIP3    H123401   0.993   1.479  13.299  0.0008 -0.2293 -0.0711
  662TIP3    H223402   0.862   1.513  13.365  0.0901  0.0547 -0.0393
  663TIP3   OH223403   5.224   5.143  13.234  0.1757  0.0786  0.3216
  663TIP3    H123404   5.131   5.158  13.215  0.5322  1.2723 -0.6080
  663TIP3    H223405   5.259   5.103  13.155  0.5829  0.2578  0.4044
  664TIP3   OH223406   5.327   2.704   2.905  0.3784 -0.0878  0.2455
  664TIP3    H123407   5.245   2.676   2.864 -0.2759 -0.0383  1.4974
  664TIP3    H223408   5.358   2.627   2.953  0.2001  0.3739  1.1188
  665TIP3   OH223409   3.053   3.676  16.669 -0.2410 -0.0019 -1.0804
  665TIP3    H123410   3.037   3.586  16.639 -2.3936 -0.9119  2.4768
  665TIP3    H223411   2.971   3.722  16.653 -0.5094  0.2159  0.8073
  666TIP3   OH223412   4.330   3.072  11.792 -0.5088  0.6366  0.3942
  666TIP3    H123413   4.392   3.062  11.720 -1.5768 -0.0491 -0.4486
  666TIP3    H223414   4.385   3.078  11.871  0.5631 -2.4742 -0.0473
  667TIP3   OH223415   2.870   2.658  16.665  0.5248 -0.6455  0.7472
  667TIP3    H123416   2.857   2.634  16.756 -1.6402  0.1256  0.6647
  667TIP3    H223417   2.788   2.700  16.638  1.8906  1.1051 -0.9251
  668TIP3   OH223418   6.556   2.579  16.479  0.4130  0.0359 -0.0720
  668TIP3    H123419   6.486   2.593  16.544 -0.4183  1.2971 -1.2009
  668TIP3    H223420   6.637   2.593  16.528 -0.2067  0.9601  0.7215
  669TIP3   OH223421   5.736   6.108   1.790  0.0534  0.0353 -0.0139
  669TIP3    H123422   5.718   6.125   1.697  0.8763 -0.2282 -0.2188
  669TIP3    H223423   5.653   6.074   1.824 -0.4771  0.8458 -0.4793
  670TIP3   OH223424   2.029   0.742   3.525  0.0412 -0.0266 -0.1423
  670TIP3    H123425   2.038   0.825   3.478  0.5986 -0.0364 -0.0600
  670TIP3    H223426   1.974   0.688   3.468  0.1324  0.2083 -0.4538
  671TIP3   OH223427   5.379   3.525  16.373 -0.1537 -0.5055 -0.2246
  671TIP3    H123428   5.389   3.610  16.332 -0.4352 -0.5428 -0.3723
  671TIP3    H223429   5.357   3.544  16.464 -1.0270 -0.4142 -0.4497
  672TIP3   OH223430   1.321   5.696   5.678  0.3105  0.2132 -0.3977
  672TIP3    H123431   1.317   5.613   5.727  1.1322 -0.1091 -0.8686
  672TIP3    H223432   1.366   5.756   5.738  1.1299 -0.1232 -0.6752
  673TIP3   OH223433   3.399   0.806  13.191 -0.2758 -0.0931  0.2226
  673TIP3    H123434   3.396   0.884  13.135  0.8599  0.1019  0.4158
  673TIP3    H223435   3.491   0.780  13.191 -0.5921 -1.2503  0.4276
  674TIP3   OH223436   0.933   2.089   4.977  0.1873 -0.3734 -0.2295
  674TIP3    H123437   1.006   2.109   5.036 -0.3297  0.3445  0.1649
  674TIP3    H223438   0.887   2.172   4.966  0.2834 -0.4870 -1.6524
  675TIP3   OH223439   3.507   5.803   3.104  0.2161 -0.1204 -0.1561
  675TIP3    H123440   3.601   5.805   3.089  0.1809 -0.6218 -0.4484
  675TIP3    H223441   3.491   5.872   3.169  1.0428 -1.4772  1.5073
  676TIP3   OH223442   5.994   5.854  13.870  0.1531 -0.1405 -0.3898
  676TIP3    H123443   5.970   5.853  13.777 -1.5445  0.5041  0.0234
  676TIP3    H223444   6.011   5.762  13.891  1.1805 -0.2132 -1.4811
  677TIP3   OH223445   4.892   0.479  13.439  0.0330  0.2542  0.3254
  677TIP3    H123446   4.847   0.522  13.512  0.7506 -0.3478  1.1209
  677TIP3    H223447   4.949   0.547  13.404  0.3946  0.2664  0.9277
  678TIP3   OH223448   1.372   2.867  14.267  0.2049 -0.0645  0.2701
  678TIP3    H123449   1.396   2.945  14.316  0.8171 -1.0588  1.5708
  678TIP3    H223450   1.368   2.797  14.333 -1.3946 -0.9224 -0.6908
  679TIP3   OH223451   1.516   5.202  12.059 -0.2228  0.7582 -0.1875
  679TIP3    H123452   1.602   5.178  12.093  0.6322  1.6038 -1.6694
  679TIP3    H223453   1.517   5.171  11.968 -1.9668 -0.3585  0.1391
  680TIP3   OH223454   1.286   3.141   1.699 -0.1357  0.3496  0.4797
  680TIP3    H123455   1.249   3.229   1.695 -1.1020 -0.1252 -1.3465
  680TIP3    H223456   1.348   3.138   1.626 -0.9282 -0.8548 -0.1488
  681TIP3   OH223457   6.279   3.249  16.442 -0.6681 -0.3028 -0.7642
  681TIP3    H123458   6.245   3.188  16.507  0.1096 -1.0734 -1.0676
  681TIP3    H223459   6.242   3.219  16.359 -1.6085  0.6385 -0.6926
  682TIP3   OH223460   3.707   0.186  15.035  0.1057 -0.2777 -0.3828
  682TIP3    H123461   3.741   0.226  14.955 -0.5835  0.1485 -0.4687
  682TIP3    H223462   3.720   0.252  15.103 -2.3053  0.6678 -0.7981
  683TIP3   OH223463   5.759   1.974  17.081  0.4019 -0.5497 -0.0965
  683TIP3    H123464   5.799   1.889  17.061  0.0652 -0.8051  0.3098
  683TIP3    H223465   5.667   1.963  17.058  0.2874 -0.4056  0.3036
  684TIP3   OH223466   3.444   3.127   0.801  0.2144  0.4409 -0.0499
  684TIP3    H123467   3.432   3.137   0.707  0.4703 -1.8991 -0.3601
  684TIP3    H223468   3.395   3.200   0.840  0.1146  1.4142 -1.9817
  685TIP3   OH223469   5.832   4.636  13.831 -0.7680  0.4345 -0.0344
  685TIP3    H123470   5.860   4.665  13.744  0.7025 -0.5528  0.0893
  685TIP3    H223471   5.746   4.675  13.843 -2.1398 -1.5048 -2.9951
  686TIP3   OH223472   0.729   4.369   0.422  0.3807  0.4831  0.4179
  686TIP3    H123473   0.676   4.296   0.456  1.1580  0.5991  1.9071
  686TIP3    H223474   0.736   4.351   0.328 -3.2472  1.0751 -0.0400
  687TIP3   OH223475   0.416   6.650   5.736 -0.3880 -0.0171  0.1023
  687TIP3    H123476   0.391   6.736   5.771  0.5867  0.9010 -1.3561
  687TIP3    H223477   0.512   6.648   5.744 -0.2420 -0.2246 -1.4477
  688TIP3   OH223478   4.953   4.817  15.704  0.4496  1.0013 -0.3239
  688TIP3    H123479   4.904   4.798  15.784  1.3432 -1.4295 -0.2966
  688TIP3    H223480   4.888   4.848  15.641 -0.9809 -1.3048 -0.0051
  689TIP3   OH223481   4.649   0.583   6.025 -0.1628 -0.5989 -0.3960
  689TIP3    H123482   4.625   0.628   6.106  0.1071  0.0481 -0.6777
  689TIP3    H223483   4.573   0.527   6.006 -0.6540  0.0199 -0.2570
  690TIP3   OH223484   1.599   6.662  11.352  0.3554  0.1575 -0.0053
  690TIP3    H123485   1.561   6.576  11.334 -0.6678  0.6235 -0.1129
  690TIP3    H223486   1.692   6.646  11.364 -0.0554 -1.1959  1.5477
  691TIP3   OH223487   3.832   2.395  12.583 -0.2807  0.0501  0.4630
  691TIP3    H123488   3.844   2.365  12.492 -0.0508 -0.4710  0.6644
  691TIP3    H223489   3.858   2.320  12.636  0.3064  0.6112  0.9751
  692TIP3   OH223490   3.077   0.070   3.866  0.3415  0.1006 -0.0476
  692TIP3    H123491   3.018   0.144   3.856 -2.1540 -1.8347 -0.0319
  692TIP3    H223492   3.063   0.039   3.955 -2.6097 -3.5778 -1.6412
  693TIP3   OH223493   0.615   6.318  17.050  0.0115  0.2497 -0.5306
  693TIP3    H123494   0.668   6.312  16.970  1.8814 -0.1819  0.7022
  693TIP3    H223495   0.532   6.356  17.021 -0.0051 -1.5140 -2.9543
  694TIP3   OH223496   0.145   2.798  13.134 -0.0894 -0.0737 -0.3582
  694TIP3    H123497   0.203   2.874  13.143 -1.0318  0.3737  2.3532
  694TIP3    H223498   0.066   2.832  13.092  0.1768  0.0563 -0.7593
  695TIP3   OH223499   1.082   5.716  16.881 -0.6508  0.0475 -0.2498
  695TIP3    H123500   1.014   5.655  16.910  0.9863 -0.9481  1.6119
  695TIP3    H223501   1.109   5.684  16.795 -1.1862 -0.6866 -0.1500
  696TIP3   OH223502   4.322   2.274  12.013 -0.2987  0.0614  0.1135
  696TIP3    H123503   4.310   2.364  12.044 -0.5438 -0.1882  0.7376
  696TIP3    H223504   4.366   2.284  11.928  2.1601  0.6926  1.3944
  697TIP3   OH223505   4.728   0.876   5.096 -0.1090 -0.2396  0.8763
  697TIP3    H123506   4.699   0.794   5.137  0.9386 -0.7318  0.6566
  697TIP3    H223507   4.816   0.856   5.064  0.5965  1.2960  1.7979
  698TIP3   OH223508   1.702   1.383  10.593  0.5048  0.2260  0.4669
  698TIP3    H123509   1.786   1.382  10.637  0.6454  0.5452  0.2117
  698TIP3    H223510   1.642   1.341  10.654  0.6200  0.9951  1.1144
  699TIP3   OH223511   0.331   0.434  16.671  0.3069  0.4007 -0.3059
  699TIP3    H123512   0.307   0.341  16.667  0.1757  0.4755 -1.3104
  699TIP3    H223513   0.402   0.443  16.607 -0.3523  1.2018 -0.9229
  700TIP3   OH223514   4.816   1.017  13.424  0.2165 -0.2766 -0.2305
  700TIP3    H123515   4.876   0.959  13.471  1.5510 -0.4092 -2.0675
  700TIP3    H223516   4.870   1.058  13.356 -1.2888  1.2330 -0.5468
  701TIP3   OH223517   0.722   4.748  10.605  0.3858  0.2104 -0.0385
  701TIP3    H123518   0.771   4.805  10.546 -0.5604  0.0125 -1.0432
  701TIP3    H223519   0.630   4.769  10.588  0.0756 -0.4637  0.7461
  702TIP3   OH223520   5.736   5.326   1.112  0.1763 -0.1322 -0.6209
  702TIP3    H123521   5.792   5.367   1.047  1.0683 -1.2599 -0.5924
  702TIP3    H223522   5.782   5.245   1.135  0.3752  0.6900  2.1186
  703TIP3   OH223523   4.682   4.260   0.385 -0.1845  0.4185  0.1729
  703TIP3    H123524   4.766   4.306   0.394 -0.4101  0.4750  2.2637
  703TIP3    H223525   4.625   4.321   0.339  1.0925  0.1291 -1.8777
  704TIP3   OH223526   4.501   5.994  16.041  0.7540  0.1476 -0.2284
  704TIP3    H123527   4.591   6.025  16.042  0.9774 -0.4628 -0.7501
  704TIP3    H223528   4.482   5.977  15.948  0.2109 -0.0299 -0.0896
  705TIP3   OH223529   1.641   3.920  12.776  0.4922 -0.1223  0.2285
  705TIP3    H123530   1.701   3.863  12.824  1.7059 -0.7232 -1.9503
  705TIP3    H223531   1.688   4.003  12.767 -0.1991  0.3737  1.0473
  706TIP3   OH223532   4.828   5.973   6.312 -0.7207  0.1031  0.0930
  706TIP3    H123533   4.754   6.012   6.359  0.3297  0.4072  1.5454
  706TIP3    H223534   4.852   5.897   6.366  1.0670  0.9712  0.5464
  707TIP3   OH223535   6.013   4.360   1.338 -0.4867  0.0343 -0.5208
  707TIP3    H123536   5.950   4.390   1.403 -1.1206  3.1220 -2.4526
  707TIP3    H223537   5.962   4.350   1.258  1.2866  2.0243 -1.9642
  708TIP3   OH223538   2.877   2.912   5.331 -0.1356 -0.2464 -0.2422
  708TIP3    H123539   2.783   2.929   5.323  0.1259  0.9250 -0.9212
  708TIP3    H223540   2.915   2.948   5.251  0.9276 -0.4653  0.1547
  709TIP3   OH223541   3.184   3.184  13.764 -0.0496  0.4093  0.4766
  709TIP3    H123542   3.213   3.110  13.817  0.1821  0.6423  0.6717
  709TIP3    H223543   3.109   3.149  13.715 -0.6510  0.3671  1.4084
  710TIP3   OH223544   5.179   4.805   5.154  0.9239  0.3109 -0.6586
  710TIP3    H123545   5.265   4.843   5.173 -0.1040  1.8492  1.0623
  710TIP3    H223546   5.189   4.712   5.175  1.1922  1.1052  3.1467
  711TIP3   OH223547   6.498   3.871  12.458 -1.0980 -0.6662  0.1251
  711TIP3    H123548   6.462   3.922  12.530  2.6367 -0.4989  2.0082
  711TIP3    H223549   6.581   3.915  12.437 -0.9585 -2.1496 -2.6433
  712TIP3   OH223550   2.092   1.741   4.332 -0.2517  0.7474  0.2845
  712TIP3    H123551   2.161   1.675   4.345  1.1261  1.8865 -0.9438
  712TIP3    H223552   2.058   1.758   4.419  0.1880 -0.7309  0.7614
  713TIP3   OH223553   6.072   5.184  15.611  0.4561  0.3359 -0.2453
  713TIP3    H123554   6.109   5.245  15.675  0.1744  0.5741 -0.3117
  713TIP3    H223555   6.118   5.101  15.628  0.9457  0.5995 -0.2533
  714TIP3   OH223556   3.556   5.500  15.863 -0.1304 -0.5537  0.0154
  714TIP3    H123557   3.534   5.409  15.845 -0.8597 -0.5494  0.8363
  714TIP3    H223558   3.495   5.551  15.810  2.6522 -0.4934 -3.3073
  715TIP3   OH223559   1.131   3.266  13.965  0.7737 -0.2027  0.2051
  715TIP3    H123560   1.179   3.200  13.915 -1.8274 -1.4209 -0.7884
  715TIP3    H223561   1.088   3.217  14.035  0.8132  0.8284  0.9710
  716TIP3   OH223562   4.739   0.388  10.407 -0.1685 -0.2145  0.6157
  716TIP3    H123563   4.702   0.373  10.320 -0.1113  2.2293  0.1564
  716TIP3    H223564   4.800   0.315  10.419  0.4702 -0.1136 -1.7380
  717TIP3   OH223565   5.862   3.161  15.532 -0.4487 -0.2284  0.2835
  717TIP3    H123566   5.918   3.212  15.474  1.4490 -0.7700  1.5881
  717TIP3    H223567   5.791   3.129  15.476  0.4672  0.5905 -1.3642
  718TIP3   OH223568   3.877   4.706   5.325 -0.1997 -0.4884 -0.2819
  718TIP3    H123569   3.946   4.642   5.305 -0.1706 -0.2881 -0.8456
  718TIP3    H223570   3.862   4.751   5.242  0.2537  0.7052  0.2667
  719TIP3   OH223571   1.477   0.470  12.689 -0.3023 -1.0996  1.0183
  719TIP3    H123572   1.468   0.497  12.780  0.2184  0.2246  0.6971
  719TIP3    H223573   1.526   0.542  12.648 -0.8116 -1.5316 -0.3649
  720TIP3   OH223574   0.361   5.095  14.976  0.4634  0.0540  1.0708
  720TIP3    H123575   0.380   5.138  15.060  0.3554  2.0230  0.1110
  720TIP3    H223576   0.446   5.075  14.939  0.5475  1.1690  0.6562
  721TIP3   OH223577   2.161   2.454  15.859 -0.3024  0.3673  0.3724
  721TIP3    H123578   2.138   2.544  15.838  4.1524  0.9373 -2.7340
  721TIP3    H223579   2.166   2.410  15.774  0.6709 -1.9697  1.5898
  722TIP3   OH223580   0.310   0.489   5.110 -0.2587 -0.4102  0.7897
  722TIP3    H123581   0.279   0.511   5.022  0.6010  1.3210  0.9047
  722TIP3    H223582   0.245   0.527   5.168 -0.4571 -0.9575  0.9309
  723TIP3   OH223583   6.249   6.240   1.322  0.6188 -0.7800 -0.1610
  723TIP3    H123584   6.272   6.209   1.410  0.4886 -3.6650 -1.0709
  723TIP3    H223585   6.158   6.268   1.329  1.0255  0.2843  0.9273
  724TIP3   OH223586   6.717   3.520  15.997 -0.0781 -0.0089 -0.1644
  724TIP3    H123587   6.660   3.474  15.935 -0.6088  0.9481 -0.3967
  724TIP3    H223588   6.780   3.566  15.942 -0.7986  1.1684 -0.0172
  725TIP3   OH223589   1.309   5.159  16.540  0.3173 -0.3153  0.5586
  725TIP3    H123590   1.225   5.179  16.500  0.5770 -1.3245 -0.5324
  725TIP3    H223591   1.292   5.084  16.597  0.5288 -0.6759  0.1459
  726TIP3   OH223592   1.354   6.271  15.938 -0.1079 -0.7157  0.3886
  726TIP3    H123593   1.447   6.250  15.945  0.1788 -0.5380 -2.2020
  726TIP3    H223594   1.351   6.347  15.879 -1.9424 -1.3590 -0.4022
  727TIP3   OH223595   1.856   0.736   4.356 -0.1138  0.1369  0.1634
  727TIP3    H123596   1.768   0.740   4.394 -1.0642 -0.8560 -1.8354
  727TIP3    H223597   1.860   0.811   4.296 -0.7552 -1.5524 -2.0514
  728TIP3   OH223598   2.112   5.325  16.474 -0.1760  0.8587 -0.6944
  728TIP3    H123599   2.027   5.315  16.517  1.2544  1.2941  2.3690
  728TIP3    H223600   2.114   5.416  16.446 -1.2465  0.4906 -2.0520
  729TIP3   OH223601   1.669   4.433  12.583  0.3800 -0.4368  0.3015
  729TIP3    H123602   1.744   4.425  12.524 -0.2655  0.1487 -0.6222
  729TIP3    H223603   1.598   4.388  12.538 -0.8660  2.3824 -0.7193
  730TIP3   OH223604   0.486   0.447   4.171 -0.1821 -0.1404 -0.5546
  730TIP3    H123605   0.408   0.427   4.119 -1.1888 -0.5254  1.0719
  730TIP3    H223606   0.513   0.534   4.141 -1.9480  0.5211 -0.3228
  731TIP3   OH223607   1.941   5.005   0.597 -0.4116  0.1338  0.3208
  731TIP3    H123608   1.952   4.929   0.539  0.3106 -0.0570  0.7105
  731TIP3    H223609   2.030   5.032   0.619 -0.6751  0.3178  1.1961
  732TIP3   OH223610   0.414   3.446   4.549 -0.1076 -0.2608 -0.4280
  732TIP3    H123611   0.369   3.482   4.473 -0.8258  2.3157  1.1481
  732TIP3    H223612   0.475   3.515   4.575  2.0775 -2.1844 -0.2452
  733TIP3   OH223613   0.171   0.388  14.276  0.5105 -0.0336 -0.7414
  733TIP3    H123614   0.228   0.321  14.313 -0.4375 -0.4271  0.0365
  733TIP3    H223615   0.158   0.451  14.347 -0.1978 -0.0659 -0.8335
  734TIP3   OH223616   1.634   2.487  13.772 -0.3086  0.3238 -0.0414
  734TIP3    H123617   1.720   2.510  13.736  0.1063  2.7169  2.3853
  734TIP3    H223618   1.652   2.413  13.830  0.2615  1.2739  1.0181
  735TIP3   OH223619   5.513   6.372   2.740 -0.5667  0.0128  0.0021
  735TIP3    H123620   5.550   6.457   2.763 -1.8092  1.2920 -2.5882
  735TIP3    H223621   5.498   6.330   2.825  2.8479  1.0956  1.2446
  736TIP3   OH223622   4.195   4.618   3.309 -0.0961 -0.2674  0.3335
  736TIP3    H123623   4.227   4.632   3.220 -0.7017 -0.0000  0.1496
  736TIP3    H223624   4.195   4.705   3.349 -1.6190 -0.0760 -0.0311
  737TIP3   OH223625   5.396   5.310   0.661  0.2542  0.3876 -0.4455
  737TIP3    H123626   5.456   5.347   0.597 -2.2935  1.9753 -2.0006
  737TIP3    H223627   5.312   5.351   0.642 -1.5390 -2.3818  1.1418
  738TIP3   OH223628   2.052   5.104  15.281  0.4085 -0.2493  0.1441
  738TIP3    H123629   2.135   5.137  15.246  0.7778 -0.3491  0.9151
  738TIP3    H223630   1.993   5.103  15.205  1.6758 -2.0533 -0.8497
  739TIP3   OH223631   4.997   6.218  12.253 -0.1061 -0.0507 -0.1652
  739TIP3    H123632   4.984   6.210  12.159 -2.1444 -0.5369  0.1364
  739TIP3    H223633   4.947   6.146  12.291 -0.9581  1.3069  1.3822
  740TIP3   OH223634   0.510   1.656   6.060  0.0891 -0.1491  0.0992
  740TIP3    H123635   0.536   1.735   6.013 -1.3652  0.4122  0.2176
  740TIP3    H223636   0.546   1.667   6.148  0.1384  0.2529  0.0303
  741TIP3   OH223637   5.867   3.756   5.544  0.2502  0.0415  0.2021
  741TIP3    H123638   5.922   3.678   5.548 -2.1852 -1.8839 -2.1741
  741TIP3    H223639   5.929   3.829   5.539  2.5610 -1.6840  2.7393
  742TIP3   OH223640   3.096   6.122   4.277  0.2829 -0.0908 -0.2433
  742TIP3    H123641   3.137   6.058   4.219  1.3733  0.8535 -0.5295
  742TIP3    H223642   3.167   6.182   4.300 -0.4160  0.2353  1.1056
  743TIP3   OH223643   5.404   3.895   2.002  0.4964 -0.3231  0.6836
  743TIP3    H123644   5.368   3.807   1.996 -1.9163  0.5341  1.8288
  743TIP3    H223645   5.465   3.891   2.075 -0.4699 -0.7824  1.4788
  744TIP3   OH223646   2.217   4.606  11.070  0.2071 -0.4847 -0.0248
  744TIP3    H123647   2.122   4.605  11.055 -0.3035  1.0810  2.6394
  744TIP3    H223648   2.246   4.517  11.050 -2.0905 -1.3996  0.5433
  745TIP3   OH223649   4.933   5.022  11.012  0.0385  0.1952 -0.7709
  745TIP3    H123650   5.004   5.062  10.961  0.9700 -0.2980  0.1220
  745TIP3    H223651   4.893   5.096  11.058  1.0614  0.2478  0.0380
  746TIP3   OH223652   1.750   2.128   1.167  0.0634  0.0825 -0.5539
  746TIP3    H123653   1.811   2.118   1.240  1.5114  1.6719 -1.5125
  746TIP3    H223654   1.778   2.062   1.103 -0.1083 -0.1422 -0.3959
  747TIP3   OH223655   6.338   0.303   0.756  0.2607 -0.3072  0.2387
  747TIP3    H123656   6.314   0.374   0.815  2.4590  0.7791 -0.1255
  747TIP3    H223657   6.402   0.252   0.806 -1.8655 -2.5092  0.7932
  748TIP3   OH223658   5.926   1.280  12.450 -0.2170  0.4465  0.2440
  748TIP3    H123659   5.849   1.309  12.498 -1.6792 -0.5799 -1.4192
  748TIP3    H223660   5.972   1.360  12.427 -2.2628  1.2782 -1.1357
  749TIP3   OH223661   6.737   5.420   4.276  0.3369 -0.7621 -0.1581
  749TIP3    H123662   6.810   5.358   4.275  1.4150  0.4955 -0.4143
  749TIP3    H223663   6.659   5.364   4.284  1.3782 -2.0704  1.4266
  750TIP3   OH223664   0.341   1.092  13.525 -0.0029  0.2144 -0.1671
  750TIP3    H123665   0.312   1.117  13.612  1.3642 -2.7032  1.2120
  750TIP3    H223666   0.309   1.002  13.513  1.3419 -0.0757 -1.9291
  751TIP3   OH223667   2.542   1.715  10.825  0.0735 -0.3661 -0.7923
  751TIP3    H123668   2.571   1.800  10.792 -1.6387 -0.0218 -1.4577
  751TIP3    H223669   2.503   1.672  10.749  1.8067 -2.1673 -0.7067
  752TIP3   OH223670   3.300   3.753  15.281  0.4266  0.6364 -0.0481
  752TIP3    H123671   3.239   3.784  15.215  1.1030  1.1842 -0.4189
  752TIP3    H223672   3.307   3.825  15.344  0.7612  0.6072 -0.0516
  753TIP3   OH223673   0.690   0.687   5.949  0.3492  0.0621 -0.5160
  753TIP3    H123674   0.688   0.782   5.943  1.8584  0.0765 -0.9763
  753TIP3    H223675   0.782   0.663   5.934  0.0979 -1.4230  0.1688
  754TIP3   OH223676   0.996   2.248  16.755 -0.2221  0.2422 -0.3360
  754TIP3    H123677   0.941   2.327  16.760  0.2663  0.6223 -0.9812
  754TIP3    H223678   0.935   2.176  16.772 -0.3644  0.8592  1.9065
  755TIP3   OH223679   4.880   1.759  17.051 -0.0137 -0.4586  0.4280
  755TIP3    H123680   4.956   1.761  17.109  0.4110 -0.1815 -0.1306
  755TIP3    H223681   4.821   1.826  17.087 -0.0046 -0.6891  0.8766
  756TIP3   OH223682   3.650   6.540   3.925 -0.5247  0.2217  0.0073
  756TIP3    H123683   3.662   6.635   3.935 -0.6851  0.1371  1.1547
  756TIP3    H223684   3.640   6.508   4.015  0.6708 -1.0387 -0.2871
  757TIP3   OH223685   0.426   5.259   3.742  0.6935 -0.1299  0.1702
  757TIP3    H123686   0.494   5.314   3.780  1.0027 -1.4349  1.5834
  757TIP3    H223687   0.355   5.319   3.720  1.5518  0.9943  0.4468
  758TIP3   OH223688   2.101   0.954   1.140  0.7966  0.0684 -0.6570
  758TIP3    H123689   2.094   0.981   1.048  2.3126  0.7467 -0.5988
  758TIP3    H223690   2.015   0.918   1.161  0.0043  1.1093 -1.9642
  759TIP3   OH223691   5.611   6.442   1.987  0.3173 -0.5391 -0.6999
  759TIP3    H123692   5.631   6.353   2.017  0.9753 -0.1650  0.0040
  759TIP3    H223693   5.647   6.499   2.056 -0.0282  0.2701 -1.1820
  760TIP3   OH223694   1.115   2.466  16.576  0.2581  0.3500 -0.2132
  760TIP3    H123695   1.123   2.430  16.487 -3.6042  0.2502 -0.6092
  760TIP3    H223696   1.110   2.389  16.633 -1.0203  0.3180 -0.3438
  761TIP3   OH223697   2.284   3.914  15.005 -0.2775  0.5334 -0.7696
  761TIP3    H123698   2.222   3.974  15.047 -1.0496  0.6331 -2.0334
  761TIP3    H223699   2.369   3.956  15.015 -0.7074  1.4487 -0.9296
  762TIP3   OH223700   0.855   3.141  17.042  0.7372  0.2492 -0.0524
  762TIP3    H123701   0.863   3.131  16.947  0.7357  2.1062 -0.2627
  762TIP3    H223702   0.878   3.232  17.059  2.2446 -0.4683  1.9231
  763TIP3   OH223703   3.174   2.989  15.822 -0.0207 -0.0549  0.2584
  763TIP3    H123704   3.157   2.941  15.904 -0.0642  1.5549  1.2171
  763TIP3    H223705   3.262   2.962  15.796 -0.7160 -1.9949 -0.1756
  764TIP3   OH223706   4.413   6.733   0.558 -0.0078  0.1136  0.3958
  764TIP3    H123707   4.456   6.801   0.609  0.9631 -0.2247  0.0294
  764TIP3    H223708   4.466   6.654   0.573  0.4073  0.0571 -1.2875
  765TIP3   OH223709   5.642   2.276  14.008 -0.2991 -0.7931 -0.0895
  765TIP3    H123710   5.651   2.347  13.946 -1.0000 -1.1848 -0.6402
  765TIP3    H223711   5.694   2.303  14.084 -0.3382  0.1653 -0.4082
  766TIP3   OH223712   5.671   4.101  14.514 -0.2752 -0.0186  0.0512
  766TIP3    H123713   5.727   4.178  14.503 -1.6104  1.0938  0.9168
  766TIP3    H223714   5.584   4.137  14.531 -0.5996 -1.6987  2.1062
  767TIP3   OH223715   6.752   4.230  15.165  0.4190  0.2251 -0.7144
  767TIP3    H123716   6.804   4.302  15.200 -0.9889  0.0215  1.8773
  767TIP3    H223717   6.815   4.160  15.151  1.1339  0.5731  0.7167
  768TIP3   OH223718   1.002   0.767   2.102  0.0157 -0.4235 -0.4999
  768TIP3    H123719   0.909   0.756   2.080  0.2220 -0.1947 -1.4843
  768TIP3    H223720   1.017   0.701   2.170 -0.8127 -0.6142 -0.4844
  769TIP3   OH223721   2.705   1.371   4.178  0.1987 -0.4847 -0.3145
  769TIP3    H123722   2.771   1.360   4.110 -0.8140  2.6272 -1.9216
  769TIP3    H223723   2.730   1.310   4.247  3.5521 -0.8439 -1.7720
  770TIP3   OH223724   0.799   2.327   5.025 -0.3564  0.2665 -0.1948
  770TIP3    H123725   0.723   2.299   4.974 -1.4464  0.5460  1.2700
  770TIP3    H223726   0.763   2.380   5.096  1.2602  0.9576  0.1316
  771TIP3   OH223727   1.403   3.086   3.450 -0.7445  0.2282  0.1744
  771TIP3    H123728   1.362   3.141   3.516 -0.4850 -1.1264  1.4855
  771TIP3    H223729   1.388   2.996   3.480  2.6103 -0.3345  0.3582
  772TIP3   OH223730   0.446   5.247   0.566  0.3174 -0.9374 -0.3043
  772TIP3    H123731   0.360   5.204   0.569 -0.2767  0.2880  1.1170
  772TIP3    H223732   0.502   5.189   0.618 -0.2767 -0.4802  0.8864
  773TIP3   OH223733   4.521   6.244   4.718 -0.1352 -0.2643  0.3361
  773TIP3    H123734   4.590   6.180   4.738 -0.9754 -0.8679  1.3272
  773TIP3    H223735   4.443   6.209   4.760 -0.8283  0.9143  0.0401
  774TIP3   OH223736   0.897   6.354  14.163 -0.0418  0.0006 -0.2116
  774TIP3    H123737   0.906   6.337  14.256 -0.6271 -0.6245 -0.2636
  774TIP3    H223738   0.928   6.443  14.151 -1.1758  0.5334  0.7758
  775TIP3   OH223739   3.150   6.076  13.912 -0.3603 -0.5796 -0.1055
  775TIP3    H123740   3.069   6.045  13.951  0.1998 -1.2697  0.5335
  775TIP3    H223741   3.200   6.113  13.986 -0.1073 -0.1251 -0.4943
  776TIP3   OH223742   0.768   6.103   2.022 -0.3729 -0.0854  0.0884
  776TIP3    H123743   0.834   6.086   1.956 -1.2945 -0.7409 -0.6741
  776TIP3    H223744   0.805   6.067   2.103  1.0428  1.3246  0.0937
  777TIP3   OH223745   5.853   3.776  12.194 -0.3019  0.4136 -0.5007
  777TIP3    H123746   5.891   3.750  12.278  0.2779  2.3469 -0.1336
  777TIP3    H223747   5.882   3.708  12.133 -0.7216 -1.0033  0.8444
  778TIP3   OH223748   5.149   1.301  12.283 -0.4410  0.1702  0.5776
  778TIP3    H123749   5.137   1.246  12.206  0.1322 -0.7728  1.1578
  778TIP3    H223750   5.107   1.253  12.354 -1.5921  1.3658  0.7256
  779TIP3   OH223751   4.831   0.409  16.662 -0.4322 -0.4679  0.2734
  779TIP3    H123752   4.923   0.387  16.676 -0.1231  0.3605 -0.4427
  779TIP3    H223753   4.832   0.503  16.643 -1.5614 -0.1581  1.6438
  780TIP3   OH223754   2.977   2.261  14.673  0.5186  0.2231  0.1009
  780TIP3    H123755   3.044   2.194  14.654  1.7944  1.3126  0.7167
  780TIP3    H223756   2.970   2.261  14.769  1.5720  1.9651  0.1955
  781TIP3   OH223757   6.263   0.762   4.998 -0.1572 -0.0812  0.2591
  781TIP3    H123758   6.172   0.738   5.017  0.4846 -0.5874  2.9217
  781TIP3    H223759   6.256   0.848   4.957 -1.8918 -0.4527 -0.2672
  782TIP3   OH223760   0.112   4.830   2.136  1.2601  0.4139  0.0405
  782TIP3    H123761   0.138   4.801   2.049  0.9619  0.9894 -0.2417
  782TIP3    H223762   0.107   4.750   2.187  2.9563  0.2243 -0.0637
  783TIP3   OH223763   5.692   5.298  12.119 -0.3616  0.0353 -0.0338
  783TIP3    H123764   5.666   5.214  12.157  2.2422 -0.0592  1.6325
  783TIP3    H223765   5.610   5.334  12.084 -1.6593 -2.8293 -0.1296
  784TIP3   OH223766   5.485   6.233  13.809  0.2000 -0.1459 -0.2438
  784TIP3    H123767   5.516   6.143  13.814  0.6439  0.0358  0.2899
  784TIP3    H223768   5.397   6.230  13.847  0.8111 -0.0765  1.2123
  785TIP3   OH223769   5.889   5.631  11.362  0.2886  0.9463  0.2801
  785TIP3    H123770   5.901   5.721  11.331 -1.0233  0.9629 -0.2435
  785TIP3    H223771   5.903   5.636  11.457 -0.4856  1.8454  0.3538
  786TIP3   OH223772   6.519   0.777   4.288 -0.3060 -0.2264  0.4264
  786TIP3    H123773   6.456   0.801   4.356  0.0567  1.1741  0.2831
  786TIP3    H223774   6.583   0.848   4.288  1.0584 -1.4259  0.2816
  787TIP3   OH223775   1.474   6.250   4.543 -0.6031 -0.1011  0.6470
  787TIP3    H123776   1.407   6.183   4.529 -0.5635 -0.3078  1.4080
  787TIP3    H223777   1.557   6.204   4.527 -0.6005 -0.0857  0.6150
  788TIP3   OH223778   5.584   1.700  11.339  0.1413 -0.4948 -0.0484
  788TIP3    H123779   5.598   1.606  11.336 -0.1424 -0.5192 -0.7182
  788TIP3    H223780   5.591   1.728  11.248  0.4993  0.1723  0.1807
  789TIP3   OH223781   3.557   1.824   2.885 -0.0039 -0.2059  0.4210
  789TIP3    H123782   3.595   1.788   2.965 -0.5211  1.0866  1.2774
  789TIP3    H223783   3.559   1.752   2.822 -1.2691 -1.8119  2.1632
  790TIP3   OH223784   0.861   1.774   2.231  0.5927  0.1289 -0.2712
  790TIP3    H123785   0.950   1.766   2.195  0.0629  0.3157 -1.6486
  790TIP3    H223786   0.849   1.868   2.244 -0.2394  0.3186 -2.2738
  791TIP3   OH223787   1.376   5.476   5.483 -0.1239  0.3865 -0.7480
  791TIP3    H123788   1.415   5.403   5.532 -1.7806  0.2734  0.4561
  791TIP3    H223789   1.419   5.553   5.518 -0.5411  0.2142  0.1767
  792TIP3   OH223790   2.521   4.879   4.267 -0.0960  0.6802 -0.6368
  792TIP3    H123791   2.484   4.886   4.355  0.6815 -0.0765 -0.2490
  792TIP3    H223792   2.614   4.863   4.280 -0.0881 -0.1597 -1.5803
  793TIP3   OH223793   1.303   6.114  17.170 -0.2989  0.0686  0.3200
  793TIP3    H123794   1.257   6.062  17.104  1.7090  0.1548 -1.2001
  793TIP3    H223795   1.296   6.204  17.139 -1.1071  0.3583  1.3215
  794TIP3   OH223796   6.608   6.135   0.276  0.6884 -0.4307  0.2887
  794TIP3    H123797   6.631   6.162   0.187 -0.4965 -1.0194 -0.2113
  794TIP3    H223798   6.570   6.213   0.315 -1.1033 -0.8489 -0.5693
  795TIP3   OH223799   3.246   3.345  13.197  0.4180 -0.2329 -0.1148
  795TIP3    H123800   3.248   3.434  13.231 -0.9007  0.2975 -1.3590
  795TIP3    H223801   3.153   3.319  13.201  0.3790 -0.5498 -2.1860
  796TIP3   OH223802   1.207   0.897   1.522 -0.2010 -0.5525  0.2418
  796TIP3    H123803   1.280   0.863   1.573 -0.6536  0.6565  1.7337
  796TIP3    H223804   1.134   0.837   1.542 -0.2537 -0.3513  0.6632
  797TIP3   OH223805   6.103   4.666  14.808  0.1759  0.4544  0.2724
  797TIP3    H123806   6.073   4.620  14.730  0.9341  0.2710  0.0904
  797TIP3    H223807   6.079   4.758  14.793 -1.2103  0.1550  0.5754
  798TIP3   OH223808   1.822   3.561  16.985  0.2058 -0.5190  0.2162
  798TIP3    H123809   1.791   3.564  17.076 -0.2000 -0.4209  0.0788
  798TIP3    H223810   1.878   3.638  16.976 -1.7756  0.8888 -0.3294
  799TIP3   OH223811   5.807   5.134   2.200 -0.0975  0.0108 -0.1469
  799TIP3    H123812   5.730   5.088   2.167  0.4852 -0.5164 -0.7998
  799TIP3    H223813   5.833   5.193   2.129  0.6062 -0.4447 -0.2744
  800TIP3   OH223814   0.716   5.686   2.088  0.7329  0.3069 -0.3282
  800TIP3    H123815   0.645   5.750   2.075 -0.0818 -0.8086 -1.5087
  800TIP3    H223816   0.680   5.623   2.150  1.3109  0.6351  0.3504
  801TIP3   OH223817   2.377   5.829   3.941 -0.8108  0.5149 -0.0880
  801TIP3    H123818   2.301   5.831   3.884 -1.3134  1.1129  0.5913
  801TIP3    H223819   2.413   5.917   3.937 -0.0275  0.1827 -0.5610
  802TIP3   OH223820   3.812   1.451   2.225  0.0614  0.3285 -0.5042
  802TIP3    H123821   3.823   1.406   2.142 -0.0144 -0.7606  0.0561
  802TIP3    H223822   3.814   1.544   2.204 -1.0504  0.0577 -1.8657
  803TIP3   OH223823   5.112   6.509  12.171  0.0865  0.1064 -0.1331
  803TIP3    H123824   5.035   6.557  12.202  0.8850  1.5506 -0.3711
  803TIP3    H223825   5.075   6.432  12.126 -1.1656  0.0240  1.0153
  804TIP3   OH223826   5.985   5.718   5.059  0.3268 -0.2829  0.6316
  804TIP3    H123827   6.061   5.758   5.101 -0.3645  1.2223  0.4844
  804TIP3    H223828   5.991   5.625   5.080  0.8577  0.2067  2.7068
  805TIP3   OH223829   4.937   6.709   1.477 -0.3289 -0.5470  0.0604
  805TIP3    H123830   5.017   6.676   1.518  2.0980  1.7609 -2.5549
  805TIP3    H223831   4.924   6.796   1.515 -1.8344 -1.0610  0.7510
  806TIP3   OH223832   3.387   4.097   5.937 -0.6361 -0.1385  0.0309
  806TIP3    H123833   3.314   4.141   5.893 -1.4155 -0.3441  1.1250
  806TIP3    H223834   3.350   4.061   6.017  1.0948  1.5583  1.6731
  807TIP3   OH223835   3.826   4.160   2.209  0.3514  0.2404  0.2756
  807TIP3    H123836   3.749   4.117   2.245  0.3657  0.1077  0.1454
  807TIP3    H223837   3.797   4.249   2.190 -0.0598 -0.1163 -0.7723
  808TIP3   OH223838   3.765   4.311  12.413  0.2195  0.5197 -0.2866
  808TIP3    H123839   3.820   4.326  12.336 -0.3127  1.8953 -0.4060
  808TIP3    H223840   3.726   4.396  12.432 -2.1937 -0.5130 -0.4540
  809TIP3   OH223841   0.049   5.977  11.633  0.4099  0.1664 -0.2022
  809TIP3    H123842   0.081   5.907  11.576 -0.7109 -0.0759 -0.5405
  809TIP3    H223843   0.128   6.024  11.659  1.1816 -1.3028  0.1371
  810TIP3   OH223844   2.794   6.448  11.595  0.1892  0.0267  0.4192
  810TIP3    H123845   2.818   6.360  11.623 -0.3473  0.2031  1.4791
  810TIP3    H223846   2.743   6.483  11.669 -3.8403 -0.5542 -1.9669
  811TIP3   OH223847   0.369   4.458  16.243 -0.0650 -0.2819  0.6217
  811TIP3    H123848   0.371   4.362  16.237  1.1573 -0.3025  1.2311
  811TIP3    H223849   0.420   4.487  16.167 -1.3155 -0.0743 -0.1629
  812TIP3   OH223850   4.134   1.037  11.674  0.2687 -0.4993 -0.4756
  812TIP3    H123851   4.062   1.100  11.672  2.3120  1.9223 -0.6186
  812TIP3    H223852   4.169   1.039  11.585  1.0652 -1.0108 -0.1738
  813TIP3   OH223853   4.677   0.904  14.434 -0.0339  0.0275  0.1734
  813TIP3    H123854   4.589   0.938  14.446  0.4190  0.5046  2.4733
  813TIP3    H223855   4.718   0.963  14.371 -0.8626  0.7594  0.3168
  814TIP3   OH223856   0.112   4.341  15.964 -0.1273  0.1404 -0.2266
  814TIP3    H123857   0.179   4.361  15.899 -0.3390  0.6217 -0.2997
  814TIP3    H223858   0.139   4.258  16.002 -0.4577 -0.5615 -1.5148
  815TIP3   OH223859   2.433   6.407   1.823 -0.0801  0.0688 -0.5415
  815TIP3    H123860   2.471   6.474   1.881 -3.1815  0.0288  1.6554
  815TIP3    H223861   2.377   6.457   1.763  0.3848 -0.2496 -1.2496
  816TIP3   OH223862   2.689   3.048   0.178  0.7537  0.4884 -0.4345
  816TIP3    H123863   2.716   3.096   0.256  1.1048  2.3680 -1.6747
  816TIP3    H223864   2.769   3.037   0.127  0.7923 -1.9965  0.0917
  817TIP3   OH223865   2.286   5.707  13.526 -0.1883 -0.3343  0.0748
  817TIP3    H123866   2.232   5.697  13.604 -1.6748  1.8393 -0.6325
  817TIP3    H223867   2.248   5.782  13.480  1.7602 -0.4738 -1.8339
  818TIP3   OH223868   2.708   0.325  11.806  0.5141  0.1317 -0.3400
  818TIP3    H123869   2.764   0.396  11.775  1.0481  0.4707  1.3476
  818TIP3    H223870   2.767   0.251  11.820  0.3012  0.0100 -0.0665
  819TIP3   OH223871   0.337   4.738   6.206 -0.0210 -0.4726  0.1982
  819TIP3    H123872   0.396   4.696   6.144  1.9151  2.4160 -0.0460
  819TIP3    H223873   0.377   4.723   6.291  0.6112  0.6994  0.1220
  820TIP3   OH223874   0.548   1.400   0.012 -0.8503 -0.0216  0.4038
  820TIP3    H123875   0.565   1.443   0.096 -2.0593  1.4911 -0.0984
  820TIP3    H223876   0.539   1.472  -0.051 -1.5327 -1.0634 -0.7241
  821TIP3   OH223877   1.756   1.007  12.241 -0.5753 -0.3516 -0.4235
  821TIP3    H123878   1.851   1.004  12.235 -0.3170 -0.7196  2.8162
  821TIP3    H223879   1.732   1.096  12.214  0.8673  0.3630  0.6184
  822TIP3   OH223880   5.903   6.286   5.610  0.6613  0.2268  0.5884
  822TIP3    H123881   5.870   6.349   5.546  1.2871  1.4156  1.4410
  822TIP3    H223882   5.824   6.250   5.651  0.1388 -1.9970 -2.1814
  823TIP3   OH223883   1.805   1.356   2.197  0.2652  0.0462 -0.1397
  823TIP3    H123884   1.838   1.437   2.237  0.3208  0.7280 -1.5279
  823TIP3    H223885   1.881   1.317   2.155  0.0212 -0.1584 -0.3942
  824TIP3   OH223886   5.879   4.449  11.970  0.3843  0.3463 -0.0167
  824TIP3    H123887   5.895   4.355  11.960  1.6168  0.4237  1.0314
  824TIP3    H223888   5.925   4.489  11.895 -2.8710 -0.0724 -2.3434
  825TIP3   OH223889   1.021   4.419   0.754 -0.0546  0.2684  0.3744
  825TIP3    H123890   0.972   4.480   0.699  0.0798  0.4963  0.5064
  825TIP3    H223891   1.025   4.461   0.840 -0.2674 -0.0896  0.5609
  826TIP3   OH223892   3.610   5.587   0.789 -0.0636  0.6073  0.2247
  826TIP3    H123893   3.533   5.591   0.733 -0.4372 -2.2639  0.4811
  826TIP3    H223894   3.680   5.555   0.732  0.4214  1.0892  0.5401
  827TIP3   OH223895   5.388   1.550   0.215 -0.0800  0.1220  0.6872
  827TIP3    H123896   5.479   1.577   0.204 -0.5441  1.7833  0.7914
  827TIP3    H223897   5.342   1.630   0.238 -1.9546 -0.2922 -1.4900
  828TIP3   OH223898   3.253   4.337   2.760  0.2760  0.4834  0.7101
  828TIP3    H123899   3.243   4.399   2.687 -2.1901 -0.4306  0.2094
  828TIP3    H223900   3.168   4.339   2.804  0.2305 -2.3310  0.8390
  829TIP3   OH223901   0.976   4.085  11.894  0.0707  0.9399 -0.1425
  829TIP3    H123902   1.055   4.139  11.903 -0.1353  1.1625  0.3892
  829TIP3    H223903   1.007   4.001  11.862  0.4819  1.1455 -0.2812
  830TIP3   OH223904   5.100   6.761   4.275  0.0307  0.3421  0.0974
  830TIP3    H123905   5.161   6.736   4.344  0.1444  0.2489 -0.0348
  830TIP3    H223906   5.091   6.681   4.222 -2.1106 -0.3963  1.5076
  831TIP3   OH223907   5.792   1.073   1.134  0.6188  0.1385 -0.4228
  831TIP3    H123908   5.743   0.994   1.153  0.7835  0.3372  0.8511
  831TIP3    H223909   5.725   1.140   1.119  0.4239 -0.7724 -4.0293
  832TIP3   OH223910   4.229   0.193   1.833 -0.2507 -0.3174  0.0862
  832TIP3    H123911   4.241   0.281   1.867  2.3497 -0.7726  0.4182
  832TIP3    H223912   4.265   0.196   1.745 -0.7956 -0.8688 -0.1597
  833TIP3   OH223913   0.299   3.762  12.368  0.4349 -0.0800 -0.0355
  833TIP3    H123914   0.367   3.828  12.359  0.3316 -0.0100 -0.3053
  833TIP3    H223915   0.288   3.751  12.462  1.8602 -1.1822  0.0109
  834TIP3   OH223916   5.366   2.549   3.453  0.0534 -0.5010 -0.0463
  834TIP3    H123917   5.426   2.621   3.473  0.3092 -0.9278  0.7298
  834TIP3    H223918   5.390   2.480   3.515  0.3163 -1.5449 -1.2901
  835TIP3   OH223919   5.270   3.427  13.749  0.2791 -0.7145 -0.2396
  835TIP3    H123920   5.312   3.372  13.815  1.8439  1.0048  0.2570
  835TIP3    H223921   5.336   3.438  13.681 -0.3988 -0.3667 -0.8460
  836TIP3   OH223922   0.105   1.278  16.132  0.2097  0.3595  0.2542
  836TIP3    H123923   0.035   1.232  16.179 -0.0643  2.0049  1.4995
  836TIP3    H223924   0.139   1.341  16.196  0.7824  1.6693 -1.3161
  837TIP3   OH223925   3.743   2.264   1.715  0.4010 -0.2309  0.0935
  837TIP3    H123926   3.749   2.354   1.745 -0.2589  0.4055 -1.6103
  837TIP3    H223927   3.650   2.245   1.712  0.4565 -0.3219 -1.3917
  838TIP3   OH223928   4.005   1.880  15.277 -0.2332  0.2739 -0.8098
  838TIP3    H123929   3.929   1.869  15.219 -0.8018 -0.0035 -0.0134
  838TIP3    H223930   4.036   1.791  15.293 -1.2808  0.2007  0.9026
  839TIP3   OH223931   5.958   5.929  17.151  0.5728 -0.6651 -0.0607
  839TIP3    H123932   5.968   5.850  17.203  0.5686  0.6094  1.9325
  839TIP3    H223933   6.048   5.956  17.131  0.5988 -0.5599  0.2017
  840TIP3   OH223934   4.438   3.971  16.996 -0.1671 -0.2720 -0.1855
  840TIP3    H123935   4.450   3.889  16.949  1.8779 -1.0638  1.6530
  840TIP3    H223936   4.393   4.028  16.934 -0.6723 -2.4340 -1.8425
  841TIP3   OH223937   5.833   4.849   0.280  0.2894  0.0812  0.0652
  841TIP3    H123938   5.833   4.905   0.203 -0.0478  0.8751  0.6293
  841TIP3    H223939   5.784   4.899   0.346  0.4290 -0.6521  0.7369
  842TIP3   OH223940   5.832   1.155   5.826 -0.5223 -0.3006  0.0109
  842TIP3    H123941   5.843   1.239   5.782  0.2275 -0.1813  0.4180
  842TIP3    H223942   5.774   1.105   5.769 -0.7037  0.3688 -0.3967
  843TIP3   OH223943   0.633   1.220   5.082 -0.8127  0.0480  0.6902
  843TIP3    H123944   0.633   1.294   5.142 -1.1404  0.3705  0.2964
  843TIP3    H223945   0.570   1.158   5.118  0.6944 -0.8104  1.9487
  844TIP3   OH223946   3.161   4.490   2.252 -0.3887  0.1887  0.6295
  844TIP3    H123947   3.111   4.408   2.248  1.6711 -1.1208  0.6596
  844TIP3    H223948   3.103   4.556   2.215 -1.3176 -1.7064 -1.3939
  845TIP3   OH223949   6.330   0.034   1.716  0.3335  0.2230  0.0339
  845TIP3    H123950   6.347   0.092   1.643  3.1708  0.5238  0.8827
  845TIP3    H223951   6.287   0.089   1.782  1.1733  0.8749  0.0430
  846TIP3   OH223952   5.016   2.693  13.219  0.1489 -0.3776  0.0902
  846TIP3    H123953   5.107   2.722  13.228  0.3026 -0.4346 -1.0914
  846TIP3    H223954   5.014   2.650  13.133 -1.2308  0.5910 -0.3858
  847TIP3   OH223955   2.340   1.467  14.034 -0.2513 -0.4437  0.0381
  847TIP3    H123956   2.430   1.499  14.045 -0.8364  0.8489  1.1673
  847TIP3    H223957   2.350   1.373  14.021  1.4256 -0.0376 -1.9998
  848TIP3   OH223958   2.915   1.856   3.110 -0.4352  0.6026  0.2090
  848TIP3    H123959   2.945   1.945   3.128 -1.8923  0.6202  2.8858
  848TIP3    H223960   2.824   1.866   3.082 -0.9106 -0.0673  1.4459
  849TIP3   OH223961   0.896   3.438   0.137  0.2221  0.0468 -0.1830
  849TIP3    H123962   0.826   3.410   0.195  0.4762 -0.4070 -0.0917
  849TIP3    H223963   0.938   3.357   0.108  0.8069  0.3168 -0.1181
  850TIP3   OH223964   2.693   5.686   2.457  0.1119 -0.1693 -0.4049
  850TIP3    H123965   2.646   5.629   2.396 -0.2537  0.5925 -0.8475
  850TIP3    H223966   2.765   5.723   2.406  0.0717  0.1224 -0.2544
  851TIP3   OH223967   0.261   4.175   0.941 -0.0663 -0.5053  0.0847
  851TIP3    H123968   0.355   4.183   0.957  0.2686 -2.5606 -0.7723
  851TIP3    H223969   0.221   4.221   1.015  1.5835 -0.7203  1.1519
  852TIP3   OH223970   1.261   3.594   4.942 -0.5520  0.6704  0.3817
  852TIP3    H123971   1.215   3.613   4.860  0.6016 -0.1890 -0.4862
  852TIP3    H223972   1.201   3.537   4.990 -0.3302 -0.6525 -0.8564
  853TIP3   OH223973   6.373   2.351  16.053  0.7774 -0.6168  0.4309
  853TIP3    H123974   6.383   2.436  16.096 -2.2973  0.0030 -0.0022
  853TIP3    H223975   6.428   2.357  15.974  2.4582  0.0467  1.6127
  854TIP3   OH223976   5.575   4.781  16.885  0.5601  0.5210  0.0537
  854TIP3    H123977   5.571   4.827  16.969  0.3676  0.1905  0.2247
  854TIP3    H223978   5.498   4.811  16.837  0.5521  0.5439  0.0809
  855TIP3   OH223979   3.080   4.995   6.078  0.3299 -0.1090 -0.5127
  855TIP3    H123980   3.003   5.040   6.111 -0.6324 -1.8007 -0.4227
  855TIP3    H223981   3.079   4.910   6.121  2.4729 -0.0249 -0.1966
  856TIP3   OH223982   1.041   4.653   1.204  0.8235  0.5091  0.2421
  856TIP3    H123983   1.124   4.606   1.217  0.2795 -0.4675  0.2263
  856TIP3    H223984   1.065   4.746   1.212  1.9795  0.2529 -0.1194
  857TIP3   OH223985   0.284   3.007  14.693 -0.0391  0.5809  0.3945
  857TIP3    H123986   0.226   3.067  14.740 -0.4513  0.6033 -0.1371
  857TIP3    H223987   0.277   2.924  14.740  0.0792  0.7854  0.7783
  858TIP3   OH223988   6.154   5.102  10.820  0.0122 -0.1068  0.4105
  858TIP3    H123989   6.216   5.121  10.890 -1.3113 -0.3914  1.6882
  858TIP3    H223990   6.193   5.142  10.742  1.6419 -0.0394  1.2454
  859TIP3   OH223991   5.753   2.898   3.892 -0.7117 -0.4654 -0.1374
  859TIP3    H123992   5.724   2.987   3.871 -0.4216 -0.4888 -0.6338
  859TIP3    H223993   5.704   2.876   3.971  0.8039  0.9405  1.2388
  860TIP3   OH223994   3.447   0.608  14.777 -0.0275 -0.2658 -0.0211
  860TIP3    H123995   3.471   0.699  14.790  2.3390 -0.7901 -0.4512
  860TIP3    H223996   3.495   0.581  14.698 -1.9307 -1.4565 -0.8296
  861TIP3   OH223997   3.260   2.204  11.141  0.3643 -0.2889  0.4183
  861TIP3    H123998   3.206   2.282  11.146 -0.0508 -0.6476  2.0782
  861TIP3    H223999   3.250   2.163  11.227  1.5110 -1.5345 -0.0215
  862TIP3   OH224000   3.204   4.310  14.180  0.0730 -0.4443  0.6024
  862TIP3    H124001   3.280   4.253  14.172  1.0560  0.8172  0.7359
  862TIP3    H224002   3.167   4.313  14.091  1.5223  0.7344  0.0192
  863TIP3   OH224003   5.025   1.795   0.384 -0.1072  0.0540 -0.3879
  863TIP3    H124004   4.954   1.789   0.320 -0.3064  0.1591 -0.1786
  863TIP3    H224005   5.017   1.714   0.436  0.0872 -0.0559 -0.5302
  864TIP3   OH224006   6.416   6.068   1.839  0.0988  0.0294 -0.1342
  864TIP3    H124007   6.493   6.049   1.892 -1.3647 -0.3883  1.9111
  864TIP3    H224008   6.355   6.110   1.900 -0.7875  1.5467 -2.0358
  865TIP3   OH224009   6.327   1.475   6.268  0.1419 -0.1467  0.4270
  865TIP3    H124010   6.253   1.428   6.307  0.6235 -0.3224  1.1574
  865TIP3    H224011   6.404   1.429   6.302  0.5662 -1.1658 -1.8445
  866TIP3   OH224012   1.901   6.163  13.671  0.0975 -0.2333  0.2711
  866TIP3    H124013   1.985   6.126  13.645  0.6013  0.7721  0.4394
  866TIP3    H224014   1.917   6.200  13.758 -0.5479 -0.1366  0.3529
  867TIP3   OH224015   3.812   4.165   4.770 -0.2158  0.6258 -0.0493
  867TIP3    H124016   3.799   4.155   4.676 -0.0685  0.2458 -0.0317
  867TIP3    H224017   3.907   4.162   4.782 -0.3013 -4.3333  0.6022
  868TIP3   OH224018   0.004   0.318   5.247  0.2531 -0.0192 -0.1607
  868TIP3    H124019   0.009   0.411   5.229 -0.2885 -0.2703 -1.7076
  868TIP3    H224020  -0.064   0.309   5.314  0.1071  0.6667 -0.2218
  869TIP3   OH224021   2.239   6.754  15.200  0.0706  0.1995  0.3954
  869TIP3    H124022   2.203   6.799  15.123 -1.0340  1.3241  1.5636
  869TIP3    H224023   2.256   6.824  15.263 -0.5745 -0.8927  1.7938
  870TIP3   OH224024   6.448   2.551  13.445  0.1849  0.0825  0.3208
  870TIP3    H124025   6.451   2.519  13.535  0.4222  0.5957  0.4935
  870TIP3    H224026   6.521   2.507  13.401  1.2162  1.2747  0.8451
  871TIP3   OH224027   4.715   6.608   2.474  0.3222  0.7315  0.0801
  871TIP3    H124028   4.648   6.633   2.411  0.6965 -0.7029 -0.8866
  871TIP3    H224029   4.681   6.529   2.516  0.7662  0.8075  0.5943
  872TIP3   OH224030   1.717   4.272  12.944  0.2734 -0.0348 -0.6549
  872TIP3    H124031   1.732   4.248  12.852  0.4717 -2.8732  0.0850
  872TIP3    H224032   1.784   4.225  12.993 -0.1643  1.0341  1.0099
  873TIP3   OH224033   0.984   1.037   5.389 -0.3525  0.4224  0.0130
  873TIP3    H124034   1.024   0.952   5.367 -1.5042  0.2750 -1.5677
  873TIP3    H224035   0.900   1.014   5.429  0.6675  0.7585  2.4161
  874TIP3   OH224036   4.689   6.016  14.955  0.0192  0.2311 -0.5978
  874TIP3    H124037   4.719   6.065  15.031 -3.9615 -2.2222  2.7733
  874TIP3    H224038   4.614   6.066  14.922 -0.7785 -0.7895 -0.3695
  875TIP3   OH224039   5.758   4.148   3.972  0.5671  0.4920 -0.7250
  875TIP3    H124040   5.800   4.221   4.018 -0.7759 -0.8052  2.7654
  875TIP3    H224041   5.711   4.189   3.899  0.9457  2.9523  0.3636
  876TIP3   OH224042   4.844   5.187   2.679  0.0546 -0.1027 -0.1325
  876TIP3    H124043   4.806   5.116   2.730 -1.2573  0.1319 -0.7544
  876TIP3    H224044   4.920   5.216   2.730 -0.7345 -0.4262  1.2511
  877TIP3   OH224045   3.436   0.326   1.400  0.5404  0.1491  0.0267
  877TIP3    H124046   3.443   0.402   1.458  0.8429  1.3135 -1.5013
  877TIP3    H224047   3.397   0.258   1.455  1.3423  1.0305  1.7582
  878TIP3   OH224048   4.118   6.279   6.458 -0.0910 -0.3002 -0.0399
  878TIP3    H124049   4.212   6.284   6.479  0.0762  0.8419 -0.9687
  878TIP3    H224050   4.098   6.366   6.423 -0.9530 -1.2891 -2.0688
  879TIP3   OH224051   5.312   4.989  16.246 -0.8341  0.2111  0.2139
  879TIP3    H124052   5.364   4.909  16.248 -1.1167  0.0295  0.2826
  879TIP3    H224053   5.303   5.010  16.153  1.5250  1.6539  0.2869
  880TIP3   OH224054   0.915   2.987  11.850  0.0838 -0.0507  0.5246
  880TIP3    H124055   0.873   3.069  11.877 -0.7158  0.1830 -1.3335
  880TIP3    H224056   0.842   2.925  11.842  0.3070 -0.1151 -1.0338
  881TIP3   OH224057   6.177   3.236   2.907 -0.0591  0.7182  0.2658
  881TIP3    H124058   6.150   3.328   2.906  0.7797  0.9789  1.1416
  881TIP3    H224059   6.257   3.234   2.855  0.0580  0.5155  0.4537
  882TIP3   OH224060   4.957   2.961   3.146  0.2692 -0.3313 -0.0451
  882TIP3    H124061   4.962   3.030   3.080  1.6278 -1.9864 -1.7282
  882TIP3    H224062   4.979   2.880   3.099  0.2232 -1.7084  2.1992
  883TIP3   OH224063   2.684   5.810   1.563 -0.2753 -0.5737 -0.0958
  883TIP3    H124064   2.683   5.716   1.582  2.2114 -0.4412  0.8020
  883TIP3    H224065   2.739   5.848   1.631  0.7476  1.2231 -1.8669
  884TIP3   OH224066   1.293   5.175   0.804 -0.3922 -0.3175 -0.3477
  884TIP3    H124067   1.280   5.121   0.727  2.6986 -1.1800 -0.3408
  884TIP3    H224068   1.345   5.250   0.773  0.6446 -0.5317  0.8220
  885TIP3   OH224069   0.422   0.659  13.164  0.5560 -0.1730 -0.3697
  885TIP3    H124070   0.439   0.732  13.223 -1.0606 -0.4362  0.4491
  885TIP3    H224071   0.509   0.628  13.138  1.2615  0.9786  0.5699
  886TIP3   OH224072   2.448   2.080   5.785  0.3438  0.2413  0.2464
  886TIP3    H124073   2.461   2.172   5.760  0.1865 -0.2076 -1.5906
  886TIP3    H224074   2.537   2.048   5.804  0.1925  1.2988  2.9569
  887TIP3   OH224075   4.539   4.077  16.096  0.3252  0.1289 -0.1420
  887TIP3    H124076   4.466   4.047  16.042 -0.0231  0.9753 -0.1480
  887TIP3    H224077   4.608   4.098  16.034  0.1300  0.5419 -0.2180
  888TIP3   OH224078   0.308   0.686   4.851 -0.6593 -0.1431  0.6092
  888TIP3    H124079   0.399   0.683   4.822 -0.3121 -0.9541  1.7627
  888TIP3    H224080   0.309   0.739   4.930 -1.5044  1.4904 -0.4457
  889TIP3   OH224081   0.076   4.750   4.907  0.2690 -0.0787  0.8847
  889TIP3    H124082   0.046   4.663   4.881  0.7197 -0.3897  1.3929
  889TIP3    H224083   0.003   4.808   4.886  0.1510 -0.5070  0.0897
  890TIP3   OH224084   2.170   2.010  11.551  0.2252 -0.5178 -0.1134
  890TIP3    H124085   2.167   1.928  11.502 -1.8237  0.0006 -0.9164
  890TIP3    H224086   2.167   2.078  11.483  0.7341  0.2140  0.5988
  891TIP3   OH224087   6.783   6.241   4.554  0.3836 -0.5268  0.5821
  891TIP3    H124088   6.746   6.309   4.498 -0.7729 -0.1049  1.8272
  891TIP3    H224089   6.799   6.168   4.495 -0.3302  0.0949 -0.4024
  892TIP3   OH224090   3.444   0.531   5.767  0.1283 -0.0245 -0.4179
  892TIP3    H124091   3.488   0.614   5.747 -0.3260 -0.2506 -2.5186
  892TIP3    H224092   3.489   0.467   5.712  0.2075 -1.1029  0.8925
  893TIP3   OH224093   2.677   4.694   0.393  0.4681  0.2390 -0.2190
  893TIP3    H124094   2.769   4.720   0.390  1.0369 -1.6895 -0.4881
  893TIP3    H224095   2.678   4.607   0.433 -1.3867  0.7694  1.0736
  894TIP3   OH224096   2.578   3.640   3.279  0.0909 -0.0543 -0.0420
  894TIP3    H124097   2.655   3.591   3.250  1.1245  0.3691  1.8788
  894TIP3    H224098   2.606   3.683   3.360 -2.2408 -0.1144  0.8498
  895TIP3   OH224099   3.663   1.018   0.638 -1.0359  0.3592  0.3244
  895TIP3    H124100   3.686   0.942   0.691 -1.5978 -1.7656 -2.3417
  895TIP3    H224101   3.747   1.058   0.615 -0.6846 -0.0765  0.8638
  896TIP3   OH224102   0.499   6.664   4.149  0.6410 -0.5560 -0.1733
  896TIP3    H124103   0.509   6.677   4.054 -1.8155  1.2589 -0.2169
  896TIP3    H224104   0.552   6.733   4.188 -0.2660  0.1917 -0.2573
  897TIP3   OH224105   3.192   4.600   6.299  0.4678  0.2325  0.4422
  897TIP3    H124106   3.258   4.601   6.369 -0.7629 -0.2696  1.6472
  897TIP3    H224107   3.230   4.543   6.232  1.1376 -0.3067  1.2573
  898TIP3   OH224108   1.220   3.471   6.341  0.2094  0.4992  0.4389
  898TIP3    H124109   1.291   3.467   6.277 -0.6862  0.5552 -0.5649
  898TIP3    H224110   1.177   3.554   6.324 -1.5179 -0.5561 -0.4907
  899TIP3   OH224111   2.832   3.684  11.648 -0.0975 -0.1853 -0.1064
  899TIP3    H124112   2.747   3.692  11.603 -0.6172 -0.2235  0.8627
  899TIP3    H224113   2.880   3.620  11.596  0.2246  1.5467 -2.0094
  900TIP3   OH224114   4.363   0.493   3.613 -0.1476 -0.0274  0.1157
  900TIP3    H124115   4.347   0.543   3.693 -0.2580 -1.7321  1.1915
  900TIP3    H224116   4.378   0.404   3.644  1.7112 -0.3592 -1.6223
  901TIP3   OH224117   5.981   1.575   5.228 -0.1799  0.6433  0.0755
  901TIP3    H124118   6.028   1.512   5.174 -0.6376  1.6095 -1.5041
  901TIP3    H224119   6.045   1.643   5.246 -0.2456  0.7052  0.0759
  902TIP3   OH224120   4.807   3.099   5.022  0.2456  0.2593 -0.4405
  902TIP3    H124121   4.788   3.155   5.097  0.4170  0.1352 -0.3041
  902TIP3    H224122   4.797   3.010   5.055 -2.4474  0.2200 -1.3024
  903TIP3   OH224123   3.125   0.685   3.626 -0.1118  0.1463 -0.4918
  903TIP3    H124124   3.052   0.693   3.687 -0.5852  2.1607 -1.3028
  903TIP3    H224125   3.085   0.687   3.539  0.5802 -2.4545 -0.9110
  904TIP3   OH224126   1.286   1.094  14.146 -0.5085 -0.0967  0.2066
  904TIP3    H124127   1.315   1.118  14.058  0.0451 -1.5004 -0.0096
  904TIP3    H224128   1.352   1.133  14.204 -0.8322  0.7656 -0.0135
  905TIP3   OH224129   0.219   6.646   2.412  0.1573  0.3194 -0.3822
  905TIP3    H124130   0.313   6.664   2.399  0.2975 -0.0730  0.0847
  905TIP3    H224131   0.175   6.720   2.370  0.6618  0.2329 -1.0885
  906TIP3   OH224132   0.481   2.222   1.336  0.4543 -0.5501  0.0926
  906TIP3    H124133   0.474   2.199   1.429  2.2425  0.9016  0.6329
  906TIP3    H224134   0.402   2.273   1.318  0.8623  0.5259  1.2597
  907TIP3   OH224135   1.601   2.453  13.485  0.1315  0.3064 -0.4869
  907TIP3    H124136   1.507   2.465  13.477  0.2956  1.6416 -0.6257
  907TIP3    H224137   1.623   2.485  13.572  0.3736 -0.5968 -0.2099
  908TIP3   OH224138   6.669   5.980  12.183 -0.4793 -0.0153 -0.0005
  908TIP3    H124139   6.731   6.011  12.249 -0.9658  0.6254  0.1552
  908TIP3    H224140   6.712   6.000  12.100 -0.5851  0.6850  0.1025
  909TIP3   OH224141   0.772   3.404   4.305  0.1249  0.0594 -0.0339
  909TIP3    H124142   0.824   3.481   4.280  0.0816  0.0634 -0.1113
  909TIP3    H224143   0.834   3.347   4.350  0.0340  0.3820  0.5044
  910TIP3   OH224144   5.688   0.042   3.140  0.1358  0.5079  0.2413
  910TIP3    H124145   5.780   0.058   3.117  0.4911 -0.5460  0.8543
  910TIP3    H224146   5.691  -0.036   3.196 -1.1336  0.4800  0.2876
  911TIP3   OH224147   2.373   3.044  16.342 -0.3192  0.3382  0.5962
  911TIP3    H124148   2.393   2.960  16.383  0.4247  0.4839  0.5429
  911TIP3    H224149   2.389   3.109  16.410  0.6158  0.5557  0.1742
  912TIP3   OH224150   3.323   2.502  12.225  0.4887 -0.1068  0.0586
  912TIP3    H124151   3.305   2.593  12.251 -1.5846 -0.0105 -1.6017
  912TIP3    H224152   3.237   2.460  12.222  1.1506 -1.4176 -1.7541
  913TIP3   OH224153   1.265   6.321   5.649 -0.1419 -0.0215 -0.2103
  913TIP3    H124154   1.349   6.363   5.667  0.2190 -0.3099 -1.2124
  913TIP3    H224155   1.245   6.273   5.730  1.3492 -1.1031 -0.4408
  914TIP3   OH224156   5.669   0.067  14.758  0.0502 -0.0357  0.0648
  914TIP3    H124157   5.656  -0.023  14.728  0.0272 -0.1885  0.5345
  914TIP3    H224158   5.737   0.061  14.824  0.5549  0.3935 -0.4154
  915TIP3   OH224159   4.678   5.153  13.136 -0.0555  0.3969  0.3550
  915TIP3    H124160   4.626   5.073  13.124  0.2723 -0.0828  1.9660
  915TIP3    H224161   4.627   5.222  13.094 -0.3112 -0.6682 -1.1252
  916TIP3   OH224162   6.131   5.440  12.780  0.2318 -0.4990 -0.5012
  916TIP3    H124163   6.153   5.479  12.695 -0.9979  0.1806 -0.5305
  916TIP3    H224164   6.194   5.369  12.791  2.1934  1.1957 -0.6696
  917TIP3   OH224165   4.721   1.278   2.521  0.4822  0.0158 -0.1849
  917TIP3    H124166   4.813   1.299   2.536  0.6435 -0.0774 -1.0731
  917TIP3    H224167   4.686   1.260   2.609  1.1791  0.5723  0.2093
  918TIP3   OH224168   5.304   3.004   1.152 -0.4841 -0.1327 -0.0357
  918TIP3    H124169   5.301   2.945   1.076 -0.4880 -0.4470  0.2063
  918TIP3    H224170   5.397   3.014   1.172 -0.5223 -0.8444  0.5278
  919TIP3   OH224171   1.610   3.069   5.311 -0.1754 -0.1269 -0.1441
  919TIP3    H124172   1.588   3.071   5.405 -0.4458  2.3876 -0.2146
  919TIP3    H224173   1.578   3.153   5.278  2.0308  0.0083 -2.0180
  920TIP3   OH224174   6.352   0.710  12.270  0.6300  0.3266 -0.5386
  920TIP3    H124175   6.269   0.753  12.253  0.9282  0.6443 -1.1804
  920TIP3    H224176   6.344   0.624  12.228 -0.1992 -0.5163  1.2631
  921TIP3   OH224177   0.672   6.201  11.209  0.5643 -0.4603  0.3422
  921TIP3    H124178   0.767   6.202  11.200  0.4812 -1.9688 -0.6967
  921TIP3    H224179   0.647   6.110  11.198 -1.2963  0.3286 -2.5376
  922TIP3   OH224180   3.903   0.449   1.426 -0.0556  0.1199 -0.0356
  922TIP3    H124181   3.839   0.382   1.402  3.0365 -1.9168 -3.1216
  922TIP3    H224182   3.954   0.409   1.497 -0.1856  0.4502  0.2429
  923TIP3   OH224183   0.141   5.226  13.111 -0.3303  0.3692 -0.2450
  923TIP3    H124184   0.114   5.223  13.019  1.4648 -1.4688 -0.7270
  923TIP3    H224185   0.061   5.205  13.160 -0.8299 -0.6499 -1.4708
  924TIP3   OH224186   0.752   1.619   5.384 -0.0288 -0.0130  0.1249
  924TIP3    H124187   0.824   1.680   5.372 -0.0143 -0.1470 -0.5097
  924TIP3    H224188   0.678   1.674   5.410  0.1395  0.2007  0.1512
  925TIP3   OH224189   0.208   4.975   0.242  0.1765 -0.2195  0.3421
  925TIP3    H124190   0.207   5.071   0.245 -1.2074 -0.1997 -0.1877
  925TIP3    H224191   0.137   4.953   0.182  1.6426 -1.5421 -0.9417
  926TIP3   OH224192   5.553   3.584  13.842  0.4411 -0.0837  0.3931
  926TIP3    H124193   5.643   3.615  13.855  0.5224  0.3568 -1.1752
  926TIP3    H224194   5.550   3.500  13.888  1.4722  0.2032  0.9909
  927TIP3   OH224195   0.271   0.314   4.053 -0.4409 -0.0590 -0.0176
  927TIP3    H124196   0.282   0.232   4.003 -2.1737  0.5082 -1.3809
  927TIP3    H224197   0.177   0.331   4.049 -0.4669  0.5475  2.6332
  928TIP3   OH224198   0.630   2.469   2.624  0.3796  0.2227  0.0369
  928TIP3    H124199   0.716   2.487   2.663  1.5509  0.6021 -2.5859
  928TIP3    H224200   0.601   2.554   2.589  0.7448 -0.6367 -2.4619
  929TIP3   OH224201   5.945   1.760   3.463 -0.0300  0.5984  0.0986
  929TIP3    H124202   5.871   1.817   3.483 -1.8440 -1.8330  0.5797
  929TIP3    H224203   5.986   1.742   3.548  0.6495  1.3200 -0.0736
  930TIP3   OH224204   1.924   1.101  15.865 -0.2106  0.4716 -0.3503
  930TIP3    H124205   1.969   1.027  15.825  0.4337  0.0662  1.0847
  930TIP3    H224206   1.990   1.170  15.870 -0.3841  0.6355 -0.2946
  931TIP3   OH224207   0.455   3.637   5.668 -0.1856 -0.1920  0.5607
  931TIP3    H124208   0.434   3.549   5.636  0.0281 -0.3374  0.8219
  931TIP3    H224209   0.403   3.696   5.613  0.7136 -0.4035 -0.5383
  932TIP3   OH224210   5.800   4.984   1.737 -0.3214 -0.8079 -0.0887
  932TIP3    H124211   5.740   4.952   1.803  0.2484  1.0171  1.3604
  932TIP3    H224212   5.878   4.928   1.746 -0.3341 -0.7131  0.6420
  933TIP3   OH224213   0.949   3.573   1.400  0.0755 -0.6243  0.0738
  933TIP3    H124214   0.872   3.545   1.449 -0.3944 -0.4804 -0.5944
  933TIP3    H224215   0.965   3.503   1.337  1.0325 -1.0912  0.8093
  934TIP3   OH224216   4.763   1.518   3.086 -0.3417  0.3258  0.7463
  934TIP3    H124217   4.829   1.557   3.143  2.3687 -0.3261 -1.8269
  934TIP3    H224218   4.709   1.465   3.144  1.8623  0.2481  2.7989
  935TIP3   OH224219   4.939   5.200  13.177  0.5625 -0.4757  0.1367
  935TIP3    H124220   4.855   5.224  13.138  1.7116 -0.2052 -2.2909
  935TIP3    H224221   5.002   5.211  13.105  2.4660 -1.9335  1.5439
  936TIP3   OH224222   5.523   0.128  13.261 -0.0132 -0.3494 -0.1488
  936TIP3    H124223   5.565   0.213  13.247  0.5505 -0.4940  0.6003
  936TIP3    H224224   5.430   0.144  13.244 -0.4029  1.2308  3.0342
  937TIP3   OH224225   5.882   2.923  11.925  0.1054  0.1445  0.4327
  937TIP3    H124226   5.947   2.904  11.856 -0.8380  2.5447 -1.1848
  937TIP3    H224227   5.840   2.839  11.942  0.3817 -0.5166 -1.9375
  938TIP3   OH224228   5.558   1.746   0.080  0.2590 -0.4085 -0.2246
  938TIP3    H124229   5.492   1.801   0.038 -1.0880 -2.0934 -0.3888
  938TIP3    H224230   5.586   1.796   0.157 -2.1443 -0.1810  0.5433
  939TIP3   OH224231   5.120   5.834  11.757  0.0131 -0.5598 -0.6676
  939TIP3    H124232   5.110   5.742  11.732  0.2801 -0.5659 -0.7578
  939TIP3    H224233   5.212   5.842  11.782  0.1656 -0.1544 -1.3325
  940TIP3   OH224234   4.679   0.276  14.204 -0.1427 -0.4846  0.1460
  940TIP3    H124235   4.671   0.244  14.294 -1.2053  0.1727  0.2896
  940TIP3    H224236   4.620   0.220  14.153  0.4248 -0.8294 -0.1385
  941TIP3   OH224237   3.255   0.856  14.121  0.7292  0.0462 -0.1175
  941TIP3    H124238   3.291   0.775  14.083  0.8838 -0.1467  0.4412
  941TIP3    H224239   3.179   0.876  14.066 -0.5858 -1.6396  1.0165
  942TIP3   OH224240   1.411   0.260   2.175  0.2842  0.2525  0.3262
  942TIP3    H124241   1.390   0.299   2.261  0.2948  0.7030  0.1292
  942TIP3    H224242   1.484   0.312   2.143  0.5711 -0.2050  0.2393
  943TIP3   OH224243   5.834   0.070   2.033 -0.6042  0.0128 -1.1468
  943TIP3    H124244   5.840   0.163   2.012 -2.1911  0.4796  0.4516
  943TIP3    H224245   5.741   0.052   2.040 -0.2879 -1.5530 -0.7102
  944TIP3   OH224246   5.542   0.275  11.201  0.1506 -0.1572 -0.5269
  944TIP3    H124247   5.453   0.300  11.226 -0.0448  0.2631 -1.6186
  944TIP3    H224248   5.567   0.340  11.135  0.6350 -1.2893 -1.4593
  945TIP3   OH224249   0.696   6.529  10.427 -0.1733 -0.2944 -0.5931
  945TIP3    H124250   0.723   6.560  10.340 -0.6441 -0.3261 -0.7525
  945TIP3    H224251   0.766   6.470  10.454 -0.1997 -0.5576 -1.1027
  946TIP3   OH224252   0.874   1.475  14.862  0.0916 -0.6120 -0.1363
  946TIP3    H124253   0.800   1.477  14.922 -1.0145 -3.5559 -1.2766
  946TIP3    H224254   0.836   1.453  14.777  2.0325 -0.1295 -1.1683
  947TIP3   OH224255   5.063   4.810  14.150  0.1088 -0.6244  0.1157
  947TIP3    H124256   5.032   4.864  14.223  0.0209  1.5637 -1.4913
  947TIP3    H224257   5.032   4.722  14.170  0.2915 -0.1071  2.8398
  948TIP3   OH224258   0.140   2.142   0.586  0.0282  0.1675 -0.0571
  948TIP3    H124259   0.183   2.153   0.671  1.4161  1.1235 -0.8638
  948TIP3    H224260   0.198   2.186   0.524 -0.1247 -1.9024 -1.7467
  949TIP3   OH224261   0.064   2.645  15.000 -0.3938 -0.2205 -0.0345
  949TIP3    H124262   0.044   2.552  15.009  0.8747 -0.7902 -2.4963
  949TIP3    H224263   0.023   2.686  15.076 -0.1467 -2.9023  1.6164
  950TIP3   OH224264   3.514   3.037  11.648  0.6843  0.3283  0.2153
  950TIP3    H124265   3.463   3.059  11.570  0.2273  0.2948  0.5017
  950TIP3    H224266   3.544   2.948  11.633 -0.2135 -0.0332  0.4986
  951TIP3   OH224267   6.003   4.142  12.348 -0.7586  0.2358 -0.3855
  951TIP3    H124268   6.054   4.213  12.309 -0.2901 -0.9735 -2.0067
  951TIP3    H224269   5.916   4.151  12.307 -1.0722  0.6287  0.3527
  952TIP3   OH224270   0.951   5.950  11.989 -0.0684  0.0416  0.1552
  952TIP3    H124271   0.917   6.008  11.920  0.8019  0.7779  0.3439
  952TIP3    H224272   0.916   5.864  11.966 -0.8328  0.5109 -0.4953
  953TIP3   OH224273   6.259   1.593   1.236 -0.4496  0.0290  0.3214
  953TIP3    H124274   6.244   1.558   1.324 -0.7524  1.0635  0.6939
  953TIP3    H224275   6.290   1.683   1.251  1.4294 -0.4391 -0.5721
  954TIP3   OH224276   3.579   6.667  16.282  0.1868  0.7811  0.3423
  954TIP3    H124277   3.644   6.601  16.304 -0.4883  0.1600  0.4811
  954TIP3    H224278   3.582   6.729  16.356  0.1236  0.3735  0.6874
  955TIP3   OH224279   6.675   5.800  13.235  0.1575  1.0286 -0.9474
  955TIP3    H124280   6.696   5.751  13.155  1.8905  0.0700  0.0454
  955TIP3    H224281   6.710   5.745  13.306  0.4517  2.8183  0.3245
  956TIP3   OH224282   4.388   4.465  11.442 -0.1058 -0.0986  0.5000
  956TIP3    H124283   4.444   4.517  11.384 -0.6002  0.4673  0.5276
  956TIP3    H224284   4.345   4.403  11.384 -0.4268  0.3179  0.2864
  957TIP3   OH224285   3.250   1.836  12.945 -0.1379 -0.4305 -0.0353
  957TIP3    H124286   3.330   1.890  12.942 -0.4482  0.0066 -0.5878
  957TIP3    H224287   3.237   1.810  12.854 -1.1248  0.2331 -0.0884
  958TIP3   OH224288   1.670   4.430  15.237 -0.2666  0.6459 -0.3167
  958TIP3    H124289   1.737   4.415  15.170  1.4711 -0.8083  1.7038
  958TIP3    H224290   1.597   4.374  15.210  0.3725  0.1469 -1.0292
  959TIP3   OH224291   1.265   5.065  17.063  0.2622  0.1830  0.3383
  959TIP3    H124292   1.312   5.144  17.036 -1.1639  1.2277  0.9028
  959TIP3    H224293   1.330   4.994  17.052  0.5779  0.9394 -3.2555
  960TIP3   OH224294   3.753   4.463  15.078 -0.2174  0.7348  0.5469
  960TIP3    H124295   3.759   4.369  15.096 -0.0600  1.2142  3.0996
  960TIP3    H224296   3.668   4.473  15.035  0.2325 -0.7051 -0.7146
  961TIP3   OH224297   5.155   2.894   2.058 -0.4243 -0.7280 -0.8731
  961TIP3    H124298   5.186   2.835   2.127 -1.3003 -1.2018 -0.8848
  961TIP3    H224299   5.203   2.866   1.980  0.1277 -0.5735 -0.5980
  962TIP3   OH224300   6.236   2.548  16.543  0.1178 -0.2463  0.2948
  962TIP3    H124301   6.241   2.629  16.492  0.2869  0.0459  0.7737
  962TIP3    H224302   6.185   2.489  16.488 -0.4702  0.3587  0.1694
  963TIP3   OH224303   0.835   1.284  10.595 -0.1656 -0.4580  0.0241
  963TIP3    H124304   0.775   1.349  10.630 -1.0798 -2.0714  1.5393
  963TIP3    H224305   0.894   1.334  10.539 -0.0131  1.8788  2.1633
  964TIP3   OH224306   1.545   2.183   0.183 -0.9044 -0.0343  0.0783
  964TIP3    H124307   1.556   2.189   0.088 -1.1775  0.3438  0.0688
  964TIP3    H224308   1.484   2.254   0.205 -0.7823 -0.0695  0.5469
  965TIP3   OH224309   5.142   4.106  11.702 -0.1626  0.1540 -0.0552
  965TIP3    H124310   5.126   4.070  11.789  0.1016  3.0023  1.1947
  965TIP3    H224311   5.059   4.148  11.678  0.4719  1.3165 -0.2272
  966TIP3   OH224312   3.242   3.424  13.499  0.2715  0.8298  0.3933
  966TIP3    H124313   3.275   3.421  13.589  1.1628  0.8696  0.0722
  966TIP3    H224314   3.316   3.455  13.447  0.1094 -0.2964 -0.5213
  967TIP3   OH224315   5.960   1.959   2.543  0.0337  0.3047  0.0334
  967TIP3    H124316   5.914   1.938   2.462 -1.1718 -0.8514  1.0027
  967TIP3    H224317   5.891   1.969   2.609  1.1578 -1.8620  1.6005
  968TIP3   OH224318   2.028   5.581   3.813 -0.1578  0.9910  0.0960
  968TIP3    H124319   1.974   5.537   3.747 -0.8976  0.5600  0.9717
  968TIP3    H224320   2.117   5.554   3.793 -0.4901 -0.0141 -0.0764
  969TIP3   OH224321   2.436   3.433  16.353  0.5254 -0.3236  0.4544
  969TIP3    H124322   2.525   3.425  16.386 -0.0980 -1.6877  1.8670
  969TIP3    H224323   2.441   3.500  16.284  2.2573  0.9963  1.8284
  970TIP3   OH224324   6.215   3.740  13.349  0.3356  0.4234  0.5142
  970TIP3    H124325   6.281   3.771  13.287  0.1738  1.1353  0.6972
  970TIP3    H224326   6.237   3.783  13.432  0.2532 -0.1378  0.8344
  971TIP3   OH224327   0.970   1.689  15.133 -0.1564  0.2224 -0.1974
  971TIP3    H124328   0.974   1.780  15.105  0.6965  0.4037  0.4839
  971TIP3    H224329   1.057   1.654  15.116 -0.1872 -0.1861  0.4611
  972TIP3   OH224330   4.287   0.124   2.764  0.2716 -0.4095 -0.4320
  972TIP3    H124331   4.340   0.145   2.841  0.0994  1.6940 -0.8724
  972TIP3    H224332   4.351   0.114   2.693  0.1596  1.1497 -0.7554
  973TIP3   OH224333   6.594   0.014   4.403 -0.2587 -0.3670  0.2767
  973TIP3    H124334   6.608   0.065   4.323  2.7215  0.0106  0.9757
  973TIP3    H224335   6.551   0.076   4.463 -1.4820 -0.3194 -0.6199
  974TIP3   OH224336   6.300   4.745   4.132  0.0570 -0.2397  0.2910
  974TIP3    H124337   6.225   4.786   4.088 -0.0472 -0.9054 -0.1692
  974TIP3    H224338   6.271   4.735   4.223 -0.7025 -1.1273 -0.0272
  975TIP3   OH224339   1.532   4.127  14.185 -0.3694  0.6624  0.4447
  975TIP3    H124340   1.471   4.200  14.187 -0.4562  0.6823 -1.7589
  975TIP3    H224341   1.511   4.075  14.262 -2.5913  1.1441  0.1826
  976TIP3   OH224342   6.234   2.923  14.624  0.9624  0.3465  0.2401
  976TIP3    H124343   6.302   2.980  14.588  1.8389 -0.5045  0.5407
  976TIP3    H224344   6.241   2.842  14.573  2.0732 -0.7909  2.1727
  977TIP3   OH224345   6.258   3.641  14.246 -0.0987  0.0624 -0.5758
  977TIP3    H124346   6.203   3.653  14.169 -1.0484 -1.2390 -0.1298
  977TIP3    H224347   6.220   3.699  14.312 -0.6517 -0.4456 -0.4324
  978TIP3   OH224348   3.874   0.804   1.618 -0.0940  0.0981  0.0454
  978TIP3    H124349   3.860   0.850   1.701 -1.1874  0.1742 -0.1777
  978TIP3    H224350   3.942   0.740   1.638  0.3260  0.7532  0.7591
  979TIP3   OH224351   3.507   4.766  15.072 -0.0441 -0.3462 -0.3326
  979TIP3    H124352   3.414   4.754  15.092 -0.0830 -1.4827 -1.1362
  979TIP3    H224353   3.522   4.715  14.992  1.0214  0.7693 -0.8686
  980TIP3   OH224354   2.711   2.744  16.338  0.1741  0.0759 -0.4763
  980TIP3    H124355   2.651   2.738  16.412  0.6232  1.8276  0.0481
  980TIP3    H224356   2.701   2.833  16.306  1.4056 -0.0721 -1.3069
  981TIP3   OH224357   0.844   3.675  12.923 -0.4013  0.5982 -0.6651
  981TIP3    H124358   0.875   3.761  12.952 -1.7192  0.0494  2.5678
  981TIP3    H224359   0.906   3.613  12.961 -1.1396 -0.0555 -0.5245
  982TIP3   OH224360   6.326   5.690   0.300  0.8299 -0.0465  0.1424
  982TIP3    H124361   6.296   5.632   0.230  2.9594 -1.2863  0.2426
  982TIP3    H224362   6.266   5.765   0.296  0.7301 -0.2384 -2.7958
  983TIP3   OH224363   4.987   3.759   0.738 -0.5882 -0.1495  0.0036
  983TIP3    H124364   4.909   3.759   0.794 -0.9391  1.1110 -0.4630
  983TIP3    H224365   5.019   3.849   0.742  0.7288 -0.6090  0.0109
  984TIP3   OH224366   0.755   5.092   0.227  0.5089 -0.5912 -0.2381
  984TIP3    H124367   0.668   5.062   0.204  0.8350 -2.6432  1.1127
  984TIP3    H224368   0.777   5.157   0.160 -2.1184  0.1057 -0.4561
  985TIP3   OH224369   6.409   1.942   0.606  0.0704 -0.3742 -0.5042
  985TIP3    H124370   6.478   1.923   0.670  0.0282  0.0781 -0.3248
  985TIP3    H224371   6.357   2.011   0.646  1.8890  2.1603 -2.3372
  986TIP3   OH224372   0.088   3.748   5.318 -0.1426 -0.0024 -0.1749
  986TIP3    H124373   0.135   3.817   5.271  0.5552  0.1372  0.7221
  986TIP3    H224374   0.142   3.670   5.306 -1.4020 -0.6432 -1.9836
  987TIP3   OH224375   6.287   1.782   3.466 -0.4826  0.1831 -0.2760
  987TIP3    H124376   6.271   1.810   3.376 -1.2871 -0.2680 -0.2766
  987TIP3    H224377   6.276   1.687   3.465 -0.1176  0.1262  0.2254
  988TIP3   OH224378   6.231   2.053   3.222 -0.2399  0.0099  0.3332
  988TIP3    H124379   6.201   2.045   3.313  2.7394  0.1020  1.3683
  988TIP3    H224380   6.320   2.089   3.229 -1.1513  3.1062 -2.7870
  989TIP3   OH224381   5.036   0.239  15.861 -0.0307  0.1156 -0.2583
  989TIP3    H124382   5.049   0.193  15.944 -0.9587 -1.5602 -1.0338
  989TIP3    H224383   5.029   0.170  15.796 -3.2604  1.2292 -1.2077
  990TIP3   OH224384   1.876   0.225  12.655  0.1194  0.2668 -0.2960
  990TIP3    H124385   1.928   0.247  12.578  0.7785 -1.9853 -0.5344
  990TIP3    H224386   1.842   0.137  12.637  0.6175 -0.4606  2.1362
  991TIP3   OH224387   0.431   6.782   2.344  0.1880  0.3624  0.4679
  991TIP3    H124388   0.487   6.858   2.358  0.8573  0.0630 -0.4880
  991TIP3    H224389   0.375   6.807   2.271  1.1789 -0.4504 -0.6016
  992TIP3   OH224390   1.118   4.132  14.767 -0.0059  0.2592 -0.7344
  992TIP3    H124391   1.028   4.161  14.785 -0.5990 -1.1845 -1.3416
  992TIP3    H224392   1.141   4.078  14.841 -0.4347 -1.1422 -1.6047
  993TIP3   OH224393   0.254   3.791   3.956 -0.5342 -0.3228 -0.3977
  993TIP3    H124394   0.228   3.699   3.966 -0.4892 -0.3042 -0.0847
  993TIP3    H224395   0.306   3.793   3.876 -0.1274 -0.6572 -0.1428
  994TIP3   OH224396   1.042   1.516   4.523 -0.0856  0.0913  0.2271
  994TIP3    H124397   1.049   1.608   4.549 -1.0417  0.4121 -0.6725
  994TIP3    H224398   0.982   1.478   4.587 -1.2682  0.5441 -0.6209
  995TIP3   OH224399   1.958   5.477   1.265 -0.2262 -0.1407 -0.0456
  995TIP3    H124400   1.934   5.496   1.355 -2.2295  0.9194 -0.7613
  995TIP3    H224401   2.031   5.535   1.246  2.0321 -2.3060  1.7052
  996TIP3   OH224402   3.945   1.240  11.349 -0.4403  0.1798 -0.4772
  996TIP3    H124403   3.936   1.334  11.329 -0.7598  0.1160 -0.6252
  996TIP3    H224404   3.917   1.233  11.440 -2.1570 -0.0573 -1.0061
  997TIP3   OH224405   0.046   4.693   5.788 -0.4069  0.3787  0.1278
  997TIP3    H124406  -0.040   4.660   5.759  0.1366 -0.4830 -0.5350
  997TIP3    H224407   0.031   4.722   5.878 -1.0816 -1.0786  0.5006
  998TIP3   OH224408   1.072   6.070   3.959  0.3884  0.4637 -0.4147
  998TIP3    H124409   1.055   5.977   3.970 -0.9636  0.6347 -0.9096
  998TIP3    H224410   1.165   6.080   3.976  0.7240 -1.1224 -1.2769
  999TIP3   OH224411   4.851   5.001   0.448  0.2192  0.4166 -0.1596
  999TIP3    H124412   4.910   4.926   0.445 -0.1807  0.1386 -1.1843
  999TIP3    H224413   4.856   5.032   0.539  1.3776 -0.0430 -0.0616
 1000TIP3   OH224414   1.672   3.814   5.511 -0.2624 -0.2931  0.1592
 1000TIP3    H124415   1.739   3.784   5.574  2.1080 -0.8689 -2.5439
 1000TIP3    H224416   1.635   3.734   5.475 -0.5464  0.0311 -0.2690
 1001TIP3   OH224417   3.534   5.844   2.714 -0.2301  0.3904 -0.3847
 1001TIP3    H124418   3.460   5.903   2.702 -0.3750  0.3613  0.3129
 1001TIP3    H224419   3.499   5.773   2.768  0.7595  1.3236  1.5706
 1002TIP3   OH224420   5.755   5.124  15.902 -0.3151  0.5568  0.2834
 1002TIP3    H124421   5.800   5.040  15.909  2.7029  2.1470  0.7000
 1002TIP3    H224422   5.702   5.116  15.823 -1.1268 -2.2080  1.0783
 1003TIP3   OH224423   0.975   4.717  16.639  0.1701  0.4554  0.9467
 1003TIP3    H124424   1.054   4.736  16.691  0.7936 -0.2356  0.2593
 1003TIP3    H224425   1.003   4.651  16.577 -1.1554 -0.3325  1.1761
 1004TIP3   OH224426   0.333   6.417   2.323 -0.1618 -0.0573 -0.1344
 1004TIP3    H124427   0.296   6.495   2.363 -1.1353  0.2822 -1.6537
 1004TIP3    H224428   0.387   6.450   2.251 -0.3600 -0.7645 -0.6150
 1005TIP3   OH224429   3.901   2.489  13.770  0.1506 -0.3108 -0.4757
 1005TIP3    H124430   3.842   2.414  13.769  1.0502 -1.0317 -0.3431
 1005TIP3    H224431   3.965   2.470  13.702  1.5410 -0.6203  0.8978
 1006TIP3   OH224432   0.213   6.096   2.148  0.3771 -0.2818  0.2059
 1006TIP3    H124433   0.198   6.018   2.094  0.6341 -0.4907  0.4324
 1006TIP3    H224434   0.303   6.123   2.128 -0.4920  1.3654 -1.6538
 1007TIP3   OH224435   1.916   1.309  16.846 -0.5831  0.0125 -0.4906
 1007TIP3    H124436   1.943   1.381  16.904 -1.4216 -1.6117  2.0114
 1007TIP3    H224437   1.833   1.338  16.808  0.5078  1.5515 -1.7683
 1008TIP3   OH224438   0.394   0.533  11.481  0.4382  0.3584 -0.4244
 1008TIP3    H124439   0.377   0.505  11.391 -0.1630 -2.0194  0.4056
 1008TIP3    H224440   0.328   0.600  11.498 -1.8759 -1.8233 -0.5447
 1009TIP3   OH224441   2.703   0.551   5.470 -0.2620  0.4836  0.6585
 1009TIP3    H124442   2.620   0.554   5.517 -0.5063 -0.9233  0.3238
 1009TIP3    H224443   2.704   0.632   5.418 -2.7110 -0.8248 -1.5218
 1010TIP3   OH224444   4.083   5.695  15.948  0.0110 -0.3187  0.1777
 1010TIP3    H124445   4.001   5.676  15.994 -0.0661 -0.9146 -0.1919
 1010TIP3    H224446   4.136   5.617  15.959  1.1862  0.6710  1.7666
 1011TIP3   OH224447   6.018   4.024  10.248  0.0789 -0.0396 -0.4038
 1011TIP3    H124448   6.032   3.975  10.329  1.5745 -0.7734 -1.0930
 1011TIP3    H224449   6.105   4.046  10.217 -0.5247  1.5391 -1.0445
 1012TIP3   OH224450   2.768   2.727   3.798 -0.3585 -0.0065 -0.4404
 1012TIP3    H124451   2.685   2.710   3.754 -0.8736  1.1520  0.0618
 1012TIP3    H224452   2.748   2.797   3.860  0.4403 -1.3370  1.3552
 1013TIP3   OH224453   4.345   0.189   4.226 -0.4209  0.0623 -0.4621
 1013TIP3    H124454   4.252   0.209   4.228 -0.4167  0.2565 -1.5954
 1013TIP3    H224455   4.382   0.253   4.164  0.6032  0.5408  0.6157
 1014TIP3   OH224456   6.085   4.210   4.077 -0.4039 -0.3985  0.5272
 1014TIP3    H124457   6.102   4.192   4.169 -0.8432 -0.8908  0.5156
 1014TIP3    H224458   6.023   4.142   4.050 -0.3076 -0.2356 -0.1216
 1015TIP3   OH224459   2.002   6.200  14.169 -0.8452 -0.1110 -0.3615
 1015TIP3    H124460   1.942   6.135  14.205  0.2905 -0.9025  0.1231
 1015TIP3    H224461   2.008   6.267  14.238  2.0905 -2.1007  1.4342
 1016TIP3   OH224462   6.098   2.387  15.457  0.3600 -0.8104 -0.0067
 1016TIP3    H124463   6.056   2.363  15.540 -1.7074 -0.1595 -0.8375
 1016TIP3    H224464   6.084   2.311  15.401  1.8647 -1.2978  0.2545
 1017TIP3   OH224465   2.909   5.287   0.116  0.0637 -0.1380 -0.1782
 1017TIP3    H124466   2.857   5.356   0.156 -0.2768 -1.2856  1.4324
 1017TIP3    H224467   2.890   5.292   0.023 -1.5731  0.5857  0.1908
 1018TIP3   OH224468   4.408   3.523  12.417 -0.2291  0.0916 -0.4503
 1018TIP3    H124469   4.467   3.478  12.356 -1.1712  0.3263 -1.5570
 1018TIP3    H224470   4.344   3.456  12.442 -0.1393  0.1347 -0.1039
 1019TIP3   OH224471   4.252   1.493   0.377 -0.2638  0.5316 -0.0400
 1019TIP3    H124472   4.158   1.472   0.377 -0.7962  2.7316 -0.1042
 1019TIP3    H224473   4.296   1.408   0.376 -2.2611 -0.5324 -0.3872
 1020TIP3   OH224474   0.093   3.452  15.180  0.2278  0.4493 -0.2609
 1020TIP3    H124475   0.129   3.481  15.096 -0.4391 -1.2789 -1.1879
 1020TIP3    H224476  -0.002   3.448  15.165  0.1156  0.0602  0.5409
 1021TIP3   OH224477   6.750   6.777  12.084  0.1272  0.4853  0.3885
 1021TIP3    H124478   6.751   6.735  12.170 -0.1626  0.3375  0.3198
 1021TIP3    H224479   6.749   6.870  12.103  0.7482  0.4623  0.5454
 1022TIP3   OH224480   4.244   5.650   3.669 -0.4397  0.3003  0.3086
 1022TIP3    H124481   4.201   5.686   3.747 -0.7790 -0.3589  0.4350
 1022TIP3    H224482   4.333   5.685   3.672 -0.3877  0.1121  1.1125
 1023TIP3   OH224483   4.257   6.319   0.876  0.3032  0.0959 -0.4057
 1023TIP3    H124484   4.336   6.372   0.879  0.6036 -0.3855  0.4311
 1023TIP3    H224485   4.189   6.379   0.846  0.6618  0.9294  0.3958
 1024TIP3   OH224486   4.458   2.044  13.624  0.1313 -0.5812  0.0965
 1024TIP3    H124487   4.537   2.025  13.676  0.9501 -1.5241 -1.4327
 1024TIP3    H224488   4.400   1.970  13.641  0.1439 -0.5716  0.1802
 1025TIP3   OH224489   1.690   3.497   0.905  0.3719  0.0997  0.1256
 1025TIP3    H124490   1.775   3.540   0.896  0.1060  1.1384  2.1525
 1025TIP3    H224491   1.626   3.565   0.884  0.0133 -0.3862 -0.3725
 1026TIP3   OH224492   6.164   4.464  13.183  0.2026 -0.2861 -0.0341
 1026TIP3    H124493   6.254   4.435  13.173 -0.5048 -2.0557 -1.7577
 1026TIP3    H224494   6.113   4.402  13.130 -1.6214  2.7909 -2.0843
 1027TIP3   OH224495   0.140   0.097   4.748  0.0483  0.3595 -0.4295
 1027TIP3    H124496   0.102   0.176   4.711  0.6084  1.1058  0.5418
 1027TIP3    H224497   0.116   0.100   4.840 -0.5866 -1.0126 -0.5469
 1028TIP3   OH224498   0.285   3.665  16.860 -0.6201 -0.0767 -0.3079
 1028TIP3    H124499   0.253   3.708  16.782 -0.3801  1.9031  0.6610
 1028TIP3    H224500   0.283   3.571  16.839 -0.1524  0.4503 -2.8051
 1029TIP3   OH224501   2.151   3.885  11.318 -0.3365  0.5711  0.2219
 1029TIP3    H124502   2.207   3.906  11.393  2.0593 -1.6040 -0.8936
 1029TIP3    H224503   2.210   3.883  11.243 -2.8667  3.8173 -2.0213
 1030TIP3   OH224504   4.988   4.348   0.430 -0.3008  0.1137  0.3340
 1030TIP3    H124505   5.054   4.364   0.497 -0.5010  2.7827 -0.0400
 1030TIP3    H224506   5.034   4.297   0.363  1.7112  2.7050 -0.3555
 1031TIP3   OH224507   4.383   1.264  13.191  0.6637  0.0546  0.2293
 1031TIP3    H124508   4.402   1.219  13.109 -0.2126  0.0542  0.0170
 1031TIP3    H224509   4.297   1.304  13.177  0.1649 -0.5856  1.4140
 1032TIP3   OH224510   1.396   2.509   5.037 -0.2095 -0.1691  0.1899
 1032TIP3    H124511   1.337   2.564   4.986  0.9187  1.3515  0.4653
 1032TIP3    H224512   1.394   2.424   4.993 -0.3654  0.7016 -1.5380
 1033TIP3   OH224513   1.721   6.306   3.164 -0.9872  0.3864 -0.2231
 1033TIP3    H124514   1.802   6.297   3.214 -1.9260  2.5002  1.7530
 1033TIP3    H224515   1.728   6.391   3.121 -1.6259  0.0297 -1.0458
 1034TIP3   OH224516   2.840   6.429  12.152  0.5958  0.1636 -0.1798
 1034TIP3    H124517   2.894   6.443  12.074  1.1571  0.4127  0.2552
 1034TIP3    H224518   2.756   6.470  12.130  1.0549  1.0464 -0.2951
 1035TIP3   OH224519   4.996   2.501  12.732  0.1897 -0.3910  0.3151
 1035TIP3    H124520   4.939   2.450  12.674  0.1215  0.3635 -0.2814
 1035TIP3    H224521   5.037   2.566  12.675 -0.2918  0.7083  1.2104
 1036TIP3   OH224522   5.883   2.886  11.009  0.3813  0.2852 -0.4107
 1036TIP3    H124523   5.922   2.808  11.048 -0.1361  0.4517  0.4516
 1036TIP3    H224524   5.845   2.933  11.083  0.3554  1.1607 -0.9787
 1037TIP3   OH224525   3.329   0.548  16.933 -0.0760  0.0952 -0.8630
 1037TIP3    H124526   3.315   0.570  17.025 -0.8167 -0.6595 -0.7828
 1037TIP3    H224527   3.259   0.594  16.886  0.7896  1.1318 -1.1409
 1038TIP3   OH224528   2.401   5.135   2.593 -0.4984 -0.0439 -0.1483
 1038TIP3    H124529   2.329   5.159   2.652 -0.2972 -1.3180  0.6516
 1038TIP3    H224530   2.474   5.118   2.652  0.1903  0.3078 -0.8968
 1039TIP3   OH224531   0.989   5.863  10.482  0.3146 -0.3390 -0.3058
 1039TIP3    H124532   1.065   5.897  10.436 -0.3840 -1.7641 -2.6025
 1039TIP3    H224533   0.923   5.931  10.475  0.3597 -0.3729 -1.0193
 1040TIP3   OH224534   0.175   4.034  12.442 -0.4248  0.1772  0.2889
 1040TIP3    H124535   0.155   3.944  12.414 -1.5618 -0.2219  2.2374
 1040TIP3    H224536   0.261   4.027  12.484 -1.2736 -0.3742  1.9875
 1041TIP3   OH224537   0.003   3.074  16.797 -0.5973  0.4425  0.6794
 1041TIP3    H124538   0.049   3.158  16.791 -2.7589  1.9189  3.3622
 1041TIP3    H224539   0.070   3.012  16.826  0.5096  1.7584  0.9917
 1042TIP3   OH224540   5.261   1.739   3.607 -0.1024 -0.2848 -0.0050
 1042TIP3    H124541   5.307   1.657   3.591 -2.3790 -1.6753  0.3360
 1042TIP3    H224542   5.323   1.791   3.658  1.7523 -1.3759 -1.0676
 1043TIP3   OH224543   2.911   0.504  12.598  0.2538  0.2272 -0.4244
 1043TIP3    H124544   2.821   0.490  12.571  0.0672  1.9790 -0.8130
 1043TIP3    H224545   2.904   0.540  12.687  0.5630  0.2292 -0.3990
 1044TIP3   OH224546   3.150   2.475  16.916 -0.1610 -0.1973 -0.0989
 1044TIP3    H124547   3.228   2.531  16.919  1.6600 -2.6791  1.0106
 1044TIP3    H224548   3.083   2.524  16.963  0.7810  1.8619 -0.8315
 1045TIP3   OH224549   4.366   5.824  12.244 -0.7508  0.2258 -0.2256
 1045TIP3    H124550   4.297   5.773  12.287  0.2559 -0.2373  0.8840
 1045TIP3    H224551   4.345   5.915  12.264 -0.3313  0.0215  1.2339
 1046TIP3   OH224552   0.687   4.391  12.447 -0.0087 -0.3995  0.3684
 1046TIP3    H124553   0.635   4.330  12.395 -1.4142 -0.8418  2.2173
 1046TIP3    H224554   0.725   4.336  12.516  0.2277  0.5000  0.9594
 1047TIP3   OH224555   6.325   1.724  16.620  0.2076 -0.3936 -0.4071
 1047TIP3    H124556   6.402   1.744  16.672  1.9352 -1.6451 -2.4274
 1047TIP3    H224557   6.329   1.629  16.606 -1.8611 -0.5283 -0.3096
 1048TIP3   OH224558   4.840   0.231   0.029 -0.3312 -0.1132 -0.1615
 1048TIP3    H124559   4.829   0.277  -0.054  3.3464  0.7146 -0.2645
 1048TIP3    H224560   4.841   0.139   0.006 -0.1806  0.0817 -0.9408
 1049TIP3   OH224561   6.025   0.817  15.653  0.5455  0.4604  0.1944
 1049TIP3    H124562   6.048   0.757  15.724  0.0297  0.3170  0.2430
 1049TIP3    H224563   5.982   0.762  15.588 -1.2783  1.0004  0.8921
 1050TIP3   OH224564   5.593   4.639  16.003 -0.5409  0.1264  0.6234
 1050TIP3    H124565   5.578   4.544  16.004 -2.3030  0.3642 -0.6103
 1050TIP3    H224566   5.546   4.669  15.926  1.8176  1.7377 -0.2374
 1051TIP3   OH224567   2.117   5.582  16.379 -0.3395  0.2230 -0.0179
 1051TIP3    H124568   2.192   5.557  16.325 -0.2058 -0.7601  0.6148
 1051TIP3    H224569   2.141   5.668  16.414  0.1576  0.2601 -0.4423
 1052TIP3   OH224570   4.245   0.644  11.689 -0.0423 -0.0286 -0.1773
 1052TIP3    H124571   4.290   0.716  11.733  1.4133 -1.0905  0.1029
 1052TIP3    H224572   4.172   0.686  11.643 -0.3853  1.3521  1.5960
 1053TIP3   OH224573   5.353   6.566  14.012  0.0224  0.6307 -0.1975
 1053TIP3    H124574   5.312   6.510  13.946  1.6747 -0.3394 -0.4260
 1053TIP3    H224575   5.320   6.654  13.994 -2.5531 -0.2293  0.1135
 1054TIP3   OH224576   6.499   1.328   2.804 -0.0150 -0.4029  0.2220
 1054TIP3    H124577   6.478   1.386   2.877  0.7042  2.6897 -1.9498
 1054TIP3    H224578   6.444   1.359   2.732  0.7847 -2.0762 -1.1496
 1055TIP3   OH224579   6.406   2.051  13.478  0.5504 -0.3163  0.3092
 1055TIP3    H124580   6.319   2.092  13.486  0.5590  0.2595 -1.9576
 1055TIP3    H224581   6.404   1.978  13.539 -1.8411 -0.7760 -0.2390
 1056TIP3   OH224582   4.566   0.505   5.365  0.2170  0.1620  0.4368
 1056TIP3    H124583   4.597   0.415   5.366 -2.0175 -0.6284  1.0104
 1056TIP3    H224584   4.554   0.525   5.272 -0.9460 -0.7376  0.3836
 1057TIP3   OH224585   4.529   4.412  14.226 -0.0649  0.2067 -0.4004
 1057TIP3    H124586   4.545   4.473  14.298  0.1126  0.3163 -0.5333
 1057TIP3    H224587   4.615   4.377  14.205  0.1099  1.3263 -1.5839
 1058TIP3   OH224588   3.141   6.170   3.010 -0.5949  0.0055  1.1665
 1058TIP3    H124589   3.072   6.202   3.068 -0.8386  1.3277  0.1548
 1058TIP3    H224590   3.104   6.090   2.971 -1.4369  0.5532  0.8406
 1059TIP3   OH224591   4.720   3.822   1.311 -0.6644 -0.3779  0.1998
 1059TIP3    H124592   4.736   3.752   1.248 -3.1521 -1.3294  0.5835
 1059TIP3    H224593   4.636   3.860   1.284 -1.0190  0.1732  2.0406
 1060TIP3   OH224594   1.621   2.584  14.550  0.4441  0.6122 -0.3539
 1060TIP3    H124595   1.690   2.518  14.546  0.8640  0.9343  1.1017
 1060TIP3    H224596   1.621   2.625  14.464  1.0084 -0.4596 -0.8706
 1061TIP3   OH224597   5.809   1.449  13.519 -0.3201  0.5316  0.7554
 1061TIP3    H124598   5.736   1.467  13.577 -0.1284 -2.5612  2.0474
 1061TIP3    H224599   5.822   1.354  13.525  0.8527  0.3626 -2.9757
 1062TIP3   OH224600   2.557   1.698   1.460  0.1505  0.1489  0.5667
 1062TIP3    H124601   2.526   1.760   1.526 -0.4758  1.6496 -1.0923
 1062TIP3    H224602   2.638   1.737   1.427 -1.3530  1.2112 -1.9840
 1063TIP3   OH224603   3.255   5.656  12.936 -0.4129 -0.2161  0.1167
 1063TIP3    H124604   3.208   5.740  12.935  0.8071  0.5239  2.4155
 1063TIP3    H224605   3.203   5.599  12.880 -2.0651  1.6481 -0.2961
 1064TIP3   OH224606   0.567   4.925   6.308 -0.1869 -0.0973 -0.4705
 1064TIP3    H124607   0.603   4.971   6.384 -1.6093  0.8603 -0.3610
 1064TIP3    H224608   0.550   4.837   6.340  0.2456 -0.0065  0.0261
 1065TIP3   OH224609   5.870   3.243   6.409  0.0242 -0.0171 -0.2429
 1065TIP3    H124610   5.854   3.154   6.377 -0.7739  0.3407 -0.8414
 1065TIP3    H224611   5.953   3.269   6.369  0.6372 -0.7526  0.5083
 1066TIP3   OH224612   0.993   5.696   6.404  0.0840  0.1284  0.0989
 1066TIP3    H124613   1.010   5.653   6.488  0.4572 -1.3616 -0.7278
 1066TIP3    H224614   1.024   5.634   6.338 -0.3050  1.2376 -1.1510
 1067TIP3   OH224615   4.960   6.146   5.225 -0.3681 -0.3187 -0.0450
 1067TIP3    H124616   4.968   6.169   5.132  0.3242 -0.8285 -0.1115
 1067TIP3    H224617   5.035   6.188   5.266  0.4857 -1.8289 -0.0454
 1068TIP3   OH224618   6.590   6.007   0.533 -0.6990 -0.3142  0.6958
 1068TIP3    H124619   6.580   6.048   0.447 -0.0188  1.4752  1.4365
 1068TIP3    H224620   6.502   5.979   0.557 -0.8325 -1.1321 -0.7248
 1069TIP3   OH224621   1.325   3.570   0.545 -0.1461  0.2400 -0.7149
 1069TIP3    H124622   1.354   3.659   0.524 -1.6398  0.8963 -0.0081
 1069TIP3    H224623   1.323   3.526   0.460  1.6099  0.5576 -0.9498
 1070TIP3   OH224624   2.020   0.297  12.436 -0.2061  0.4064 -0.1907
 1070TIP3    H124625   2.012   0.222  12.378 -0.7140  1.9082 -2.1403
 1070TIP3    H224626   2.105   0.336  12.413  0.4632 -0.0600  1.4260
 1071TIP3   OH224627   4.715   4.943  11.305 -0.1906 -0.1229  0.1054
 1071TIP3    H124628   4.739   4.864  11.256 -2.4763 -0.5770 -0.3197
 1071TIP3    H224629   4.643   4.915  11.362 -0.8541  1.5864  0.1258
 1072TIP3   OH224630   4.191   3.425   4.684 -0.5645 -0.2567 -0.5199
 1072TIP3    H124631   4.183   3.501   4.741 -1.5772  0.5944 -1.7721
 1072TIP3    H224632   4.158   3.352   4.736 -2.1832  0.6329 -0.2512
 1073TIP3   OH224633   2.704   5.816  11.458 -0.0778  0.1458  0.2050
 1073TIP3    H124634   2.673   5.877  11.391 -0.3507  0.0948  0.2863
 1073TIP3    H224635   2.634   5.752  11.466 -0.9633  1.3015  2.0081
 1074TIP3   OH224636   3.929   2.570   6.735 -0.2817 -0.0390  0.0921
 1074TIP3    H124637   3.923   2.477   6.756  0.2744 -0.4869 -1.6738
 1074TIP3    H224638   3.864   2.583   6.666  0.9265  0.4935 -0.9501
 1075TIP3   OH224639   3.560   0.147  15.789 -0.2495  0.4896 -0.4305
 1075TIP3    H124640   3.493   0.113  15.729 -0.5014  0.6694 -0.2542
 1075TIP3    H224641   3.590   0.228  15.747  0.4819 -0.0347 -0.9403
 1076TIP3   OH224642   4.893   4.579  10.871 -0.6016 -0.5751  0.1001
 1076TIP3    H124643   4.812   4.562  10.823 -0.4869  2.2909 -1.2252
 1076TIP3    H224644   4.963   4.551  10.811 -0.5200  0.7481 -0.4319
 1077TIP3   OH224645   4.407   5.307   5.449  0.1098  0.4695  0.0901
 1077TIP3    H124646   4.450   5.389   5.424  1.0621 -0.1575 -0.3310
 1077TIP3    H224647   4.347   5.289   5.377  0.0818  0.6634  0.0633
 1078TIP3   OH224648   0.050   6.716  13.964  0.1833 -0.5744 -0.7085
 1078TIP3    H124649   0.144   6.702  13.960  0.0930 -1.4866  0.1761
 1078TIP3    H224650   0.029   6.764  13.884  1.4651  0.0468 -0.6816
 1079TIP3   OH224651   1.821   6.587   0.994  0.1418 -0.3408  0.1859
 1079TIP3    H124652   1.916   6.586   0.979  0.1573  1.0477  0.0797
 1079TIP3    H224653   1.783   6.599   0.907  0.0216  2.4129  0.5672
 1080TIP3   OH224654   4.300   2.041  14.201 -0.1510 -0.4778  0.4054
 1080TIP3    H124655   4.269   2.087  14.279  0.8432  0.5023  0.2208
 1080TIP3    H224656   4.221   2.027  14.149 -0.4028  1.3946  0.2660
 1081TIP3   OH224657   5.753   1.097  12.300  0.4837 -0.0934  0.2401
 1081TIP3    H124658   5.789   1.174  12.344  1.0174 -0.0885 -0.1980
 1081TIP3    H224659   5.663   1.121  12.280 -0.0139 -0.3726  2.0010
 1082TIP3   OH224660   6.549   1.310   6.022  0.2264 -0.2359 -0.2458
 1082TIP3    H124661   6.514   1.362   6.095 -0.1267 -0.4844 -0.2424
 1082TIP3    H224662   6.539   1.367   5.946  2.1347  0.7128  0.1521
 1083TIP3   OH224663   5.678   1.574  15.595 -0.2415  0.0538  0.2754
 1083TIP3    H124664   5.740   1.643  15.620 -0.8497  0.9852 -0.7344
 1083TIP3    H224665   5.696   1.558  15.503 -2.4631  1.3571 -0.4076
 1084TIP3   OH224666   0.995   5.089  17.140 -0.5063 -0.4213  0.0819
 1084TIP3    H124667   0.970   5.036  17.064 -1.6160 -1.1989  0.9842
 1084TIP3    H224668   1.090   5.099  17.131 -0.5993 -0.6607 -1.3081
 1085TIP3   OH224669   6.306   2.095   3.809 -0.5811  0.5496  0.1404
 1085TIP3    H124670   6.303   2.004   3.779  1.8447  0.1295  1.0998
 1085TIP3    H224671   6.241   2.099   3.880 -0.4754 -0.5023  0.3037
 1086TIP3   OH224672   2.568   1.846   4.192  0.0617 -0.0564  1.0510
 1086TIP3    H124673   2.519   1.825   4.271  0.9230 -0.4945  1.4853
 1086TIP3    H224674   2.546   1.937   4.173 -3.3901 -1.1515 -0.5824
 1087TIP3   OH224675   5.939   0.566   0.215 -0.1959 -0.0042 -0.6461
 1087TIP3    H124676   5.915   0.643   0.164  1.4898  0.1710 -1.1827
 1087TIP3    H224677   5.924   0.592   0.306 -2.1759  0.0370 -0.9624
 1088TIP3   OH224678   0.016   2.482  16.975  0.3617  0.3301  0.1018
 1088TIP3    H124679   0.108   2.507  16.972  0.1231  1.2578  0.2022
 1088TIP3    H224680   0.017   2.388  16.995  1.3098 -0.0911 -1.8045
 1089TIP3   OH224681   4.531   2.569  10.634 -0.4184  0.1096 -0.0758
 1089TIP3    H124682   4.446   2.526  10.627  0.5394 -2.2666  1.8574
 1089TIP3    H224683   4.560   2.550  10.724  1.3472  2.3928 -0.1063
 1090TIP3   OH224684   1.043   3.418   4.090  0.1475 -0.0061  0.1639
 1090TIP3    H124685   0.990   3.491   4.060 -0.0609  0.4205  1.5438
 1090TIP3    H224686   1.117   3.459   4.135 -0.4068 -0.6328  1.6809
 1091TIP3   OH224687   4.681   6.450   2.886 -0.7217  0.3190 -0.0525
 1091TIP3    H124688   4.727   6.502   2.952  0.2704 -1.2690  0.5278
 1091TIP3    H224689   4.654   6.514   2.820 -0.1407  1.6678  0.9998
 1092TIP3   OH224690   6.457   0.405   5.054 -0.6097  0.3741  0.4887
 1092TIP3    H124691   6.396   0.338   5.086  0.0865 -0.0609  0.9084
 1092TIP3    H224692   6.437   0.482   5.107 -0.4774  0.0959  0.9455
 1093TIP3   OH224693   0.205   5.392  12.269  0.7355 -0.3095 -0.7932
 1093TIP3    H124694   0.237   5.305  12.297 -0.9810 -1.1094 -1.2810
 1093TIP3    H224695   0.129   5.408  12.325  1.1688  0.9924 -0.5665
 1094TIP3   OH224696   2.527   3.864  13.433 -0.1383 -0.6031  0.4353
 1094TIP3    H124697   2.444   3.899  13.400  1.0995  1.4579 -0.6021
 1094TIP3    H224698   2.594   3.908  13.381  1.6904 -0.9972  2.3777
 1095TIP3   OH224699   4.293   2.056  12.659  0.1004 -0.3308 -0.3818
 1095TIP3    H124700   4.327   2.141  12.686  1.8692 -0.6790 -1.4598
 1095TIP3    H224701   4.261   2.071  12.570 -1.0263 -0.4383 -0.0102
 1096TIP3   OH224702   3.636   1.692  16.515 -0.1968  0.1459  0.7502
 1096TIP3    H124703   3.698   1.638  16.466 -0.6050  0.4265 -0.0828
 1096TIP3    H224704   3.619   1.642  16.595 -0.5983 -0.9807 -0.0259
 1097TIP3   OH224705   3.350   4.223   1.526  0.2859 -1.1732  0.1493
 1097TIP3    H124706   3.329   4.302   1.475  1.2725 -0.4316  0.8599
 1097TIP3    H224707   3.445   4.226   1.535  0.2681 -2.1615  0.6620
 1098TIP3   OH224708   3.366   5.755   4.651  0.0523  0.2794  0.4632
 1098TIP3    H124709   3.409   5.816   4.711 -0.7050 -1.2026  2.6098
 1098TIP3    H224710   3.277   5.749   4.684  0.0884 -1.8781  0.2291
 1099TIP3   OH224711   2.702   0.105  11.155 -0.7178  0.1591 -0.0808
 1099TIP3    H124712   2.718   0.012  11.166  3.5023  0.5600 -1.9811
 1099TIP3    H224713   2.662   0.113  11.068 -1.0967  0.1161  0.0885
 1100TIP3   OH224714   1.278   0.281  12.670 -0.2353  0.5874  0.0143
 1100TIP3    H124715   1.212   0.340  12.707 -0.6308  0.5614 -0.6249
 1100TIP3    H224716   1.350   0.338  12.645 -1.0623  0.9610 -1.5952
 1101TIP3   OH224717   1.317   0.020  12.648  0.1460  0.1804  0.0175
 1101TIP3    H124718   1.349   0.004  12.737  1.7139 -1.4617 -0.8108
 1101TIP3    H224719   1.292   0.112  12.648  1.2486  0.5138  1.8239
 1102TIP3   OH224720   5.786   4.391  15.705  0.1412  0.0995 -0.2749
 1102TIP3    H124721   5.755   4.426  15.622 -0.1582  0.4750 -0.0070
 1102TIP3    H224722   5.708   4.389  15.761  0.8028  2.1604  0.7905
 1103TIP3   OH224723   3.161   3.474  15.669 -0.6681 -0.3555  0.8393
 1103TIP3    H124724   3.168   3.442  15.759  1.0638  2.6079  1.8427
 1103TIP3    H224725   3.231   3.540  15.662 -1.5722  0.3371 -2.2890
 1104TIP3   OH224726   1.487   2.720   4.749 -0.5222 -0.1894  0.0914
 1104TIP3    H124727   1.487   2.637   4.701  1.1517 -0.0965 -0.1087
 1104TIP3    H224728   1.524   2.784   4.688  2.4785 -0.2505  1.7073
 1105TIP3   OH224729   0.420   4.335   0.542  0.0511 -0.3975  0.2811
 1105TIP3    H124730   0.344   4.390   0.563  0.3650  0.4225 -0.6830
 1105TIP3    H224731   0.422   4.333   0.446  0.6616 -1.2432  0.3072
 1106TIP3   OH224732   2.657   2.818   1.272 -0.6491 -0.0335 -0.1602
 1106TIP3    H124733   2.663   2.907   1.306 -1.5317  0.2020 -0.6237
 1106TIP3    H224734   2.627   2.828   1.182  1.5435 -0.6610 -1.0078
 1107TIP3   OH224735   3.118   4.716   5.290 -0.5766 -0.1136  0.1735
 1107TIP3    H124736   3.147   4.648   5.229  0.3844  0.2674  0.1956
 1107TIP3    H224737   3.196   4.736   5.342 -0.0908  2.8393 -1.5572
 1108TIP3   OH224738   1.850   1.225   1.442  0.6163  0.0679 -0.3048
 1108TIP3    H124739   1.900   1.186   1.514  3.0267  1.2252 -1.2739
 1108TIP3    H224740   1.818   1.150   1.391  1.9510 -0.7116 -0.0136
 1109TIP3   OH224741   1.460   6.253  15.609 -0.2854 -0.0126  0.1973
 1109TIP3    H124742   1.425   6.200  15.680  0.4498  0.1918  0.7079
 1109TIP3    H224743   1.450   6.198  15.531  0.5024 -0.9200  0.7238
 1110TIP3   OH224744   5.174   5.469   1.861  0.2625  0.1631  0.1319
 1110TIP3    H124745   5.115   5.461   1.786 -1.3265 -2.6182  1.6269
 1110TIP3    H224746   5.117   5.481   1.936  1.7199  0.0829  1.2764
 1111TIP3   OH224747   5.901   1.871   0.487  0.3465 -0.2600 -0.3786
 1111TIP3    H124748   5.940   1.958   0.487 -0.7974  0.2655  1.1309
 1111TIP3    H224749   5.889   1.850   0.580 -0.4018 -1.5527 -0.7577
 1112TIP3   OH224750   1.217   0.424   4.453  0.0913 -0.2286  0.3700
 1112TIP3    H124751   1.193   0.349   4.507 -0.3125 -0.9592 -0.8170
 1112TIP3    H224752   1.143   0.435   4.393 -0.5213  2.0034  1.4476
 1113TIP3   OH224753   6.466   4.492   4.762  0.2100 -0.6539  0.0096
 1113TIP3    H124754   6.546   4.522   4.719  0.0966  1.7812  1.4368
 1113TIP3    H224755   6.479   4.510   4.855 -1.3348 -1.7923  0.4893
 1114TIP3   OH224756   0.067   5.122   1.189  0.1552  0.1823 -0.1164
 1114TIP3    H124757   0.037   5.165   1.269  0.3376 -0.9920  0.5950
 1114TIP3    H224758   0.041   5.182   1.118 -1.1397  0.6198  0.7149
 1115TIP3   OH224759   0.328   1.030   0.788 -0.3135 -0.5817  0.2011
 1115TIP3    H124760   0.323   0.973   0.865  0.9854  0.0967  0.8173
 1115TIP3    H224761   0.345   1.117   0.824  1.1382 -0.3973 -0.8679
 1116TIP3   OH224762   6.682   2.196  16.746 -0.3157  0.2762  0.1386
 1116TIP3    H124763   6.769   2.235  16.760 -0.5210  0.8218 -0.0814
 1116TIP3    H224764   6.651   2.237  16.665 -1.3799  1.1595  0.9814
 1117TIP3   OH224765   5.993   3.028   3.541 -0.5619 -0.1040 -0.1163
 1117TIP3    H124766   5.972   2.972   3.616  0.2946  0.5369  0.6105
 1117TIP3    H224767   5.962   2.978   3.465 -0.4937 -1.2221  0.5748
 1118TIP3   OH224768   0.699   5.950   2.826  0.1402  0.5045 -0.4735
 1118TIP3    H124769   0.614   5.909   2.840 -0.0842  1.2559  0.4273
 1118TIP3    H224770   0.683   6.017   2.759  0.1841  0.1501 -0.8402
 1119TIP3   OH224771   6.644   6.429   2.815 -0.4914  0.2074  0.0310
 1119TIP3    H124772   6.652   6.449   2.908 -3.0767 -0.4768  0.4340
 1119TIP3    H224773   6.614   6.338   2.813  0.7618 -0.1954 -1.5183
 1120TIP3   OH224774   2.373   5.230  17.080 -0.1110  0.1501  0.2793
 1120TIP3    H124775   2.352   5.153  17.026 -0.2777  0.8547 -0.6813
 1120TIP3    H224776   2.438   5.278  17.029 -0.4657  0.9664  0.5882
 1121TIP3   OH224777   4.079   1.266   2.639 -0.3267  0.2063 -0.2293
 1121TIP3    H124778   4.008   1.322   2.605 -0.0387  1.2342  0.8384
 1121TIP3    H224779   4.094   1.202   2.569 -0.0375  2.0150 -1.8770
 1122TIP3   OH224780   4.264   5.575   0.901 -0.6430 -0.1937 -0.0591
 1122TIP3    H124781   4.183   5.578   0.851 -1.0665 -0.0156  0.6255
 1122TIP3    H224782   4.324   5.632   0.853 -0.6948 -0.8924 -0.9588
 1123TIP3   OH224783   4.914   6.742   1.148 -0.1415 -0.2292  0.1853
 1123TIP3    H124784   4.917   6.674   1.216 -0.3099  0.6112  1.0458
 1123TIP3    H224785   4.891   6.822   1.195  1.0531  0.6280 -0.6663
 1124TIP3   OH224786   3.322   5.723   1.617  0.0107 -0.1068  0.5749
 1124TIP3    H124787   3.350   5.667   1.545 -0.7134 -1.7020  1.5143
 1124TIP3    H224788   3.349   5.811   1.591  0.6815 -0.8125 -1.1602
 1125TIP3   OH224789   4.421   1.868  11.695 -0.6273 -0.4625 -0.2000
 1125TIP3    H124790   4.486   1.905  11.636 -0.8873  1.4575  0.6663
 1125TIP3    H224791   4.419   1.775  11.674  2.6562 -0.6248 -0.0077
 1126TIP3   OH224792   1.635   0.023   3.579 -0.0994 -0.2942  0.6806
 1126TIP3    H124793   1.553   0.056   3.541 -0.0036 -0.0632  0.6693
 1126TIP3    H224794   1.609  -0.016   3.662 -0.1589  0.1791  0.8853
 1127TIP3   OH224795   1.481   5.202   3.171 -0.5176  0.4416 -0.2722
 1127TIP3    H124796   1.439   5.208   3.257  1.2030  1.4017  0.5228
 1127TIP3    H224797   1.416   5.157   3.117 -1.4101 -0.6911  1.6595
 1128TIP3   OH224798   3.928   0.424   4.833  0.0870 -0.6977 -0.6742
 1128TIP3    H124799   3.877   0.399   4.910 -0.3111 -0.8732 -0.9902
 1128TIP3    H224800   3.862   0.435   4.764  0.6430 -2.7376 -1.5565
 1129TIP3   OH224801   5.619   2.995  11.505 -0.4714 -0.1809  0.5252
 1129TIP3    H124802   5.535   3.039  11.506 -0.4031 -0.0332 -0.1941
 1129TIP3    H224803   5.606   2.916  11.558 -1.7557 -1.4324 -1.5847
 1130TIP3   OH224804   0.778   1.838   4.660 -0.4458  0.1425  0.0130
 1130TIP3    H124805   0.794   1.857   4.568 -0.7800 -0.7760 -0.2425
 1130TIP3    H224806   0.760   1.744   4.662 -0.0477  0.0788  1.0678
 1131TIP3   OH224807   2.862   5.151   6.136  0.3062 -0.0797 -0.0643
 1131TIP3    H124808   2.776   5.156   6.177 -0.1462  0.0968 -1.0305
 1131TIP3    H224809   2.871   5.233   6.088 -0.0131 -1.1239 -1.9661
 1132TIP3   OH224810   5.385   1.318  11.372  0.1109  0.1022 -0.1150
 1132TIP3    H124811   5.301   1.278  11.394  1.1378 -1.9019  0.2810
 1132TIP3    H224812   5.446   1.282  11.435  1.6991 -0.1307 -1.7477
 1133TIP3   OH224813   1.729   6.490  13.969  0.6379 -0.3188  0.2380
 1133TIP3    H124814   1.710   6.582  13.951 -0.3191 -0.8880 -1.7252
 1133TIP3    H224815   1.729   6.484  14.065 -1.9977  1.1672  0.3614
 1134TIP3   OH224816   1.807   0.193   0.716  0.6051 -0.3501  0.2360
 1134TIP3    H124817   1.805   0.261   0.649 -1.7192 -0.6335 -0.0356
 1134TIP3    H224818   1.835   0.114   0.670  2.4532  0.2016  0.3691
 1135TIP3   OH224819   6.019   0.196  12.386 -0.1565  0.5416  0.5062
 1135TIP3    H124820   6.011   0.109  12.426  1.5965  0.5963  1.0180
 1135TIP3    H224821   5.978   0.187  12.300  0.4967 -0.9495  0.3404
 1136TIP3   OH224822   2.914   4.563   3.964 -0.4609 -0.3549  0.0641
 1136TIP3    H124823   2.974   4.576   4.038  1.3483 -0.7567 -1.3021
 1136TIP3    H224824   2.945   4.624   3.897 -1.9909 -0.1138 -0.4571
 1137TIP3   OH224825   3.654   0.441   3.969  0.5672  0.0291 -0.0720
 1137TIP3    H124826   3.689   0.527   3.943  2.5764 -1.1803 -1.4486
 1137TIP3    H224827   3.674   0.435   4.062 -1.4275  1.9115  0.5165
 1138TIP3   OH224828   2.815   5.275   0.892 -0.1041  0.0164  0.4289
 1138TIP3    H124829   2.748   5.332   0.853 -1.5835 -1.2525  1.0838
 1138TIP3    H224830   2.877   5.336   0.931 -0.8196  1.2258 -0.2720
 1139TIP3   OH224831   6.721   2.422  11.679 -0.5088 -0.5581  0.4281
 1139TIP3    H124832   6.673   2.500  11.707 -1.6827 -1.1110 -0.0176
 1139TIP3    H224833   6.732   2.432  11.585  1.1535  0.0431  0.6580
 1140TIP3   OH224834   5.425   3.951  13.849  0.2440  0.6408  0.3757
 1140TIP3    H124835   5.329   3.954  13.849  0.2589  2.1044  2.1075
 1140TIP3    H224836   5.451   4.043  13.846  1.6523  0.2028 -2.7956
 1141TIP3   OH224837   1.355   5.276   0.073 -0.0240 -0.4853 -0.3203
 1141TIP3    H124838   1.296   5.224   0.127  1.6570 -0.5730  1.4901
 1141TIP3    H224839   1.354   5.233  -0.013 -2.1241 -0.8069 -0.1499
 1142TIP3   OH224840   6.787   3.053  14.239  0.2089  0.4622  0.2089
 1142TIP3    H124841   6.745   3.054  14.153 -2.4599 -1.9276  1.3752
 1142TIP3    H224842   6.753   3.131  14.282 -1.6714 -0.4423  0.4542
 1143TIP3   OH224843   0.916   3.246   2.900 -0.1772  0.2649 -0.0738
 1143TIP3    H124844   0.978   3.284   2.963 -0.4402 -0.2020  0.4733
 1143TIP3    H224845   0.831   3.255   2.942 -0.0752 -2.2475  0.7107
 1144TIP3   OH224846   4.570   2.837   0.021 -0.3991  0.7324  0.4775
 1144TIP3    H124847   4.525   2.753   0.036 -1.0660  1.0860  0.5075
 1144TIP3    H224848   4.564   2.882   0.105 -0.0083  0.7989  0.4692
 1145TIP3   OH224849   5.126   6.473   4.341  0.2132 -0.0731  0.0194
 1145TIP3    H124850   5.149   6.509   4.426  0.3793  0.3346 -0.1957
 1145TIP3    H224851   5.039   6.508   4.323 -0.9629 -2.2777  1.2054
 1146TIP3   OH224852   1.420   0.174   1.632 -0.4239  0.8323 -0.4551
 1146TIP3    H124853   1.375   0.182   1.715 -0.2564 -1.3158 -0.1397
 1146TIP3    H224854   1.372   0.106   1.584 -0.7619  2.3068 -2.2802
 1147TIP3   OH224855   5.804   4.444   1.118  0.4704  0.2992 -0.6128
 1147TIP3    H124856   5.818   4.351   1.101  1.7937  0.5971 -1.2101
 1147TIP3    H224857   5.776   4.479   1.033  0.1831  0.4872 -0.4406
 1148TIP3   OH224858   1.566   5.883  14.028  0.0677  0.1280 -0.2588
 1148TIP3    H124859   1.482   5.926  14.044  0.1723 -0.0986  1.0047
 1148TIP3    H224860   1.545   5.800  13.986 -0.3410  0.0965  0.0108
 1149TIP3   OH224861   2.568   5.419   6.189  0.2881  0.5174  0.3079
 1149TIP3    H124862   2.573   5.448   6.280  3.0021  0.8978  0.0863
 1149TIP3    H224863   2.562   5.324   6.194  2.1788  0.4024  0.8959
 1150TIP3   OH224864   6.140   3.632  12.706 -0.3130  0.1529 -0.3683
 1150TIP3    H124865   6.122   3.647  12.799 -2.4777 -1.3873 -0.4728
 1150TIP3    H224866   6.152   3.719  12.669 -1.6475  0.9430  0.9763
 1151TIP3   OH224867   4.927   5.267  12.526  0.9145 -0.2501  0.1859
 1151TIP3    H124868   4.900   5.270  12.617 -0.1568 -1.5560 -0.0594
 1151TIP3    H224869   4.986   5.341  12.515 -0.7662  1.3014  1.3434
 1152TIP3   OH224870   5.856   3.401  11.807 -0.2175 -0.0686  0.3544
 1152TIP3    H124871   5.800   3.442  11.741  0.5303 -0.0622 -0.2772
 1152TIP3    H224872   5.821   3.313  11.816  1.1909 -0.9050 -1.8741
 1153TIP3   OH224873   6.151   1.733  13.465  0.1828 -0.3814 -0.4742
 1153TIP3    H124874   6.061   1.731  13.433 -0.1565 -0.7858  0.4662
 1153TIP3    H224875   6.174   1.640  13.478  0.1203 -0.2186  0.9320
 1154TIP3   OH224876   1.574   3.132  16.599  0.1603 -0.1487  0.2642
 1154TIP3    H124877   1.500   3.171  16.552 -1.6369 -1.5293  1.8691
 1154TIP3    H224878   1.643   3.198  16.594 -1.2652  1.2874 -1.0235
 1155TIP3   OH224879   4.699   5.243   3.086  0.4301 -0.4924 -0.3225
 1155TIP3    H124880   4.731   5.272   3.172 -1.6864  0.8605  0.0752
 1155TIP3    H224881   4.726   5.313   3.026 -2.1825  1.0046  0.1324
 1156TIP3   OH224882   6.279   2.296   4.085 -0.2779 -0.0289 -0.0218
 1156TIP3    H124883   6.315   2.243   4.013 -1.1540 -0.7145  0.0361
 1156TIP3    H224884   6.356   2.319   4.138  0.4232  0.7764 -1.3595
 1157TIP3   OH224885   5.549   6.166   2.306  1.3496  0.5155 -0.1407
 1157TIP3    H124886   5.468   6.141   2.348  0.7244  0.9363 -1.0675
 1157TIP3    H224887   5.582   6.086   2.265  0.0722  0.8771 -1.9274
 1158TIP3   OH224888   5.140   6.309  11.088  0.6430  0.4839 -0.2328
 1158TIP3    H124889   5.062   6.289  11.140  0.7345 -1.1920 -0.7106
 1158TIP3    H224890   5.199   6.235  11.105  1.1556  0.5260 -1.7727
 1159TIP3   OH224891   5.749   4.307   3.126  0.0593 -0.1893 -0.6060
 1159TIP3    H124892   5.797   4.233   3.164 -0.4395 -0.4782 -0.5339
 1159TIP3    H224893   5.658   4.288   3.145  0.0175  1.0907  0.5392
 1160TIP3   OH224894   6.354   6.519  16.538  0.3387  0.2484  0.2778
 1160TIP3    H124895   6.347   6.504  16.444  1.2344  0.5697  0.1624
 1160TIP3    H224896   6.327   6.610  16.551  1.0480  0.4724  0.2233
 1161TIP3   OH224897   3.025   0.072  10.951 -0.0411 -0.4685  0.0227
 1161TIP3    H124898   3.069   0.015  10.888 -1.2778 -1.0087 -0.3537
 1161TIP3    H224899   3.053   0.039  11.036  0.1756 -0.8985 -0.2112
 1162TIP3   OH224900   2.676   4.754  14.881  0.0127 -0.2652 -0.2220
 1162TIP3    H124901   2.685   4.766  14.787  0.1091 -0.6485 -0.2613
 1162TIP3    H224902   2.755   4.794  14.918 -0.3804  0.5449 -0.2514
 1163TIP3   OH224903   5.932   0.381   0.757  0.4503 -0.1177  0.4034
 1163TIP3    H124904   5.990   0.448   0.793  1.0845 -1.3903  1.7799
 1163TIP3    H224905   5.986   0.334   0.693 -0.1125  0.9102 -0.8552
 1164TIP3   OH224906   2.513   6.326  12.542  0.1471  0.2315 -0.2970
 1164TIP3    H124907   2.594   6.342  12.495 -0.6837  2.8582 -0.9176
 1164TIP3    H224908   2.444   6.360  12.485 -1.3221 -1.1098  0.6128
 1165TIP3   OH224909   5.050   5.280  13.976 -0.4410  0.4519  0.0989
 1165TIP3    H124910   5.104   5.216  14.023 -2.3180  0.7652  2.7420
 1165TIP3    H224911   5.017   5.231  13.900  1.9979 -0.2751 -0.5617
 1166TIP3   OH224912   0.645   3.273  13.624 -0.8537 -0.0930 -0.2841
 1166TIP3    H124913   0.634   3.190  13.577 -1.3927  0.6726 -1.5391
 1166TIP3    H224914   0.726   3.311  13.588 -0.5481 -0.1248  0.3665
 1167TIP3   OH224915   3.191   4.483  13.003 -0.0564  0.2779  0.1746
 1167TIP3    H124916   3.210   4.563  13.052 -0.8977  0.7137 -0.2043
 1167TIP3    H224917   3.176   4.417  13.070  3.2143 -0.2019  0.4930
 1168TIP3   OH224918   3.449   0.868  12.689 -0.0783  0.2293 -0.1218
 1168TIP3    H124919   3.540   0.877  12.663 -0.3424  0.3866 -1.0349
 1168TIP3    H224920   3.450   0.809  12.764  0.7851  0.3677 -0.0242
 1169TIP3   OH224921   6.635   2.327  16.506 -0.3274 -0.3825  0.0978
 1169TIP3    H124922   6.591   2.386  16.444  0.2796  0.7809  0.7661
 1169TIP3    H224923   6.666   2.385  16.576  0.6160 -1.4490  0.5668
 1170TIP3   OH224924   2.486   5.920   2.925 -0.5794  0.5058 -0.3847
 1170TIP3    H124925   2.524   5.859   2.862  0.1794 -0.6641  1.1877
 1170TIP3    H224926   2.561   5.955   2.973 -1.3752 -1.3707  2.3329
 1171TIP3   OH224927   6.268   4.833  13.999  0.0270 -0.0021  0.0627
 1171TIP3    H124928   6.252   4.762  13.937  1.2358  0.1702 -0.4547
 1171TIP3    H224929   6.340   4.800  14.054  0.0576  0.5093  0.3282
 1172TIP3   OH224930   0.039   5.632  13.407  0.2026  0.4358 -0.1148
 1172TIP3    H124931   0.112   5.575  13.384  0.1023  0.6210 -0.9225
 1172TIP3    H224932   0.069   5.682  13.483  0.5659 -0.1589  0.1284
 1173TIP3   OH224933   4.667   5.638   2.526  0.2378  0.8192  0.4198
 1173TIP3    H124934   4.745   5.663   2.575  1.8427 -0.9541 -1.1480
 1173TIP3    H224935   4.677   5.681   2.441  0.5671 -1.0420 -0.5200
 1174TIP3   OH224936   0.318   1.485  15.155 -0.3535  0.7329 -0.7652
 1174TIP3    H124937   0.381   1.447  15.216  0.8923  0.4329 -2.2216
 1174TIP3    H224938   0.273   1.552  15.207  0.8589  0.6584  0.4252
 1175TIP3   OH224939   0.640   5.615  17.207 -0.2596 -0.1366 -0.1808
 1175TIP3    H124940   0.642   5.707  17.233 -2.3450  0.2117 -1.0901
 1175TIP3    H224941   0.661   5.567  17.286  3.3399  1.1724 -0.2776
 1176TIP3   OH224942   5.116   3.196  12.588  0.1714  0.0729 -0.9846
 1176TIP3    H124943   5.022   3.179  12.588  0.4917 -1.8203 -1.5356
 1176TIP3    H224944   5.153   3.125  12.641  1.2538  1.0869 -0.3530
 1177TIP3   OH224945   5.094   6.716   6.020  0.8327  0.4734  0.2900
 1177TIP3    H124946   5.003   6.706   5.992  0.0692  1.0510  2.4390
 1177TIP3    H224947   5.138   6.636   5.991 -0.2747  0.3364 -1.0445
 1178TIP3   OH224948   1.169   1.414  13.962 -0.3008  0.1412 -0.3012
 1178TIP3    H124949   1.122   1.344  14.007 -0.7012 -0.9963 -2.4692
 1178TIP3    H224950   1.108   1.445  13.895  0.9827  0.5541 -1.2905
 1179TIP3   OH224951   2.635   1.824  17.202 -0.3831 -0.3438 -0.0344
 1179TIP3    H124952   2.600   1.817  17.113 -0.7146 -1.2393  0.1676
 1179TIP3    H224953   2.603   1.909  17.233 -1.9962 -0.9433 -0.0296
 1180TIP3   OH224954   2.527   5.137   2.305  0.2704  0.1792 -0.0243
 1180TIP3    H124955   2.469   5.192   2.253  0.3104  0.2920  0.0471
 1180TIP3    H224956   2.497   5.149   2.395 -0.7890 -1.2456 -0.1765
 1181TIP3   OH224957   4.129   6.653   0.402 -0.3575  0.3381 -0.0028
 1181TIP3    H124958   4.188   6.605   0.344  1.8024  2.9803 -0.1293
 1181TIP3    H224959   4.168   6.644   0.489 -0.8880  0.4082  0.2433
 1182TIP3   OH224960   3.750   2.704  10.802  0.1002 -0.6953  0.0314
 1182TIP3    H124961   3.832   2.738  10.837  0.9062 -0.4574 -2.0191
 1182TIP3    H224962   3.689   2.778  10.809  0.4796 -0.3937  0.1758
 1183TIP3   OH224963   6.448   0.074   0.848  0.1365 -0.0084  0.4288
 1183TIP3    H124964   6.541   0.053   0.835 -0.3512 -1.4803 -0.9942
 1183TIP3    H224965   6.403  -0.008   0.829 -1.6754  1.5007 -2.1725
 1184TIP3   OH224966   3.081   3.496   5.377 -0.2734  0.1247 -0.0811
 1184TIP3    H124967   3.163   3.447   5.376 -0.7684 -0.7023 -0.8353
 1184TIP3    H224968   3.068   3.524   5.286 -0.1373  1.4443  0.2843
 1185TIP3   OH224969   0.032   1.619  15.921  0.1822  0.2844 -0.4397
 1185TIP3    H124970   0.028   1.688  15.986 -2.8143 -0.5178  0.3052
 1185TIP3    H224971   0.046   1.665  15.838  1.7684  1.4744  0.4622
 1186TIP3   OH224972   3.136   0.348   6.739  0.0319 -0.2712 -0.1951
 1186TIP3    H124973   3.050   0.343   6.698 -0.3780  0.1017  0.6054
 1186TIP3    H224974   3.119   0.334   6.832  0.7066  0.7915  0.1021
 1187TIP3   OH224975   3.068   3.276   2.383  0.5362 -0.2080  0.7793
 1187TIP3    H124976   3.137   3.241   2.326  1.5252  0.6092  1.4496
 1187TIP3    H224977   3.027   3.345   2.330 -1.1327 -2.0589 -0.3802
 1188TIP3   OH224978   1.637   4.922  15.836 -0.0455  0.2899 -0.5721
 1188TIP3    H124979   1.609   4.967  15.916  0.2659  0.1130 -0.3659
 1188TIP3    H224980   1.665   4.836  15.865 -1.4550 -0.3538 -1.0772
 1189TIP3   OH224981   2.423   6.362   3.247  0.1468 -0.3172 -0.2110
 1189TIP3    H124982   2.434   6.267   3.243 -0.4945 -0.4489  0.8226
 1189TIP3    H224983   2.371   6.384   3.170 -0.6571 -0.9531  0.1412
 1190TIP3   OH224984   4.031   2.395   3.503  0.4299 -0.3618 -0.4278
 1190TIP3    H124985   4.089   2.397   3.427 -0.4406 -1.3696 -1.1398
 1190TIP3    H224986   4.015   2.302   3.519  0.5633 -0.1559  0.9596
 1191TIP3   OH224987   3.296   4.359   3.974  0.3097  0.0983 -0.1050
 1191TIP3    H124988   3.283   4.398   3.888  0.9068 -1.1729 -0.8012
 1191TIP3    H224989   3.255   4.420   4.036  0.0606  1.1201 -1.2677
 1192TIP3   OH224990   4.902   1.272   1.945 -0.5392 -0.3623  0.7861
 1192TIP3    H124991   4.874   1.213   2.015 -1.7967 -0.1772  0.4555
 1192TIP3    H224992   4.997   1.262   1.941 -0.8599 -3.3680 -0.1538
 1193TIP3   OH224993   0.817   0.112   3.137  0.2977  0.4887  0.4353
 1193TIP3    H124994   0.886   0.131   3.201  0.7025  0.4586  0.0163
 1193TIP3    H224995   0.852   0.038   3.087  0.0645  0.6381  0.0566
 1194TIP3   OH224996   1.239   1.686   2.661 -0.1164  0.2495 -0.0061
 1194TIP3    H124997   1.259   1.596   2.683  0.2449 -0.8137 -4.3010
 1194TIP3    H224998   1.314   1.736   2.693  0.8009 -1.2868  0.2816
 1195TIP3   OH224999   1.251   3.056  13.842  0.4664 -0.5361 -0.0274
 1195TIP3    H125000   1.240   2.962  13.825  1.0975 -0.7207  0.5153
 1195TIP3    H225001   1.312   3.086  13.774  1.1180 -0.7623  0.4435
 1196TIP3   OH225002   1.910   5.478  12.952 -0.0172 -0.0705  0.4787
 1196TIP3    H125003   1.909   5.475  13.048  2.6735 -2.0100  0.4866
 1196TIP3    H225004   1.851   5.407  12.926  0.5861 -0.6695  0.7185
 1197TIP3   OH225005   0.371   0.271   2.724 -0.1673 -0.0611 -0.6527
 1197TIP3    H125006   0.446   0.212   2.718  0.2713  0.1084  2.5634
 1197TIP3    H225007   0.410   0.357   2.740 -0.9894  0.2284 -0.1856
 1198TIP3   OH225008   5.391   3.903   2.748  0.3492  0.2662 -0.4824
 1198TIP3    H125009   5.326   3.873   2.685  1.8126  2.1652 -2.9974
 1198TIP3    H225010   5.349   3.975   2.794 -0.9830 -1.5903  1.2752
 1199TIP3   OH225011   5.254   4.767  16.029 -0.8391 -0.1721 -0.0938
 1199TIP3    H125012   5.296   4.743  15.946 -1.1048 -0.1502 -0.2342
 1199TIP3    H225013   5.210   4.850  16.010  1.2986  1.2186  0.7851
 1200TIP3   OH225014   6.640   4.708  11.712  0.3890  0.0873 -0.4493
 1200TIP3    H125015   6.643   4.644  11.783 -0.3574  1.7570  1.1396
 1200TIP3    H225016   6.707   4.772  11.735  0.3266  0.5146 -1.4130
 1201TIP3   OH225017   6.162   5.670  14.650 -0.3379 -0.3540  0.0980
 1201TIP3    H125018   6.146   5.680  14.744  0.2386  0.6612  0.0899
 1201TIP3    H225019   6.212   5.588  14.643  0.3343 -0.0035  0.7496
 1202TIP3   OH225020   6.442   1.107  11.963  0.1580  0.1572 -0.2251
 1202TIP3    H125021   6.531   1.129  11.937  0.0193  1.5550  0.4684
 1202TIP3    H225022   6.448   1.017  11.996  1.0806 -0.1732 -1.2521
 1203TIP3   OH225023   5.387   1.431  17.021 -0.6831  0.2766  0.1314
 1203TIP3    H125024   5.357   1.498  17.083  0.2748  0.6016  0.2542
 1203TIP3    H225025   5.332   1.355  17.039 -1.5134  0.9030  0.2671
 1204TIP3   OH225026   5.074   2.203   4.499  0.1141  0.4613  0.2539
 1204TIP3    H125027   5.152   2.179   4.449  0.4106 -0.8194  1.2903
 1204TIP3    H225028   5.101   2.279   4.550 -0.5033  2.4391 -2.2527
 1205TIP3   OH225029   1.085   6.562  11.558  0.0309  0.1751  0.2272
 1205TIP3    H125030   1.033   6.580  11.636 -1.2460 -1.4952 -0.2175
 1205TIP3    H225031   1.037   6.604  11.486 -1.9089 -3.1382 -0.5108
 1206TIP3   OH225032   5.825   6.654   0.871  0.6857 -0.4240  0.4614
 1206TIP3    H125033   5.816   6.746   0.896  0.4258 -0.1696 -0.5604
 1206TIP3    H225034   5.896   6.654   0.806  1.0647 -1.0225  0.8681
 1207TIP3   OH225035   1.743   0.482  15.562 -0.9775  0.0285 -0.8126
 1207TIP3    H125036   1.828   0.441  15.576  0.4719  2.7586 -1.3254
 1207TIP3    H225037   1.686   0.440  15.626  1.0542 -0.9771  0.4011
 1208TIP3   OH225038   0.584   4.942   5.671 -0.1966 -0.0490 -0.1660
 1208TIP3    H125039   0.673   4.927   5.703 -0.9588 -1.6432  1.2508
 1208TIP3    H225040   0.532   4.871   5.709 -1.9763  0.5329 -1.4356
 1209TIP3   OH225041   2.208   3.518   4.421 -0.4592 -0.5324 -0.6889
 1209TIP3    H125042   2.241   3.518   4.331 -0.7928 -0.9672 -0.8148
 1209TIP3    H225043   2.215   3.427   4.450 -0.9139 -0.5099 -0.4889
 1210TIP3   OH225044   6.586   4.033  12.140  0.0928 -0.0423  0.1662
 1210TIP3    H125045   6.676   4.062  12.156 -0.2098  2.2509 -1.9309
 1210TIP3    H225046   6.595   3.955  12.085  0.8078  0.5816 -0.6136
 1211TIP3   OH225047   5.575   3.348  16.333  0.0822  0.4859 -0.4432
 1211TIP3    H125048   5.505   3.404  16.368  0.9832  0.3610  1.6597
 1211TIP3    H225049   5.625   3.322  16.410  1.3430 -0.9555 -1.7185
 1212TIP3   OH225050   6.427   2.622  16.741 -0.0939  0.1494 -0.1017
 1212TIP3    H125051   6.390   2.535  16.727 -0.3158  0.5684 -2.5060
 1212TIP3    H225052   6.351   2.680  16.742  0.1520  0.4705 -0.1096
 1213TIP3   OH225053   2.231   3.074  15.638  0.3151 -0.3098  0.1624
 1213TIP3    H125054   2.276   2.990  15.650  1.7169  0.4464  0.3566
 1213TIP3    H225055   2.199   3.098  15.725 -0.8152 -1.0362 -0.0477
 1214TIP3   OH225056   5.587   2.432   2.044 -0.3977  0.4046 -0.3955
 1214TIP3    H125057   5.654   2.370   2.014 -0.7737  0.4249 -1.3114
 1214TIP3    H225058   5.521   2.431   1.974 -1.2247  0.5764  0.3756
 1215TIP3   OH225059   4.297   2.082  12.207 -0.7815  0.5322  0.2639
 1215TIP3    H125060   4.376   2.028  12.208 -2.4474 -2.0111 -0.1212
 1215TIP3    H225061   4.309   2.142  12.133 -0.4619 -1.8332 -1.6722
 1216TIP3   OH225062   1.424   2.324   4.842  0.1650 -0.0366 -0.6163
 1216TIP3    H125063   1.349   2.341   4.785 -1.0174 -2.5237  0.1298
 1216TIP3    H225064   1.486   2.277   4.787  0.0576 -0.2864 -0.5253
 1217TIP3   OH225065   2.241   3.334  16.509 -0.3890 -0.5468 -0.6943
 1217TIP3    H125066   2.316   3.374  16.465  0.4272 -0.4377  0.7466
 1217TIP3    H225067   2.165   3.382  16.476  0.3531  0.5901 -0.7978
 1218TIP3   OH225068   4.537   4.868  14.832 -0.1264  0.3635 -0.0295
 1218TIP3    H125069   4.497   4.853  14.747  1.0210 -0.9148 -0.3542
 1218TIP3    H225070   4.617   4.816  14.831  0.6423  1.4757  1.2814
 1219TIP3   OH225071   0.531   1.120   2.787  0.4409  0.1709 -0.3355
 1219TIP3    H125072   0.544   1.188   2.721 -0.0188 -0.6128 -1.2309
 1219TIP3    H225073   0.457   1.151   2.839 -0.5887 -0.2704 -1.5416
 1220TIP3   OH225074   4.490   0.642   0.201 -0.3776 -0.6364 -0.0181
 1220TIP3    H125075   4.452   0.673   0.119 -0.2386 -0.7209 -0.1140
 1220TIP3    H225076   4.426   0.579   0.234 -0.8913  0.1155  0.4221
 1221TIP3   OH225077   4.189   1.586   1.745 -0.5607  0.1431  0.1461
 1221TIP3    H125078   4.213   1.676   1.720  1.1245  0.0139  1.2573
 1221TIP3    H225079   4.210   1.534   1.667  1.8923  0.1831  0.7460
 1222TIP3   OH225080   2.453   2.290  13.008 -0.5646 -0.3926  0.7034
 1222TIP3    H125081   2.358   2.278  13.006 -0.2660 -2.8123 -1.2471
 1222TIP3    H225082   2.486   2.223  13.068  0.1164 -1.4380 -0.8009
 1223TIP3   OH225083   1.546   1.648  15.968 -0.2688 -0.9958 -0.4481
 1223TIP3    H125084   1.624   1.685  16.011 -0.2671 -0.2008 -1.1256
 1223TIP3    H225085   1.515   1.581  16.029  0.8363 -1.1903 -0.0835
 1224TIP3   OH225086   4.725   2.569   2.712  0.0214 -0.0446 -0.3608
 1224TIP3    H125087   4.787   2.518   2.659  1.7283 -0.6156  2.0910
 1224TIP3    H225088   4.689   2.505   2.773 -0.6215  0.9418  0.2884
 1225TIP3   OH225089   6.654   2.650  12.634  0.8810  0.0678 -0.9803
 1225TIP3    H125090   6.603   2.572  12.654  0.3570  0.2392 -1.6327
 1225TIP3    H225091   6.697   2.630  12.551  0.4620  0.6052 -1.3291
 1226TIP3   OH225092   2.971   3.039   5.111  0.1287 -0.3722  0.1097
 1226TIP3    H125093   2.945   3.007   5.025 -1.6670  0.3539  0.3601
 1226TIP3    H225094   2.950   3.132   5.110 -1.7985 -0.7594  2.0119
 1227TIP3   OH225095   4.783   5.911   0.490  0.4944  0.1991 -0.4520
 1227TIP3    H125096   4.819   5.930   0.403  0.0610  1.9134 -0.2872
 1227TIP3    H225097   4.818   5.825   0.513  3.3483  1.2044 -0.8774
 1228TIP3   OH225098   1.842   2.391  14.572  0.7637 -0.1820  0.0770
 1228TIP3    H125099   1.904   2.321  14.596 -0.2479 -1.0280  0.2308
 1228TIP3    H225100   1.872   2.467  14.622  1.0926 -0.8455  0.9052
 1229TIP3   OH225101   5.519   3.096   4.789  0.2113  0.0160  0.0933
 1229TIP3    H125102   5.458   3.094   4.863 -0.9629 -0.7158 -0.8888
 1229TIP3    H225103   5.605   3.076   4.828 -0.9413 -4.1549  0.7440
 1230TIP3   OH225104   5.329   3.577  14.043 -0.2496  0.2279  0.4150
 1230TIP3    H125105   5.386   3.585  13.967  2.0715  0.9226  2.1775
 1230TIP3    H225106   5.253   3.527  14.011 -0.0779  1.8423 -2.7068
 1231TIP3   OH225107   1.281   5.151   0.517  0.0561  0.2668 -0.5595
 1231TIP3    H125108   1.237   5.188   0.440 -0.6694 -1.5968 -1.0561
 1231TIP3    H225109   1.329   5.225   0.554 -2.6498  2.1017 -0.5909
 1232TIP3   OH225110   1.029   4.278   6.099  0.0425 -0.4496 -0.3282
 1232TIP3    H125111   0.978   4.223   6.040  0.4660  1.7392 -2.8143
 1232TIP3    H225112   0.974   4.355   6.114  0.7001 -0.1690  0.7036
 1233TIP3   OH225113   1.149   2.915   3.678  0.0825 -0.5172  0.0995
 1233TIP3    H125114   1.075   2.975   3.682  1.7431  1.7293 -1.5176
 1233TIP3    H225115   1.127   2.855   3.607 -0.5859 -0.4532  0.2477
 1234TIP3   OH225116   2.805   4.227   4.854  0.3615  0.3244 -0.0641
 1234TIP3    H125117   2.734   4.168   4.877 -1.6940  2.6640 -0.1661
 1234TIP3    H225118   2.846   4.187   4.777 -1.0679 -0.8762 -0.2153
 1235TIP3   OH225119   1.608   1.136   2.178 -0.6176  0.8768  0.1282
 1235TIP3    H125120   1.533   1.158   2.233 -1.5472  1.0291 -1.1862
 1235TIP3    H225121   1.648   1.221   2.158 -0.4703  0.8442  0.2739
 1236TIP3   OH225122   4.158   5.868  16.212 -0.1266 -0.5226 -0.6519
 1236TIP3    H125123   4.253   5.857  16.216 -0.0175  0.4680 -0.1987
 1236TIP3    H225124   4.132   5.823  16.132  0.7573 -0.5989 -0.9086
 1237TIP3   OH225125   3.857   2.979  13.299 -0.5665 -0.0055 -0.3425
 1237TIP3    H125126   3.907   2.938  13.369 -0.0956  0.7045 -0.2614
 1237TIP3    H225127   3.766   2.973  13.327 -0.4802 -0.7846 -0.2281
 1238TIP3   OH225128   1.308   4.832  12.721  0.1917  0.4205 -0.1024
 1238TIP3    H125129   1.297   4.835  12.816 -2.1238  0.5033 -0.3414
 1238TIP3    H225130   1.270   4.749  12.695  2.3045 -0.3602 -0.8244
 1239TIP3   OH225131   5.920   5.678   4.794 -0.3638 -0.2453 -0.3392
 1239TIP3    H125132   5.942   5.763   4.756 -3.5433  0.2276 -1.2819
 1239TIP3    H225133   5.942   5.686   4.887  0.5637  1.1409 -0.6640
 1240TIP3   OH225134   6.666   2.932  11.776 -0.1766  0.1518  0.3074
 1240TIP3    H125135   6.700   3.021  11.785  0.4768 -0.1567  0.9613
 1240TIP3    H225136   6.619   2.917  11.858  1.4164 -0.8254  1.0627
 1241TIP3   OH225137   2.218   1.750  13.548 -0.0357  0.1316  0.3926
 1241TIP3    H125138   2.199   1.700  13.468  1.4258 -2.1877  1.4559
 1241TIP3    H225139   2.133   1.786  13.574 -0.5628  0.7769 -2.0967
 1242TIP3   OH225140   2.555   5.337  16.097 -0.3173 -0.0397  0.2772
 1242TIP3    H125141   2.535   5.358  16.188  1.5931 -1.1619  0.9919
 1242TIP3    H225142   2.510   5.254  16.081 -2.3344  1.1613 -0.4665
 1243TIP3   OH225143   6.464   0.890   3.261  0.5384 -0.2694  0.3696
 1243TIP3    H125144   6.489   0.930   3.177 -0.0741  0.6503  0.6197
 1243TIP3    H225145   6.370   0.877   3.254  0.6982 -1.5198  0.3710
 1244TIP3   OH225146   5.468   1.210  12.300  0.1848  0.6875  0.3361
 1244TIP3    H125147   5.441   1.139  12.358  0.0639  2.4980  2.6022
 1244TIP3    H225148   5.424   1.287  12.335  0.9398  2.0353 -1.5765
 1245TIP3   OH225149   1.253   2.087   1.449  0.3686 -0.7035 -0.3820
 1245TIP3    H125150   1.275   2.045   1.532  0.3524 -1.1558 -0.6053
 1245TIP3    H225151   1.182   2.034   1.413 -0.8648  0.5482  0.1753
 1246TIP3   OH225152   4.237   5.662  12.469  0.2308  0.2909 -0.1450
 1246TIP3    H125153   4.312   5.679  12.525  0.1175 -1.8877  0.7310
 1246TIP3    H225154   4.165   5.711  12.509 -0.1858 -2.3427  2.5171
 1247TIP3   OH225155   3.983   1.088   3.700 -0.3734  0.3000 -0.3444
 1247TIP3    H125156   4.043   1.162   3.707 -1.2869  0.9940  0.2882
 1247TIP3    H225157   3.981   1.051   3.788 -0.5078 -0.0017 -0.4760
 1248TIP3   OH225158   5.025   5.187   4.482 -0.0488 -0.6905  0.1002
 1248TIP3    H125159   5.057   5.156   4.567  0.4960  0.1230  0.1897
 1248TIP3    H225160   4.932   5.202   4.495 -0.0290 -0.8759  0.4593
 1249TIP3   OH225161   4.857   6.591  12.263 -0.6165 -0.5179 -0.0967
 1249TIP3    H125162   4.766   6.614  12.247 -0.2296  1.2785  0.1846
 1249TIP3    H225163   4.896   6.669  12.302  1.0786 -1.2059 -0.3353
 1250TIP3   OH225164   3.454   2.320   0.676  0.4600  0.1337 -0.0356
 1250TIP3    H125165   3.512   2.296   0.748  2.0688  0.2040 -1.2973
 1250TIP3    H225166   3.512   2.345   0.605 -1.0944 -0.6975 -1.6356
 1251TIP3   OH225167   1.340   4.804   5.894 -0.2461  0.6706  0.2312
 1251TIP3    H125168   1.363   4.713   5.875  0.9913  0.8128  0.9849
 1251TIP3    H225169   1.418   4.854   5.870  0.0374  1.2320  2.2332
 1252TIP3   OH225170   1.709   3.739  16.338 -0.3407  0.3679 -0.4640
 1252TIP3    H125171   1.693   3.762  16.430  2.5299  0.6417  0.0386
 1252TIP3    H225172   1.793   3.781  16.318  0.4912 -2.1015 -2.3389
 1253TIP3   OH225173   6.214   3.013  16.916 -0.0613  0.1968  0.3029
 1253TIP3    H125174   6.255   3.000  17.001 -0.8357  1.0124  0.8141
 1253TIP3    H225175   6.128   3.051  16.937 -0.2860  0.3210 -0.8352
 1254TIP3   OH225176   5.032   5.604  10.318  0.2084 -0.4481  0.1661
 1254TIP3    H125177   4.969   5.661  10.274  2.2018  0.1814 -1.9816
 1254TIP3    H225178   5.086   5.664  10.370 -0.5634 -0.9249  1.5599
 1255TIP3   OH225179   0.158   1.526   2.998  0.3513 -0.1296  0.4027
 1255TIP3    H125180   0.211   1.605   3.014  0.3921 -0.0498 -0.1108
 1255TIP3    H225181   0.165   1.512   2.903 -2.9962  1.6331 -0.1802
 1256TIP3   OH225182   1.655   5.700   1.416  0.5123 -0.0708 -0.3458
 1256TIP3    H125183   1.605   5.769   1.457 -0.0401 -0.9380  0.4468
 1256TIP3    H225184   1.650   5.719   1.322  0.1681  0.8160 -0.1476
 1257TIP3   OH225185   4.984   2.855   1.128  0.1714  0.1097  0.1601
 1257TIP3    H125186   5.068   2.861   1.175 -0.4270 -2.2029  1.5895
 1257TIP3    H225187   4.925   2.911   1.179  0.1416 -0.4849  0.7868
 1258TIP3   OH225188   2.777   2.220  12.354 -0.3386 -0.2002  0.6669
 1258TIP3    H125189   2.717   2.240  12.426 -1.8479 -1.0016 -0.3372
 1258TIP3    H225190   2.857   2.191  12.398 -1.5697 -1.6509  2.0461
 1259TIP3   OH225191   3.157   3.378  11.506  0.2062 -0.2090  0.0530
 1259TIP3    H125192   3.111   3.307  11.460 -1.0220 -0.4306  1.6017
 1259TIP3    H225193   3.211   3.333  11.571 -0.9915  0.2947  1.4039
 1260TIP3   OH225194   1.916   3.580   4.300  0.3825  0.7256  0.4791
 1260TIP3    H125195   1.996   3.534   4.325 -0.0222  0.9466  2.2903
 1260TIP3    H225196   1.943   3.671   4.289  0.5137  0.6807  0.4295
 1261TIP3   OH225197   4.255   5.972  10.997  0.2724 -0.1233 -0.2288
 1261TIP3    H125198   4.292   6.000  11.081  2.2091  0.9907 -1.4042
 1261TIP3    H225199   4.331   5.962  10.940 -0.7032 -3.9849 -1.0096
 1262TIP3   OH225200   5.118   3.693   4.456  0.5465  0.0886 -0.1420
 1262TIP3    H125201   5.074   3.758   4.402  0.3792 -0.8397 -1.1294
 1262TIP3    H225202   5.087   3.712   4.545 -2.0788 -0.7326 -0.8416
 1263TIP3   OH225203   5.151   2.180  14.851 -0.5496  0.4866 -0.0258
 1263TIP3    H125204   5.058   2.157  14.845 -0.4007 -0.1782  0.1428
 1263TIP3    H225205   5.175   2.208  14.763 -0.4742 -1.0473 -0.5076
 1264TIP3   OH225206   2.360   4.963   5.725 -0.1090  0.1923 -1.1518
 1264TIP3    H125207   2.380   5.014   5.647  3.4581 -0.0662 -0.4914
 1264TIP3    H225208   2.383   5.020   5.798 -0.7680 -0.5764 -0.3363
 1265TIP3   OH225209   1.642   5.908   5.429  0.0209  0.6779  0.6063
 1265TIP3    H125210   1.632   5.909   5.334  0.8279  0.9619  0.5235
 1265TIP3    H225211   1.736   5.908   5.443 -0.0804 -0.8406  1.3916
 1266TIP3   OH225212   1.022   5.167  16.384  0.4431  0.6536  0.4454
 1266TIP3    H125213   1.022   5.231  16.455  1.5129 -1.1365  2.1110
 1266TIP3    H225214   0.965   5.096  16.414  1.0953 -0.2437 -0.3512
 1267TIP3   OH225215   6.593   1.349  15.454 -0.5546  0.3244 -0.6527
 1267TIP3    H125216   6.564   1.360  15.363  0.3592 -1.6057 -1.2057
 1267TIP3    H225217   6.682   1.313  15.447 -0.4141  0.2987  1.0067
 1268TIP3   OH225218   4.167   0.921  14.188 -0.6775 -0.4055 -0.2620
 1268TIP3    H125219   4.245   0.932  14.242  0.2642 -0.4446 -1.5671
 1268TIP3    H225220   4.201   0.894  14.103 -2.0361  0.7650 -1.2128
 1269TIP3   OH225221   2.858   5.449  11.943 -0.6678 -0.1933  0.0095
 1269TIP3    H125222   2.869   5.452  11.848 -1.1108  0.2128 -0.0277
 1269TIP3    H225223   2.764   5.446  11.956 -0.6122  0.0648  0.4483
 1270TIP3   OH225224   6.625   5.069  13.110 -0.0156 -0.2493  0.0033
 1270TIP3    H125225   6.536   5.097  13.090 -0.6369 -0.8837  1.8120
 1270TIP3    H225226   6.665   5.052  13.025 -2.4217 -2.4161 -0.7415
 1271TIP3   OH225227   0.744   5.437  15.413 -0.5346  0.3060  0.1318
 1271TIP3    H125228   0.798   5.413  15.488  1.4236  1.2860 -0.9490
 1271TIP3    H225229   0.800   5.422  15.337 -1.4704  2.1716 -0.9619
 1272TIP3   OH225230   6.786   4.690   3.330 -0.1565  0.0460  0.3991
 1272TIP3    H125231   6.832   4.696   3.413  1.1674  0.7193 -0.3754
 1272TIP3    H225232   6.791   4.597   3.306  0.2503  0.0143  0.6165
 1273TIP3   OH225233   4.331   6.689  14.343  0.7482  0.6416 -0.2222
 1273TIP3    H125234   4.282   6.709  14.423  0.7264  0.8549 -0.2862
 1273TIP3    H225235   4.376   6.771  14.322  0.2601  0.7737 -0.7722
 1274TIP3   OH225236   4.092   5.197  17.178  0.3393 -0.2386  0.1655
 1274TIP3    H125237   4.154   5.195  17.250  1.1972 -1.2553 -0.5841
 1274TIP3    H225238   4.110   5.280  17.133  1.8719 -0.9984 -0.6592
 1275TIP3   OH225239   6.322   4.841   2.443  0.6303  0.1051  0.1622
 1275TIP3    H125240   6.355   4.930   2.434 -1.0840  1.0635  2.7524
 1275TIP3    H225241   6.231   4.851   2.471  0.2016 -2.4650 -0.1440
 1276TIP3   OH225242   4.773   5.625  16.474 -0.4618  0.2776 -0.1955
 1276TIP3    H125243   4.778   5.692  16.541 -0.2280  1.1375 -1.0640
 1276TIP3    H225244   4.852   5.638  16.421 -0.9018 -0.0681 -0.9393
 1277TIP3   OH225245   2.573   0.379   2.472 -0.3314  0.4990  0.3677
 1277TIP3    H125246   2.668   0.369   2.481 -0.0182  2.4224 -0.4870
 1277TIP3    H225247   2.559   0.390   2.378 -1.4704 -0.3987  0.4260
 1278TIP3   OH225248   5.244   0.770  14.513  0.1620 -0.4123  0.7016
 1278TIP3    H125249   5.264   0.855  14.552 -1.1533 -0.3007  1.1487
 1278TIP3    H225250   5.181   0.789  14.443  1.4506 -0.7736 -0.5922
 1279TIP3   OH225251   6.333   0.202  11.610  0.1899  0.3575 -0.6705
 1279TIP3    H125252   6.267   0.137  11.631 -0.1566  0.4555 -1.4453
 1279TIP3    H225253   6.416   0.162  11.636 -0.1282  0.0395 -0.1582
 1280TIP3   OH225254   5.364   0.243   1.971 -0.8024  0.5575 -0.1974
 1280TIP3    H125255   5.301   0.315   1.974 -1.1009  0.3568 -1.3709
 1280TIP3    H225256   5.439   0.278   1.923 -1.4827 -0.3020 -1.9371
 1281TIP3   OH225257   0.849   1.865   3.830  0.0892 -0.4448  0.2190
 1281TIP3    H125258   0.804   1.947   3.809  0.9973 -0.0727 -0.2866
 1281TIP3    H225259   0.805   1.798   3.777  0.5648  0.0290 -0.7832
 1282TIP3   OH225260   1.159   2.261  14.519  0.3554  0.1443  0.2426
 1282TIP3    H125261   1.240   2.304  14.495  0.5338  0.2888  1.0739
 1282TIP3    H225262   1.097   2.284  14.450  0.3907  1.9089  0.7818
 1283TIP3   OH225263   4.321   6.474  11.745  0.4462  0.2686  0.2180
 1283TIP3    H125264   4.264   6.477  11.668  1.0208  2.0939 -0.1676
 1283TIP3    H225265   4.306   6.388  11.783 -0.1360 -0.5202 -1.7268
 1284TIP3   OH225266   6.343   2.969  15.313 -0.0124 -0.1213 -0.2011
 1284TIP3    H125267   6.404   2.934  15.378 -0.7246  0.4691  0.7954
 1284TIP3    H225268   6.317   3.054  15.348 -0.3365  0.2443 -1.3063
 1285TIP3   OH225269   1.564   5.901  12.491  0.5144  0.1172  0.1568
 1285TIP3    H125270   1.540   5.865  12.406 -1.7495  0.9700  0.3963
 1285TIP3    H225271   1.597   5.989  12.471  2.0390 -0.4724 -0.0174
 1286TIP3   OH225272   4.512   0.631  13.198 -0.2307  0.0130 -0.0210
 1286TIP3    H125273   4.576   0.699  13.218  2.0759 -1.5140 -1.9338
 1286TIP3    H225274   4.427   0.674  13.209  1.0995  2.3024  1.8243
 1287TIP3   OH225275   3.041   1.147  15.477  0.9305 -0.2246  0.5125
 1287TIP3    H125276   3.038   1.081  15.408 -0.1040  1.1012 -0.7366
 1287TIP3    H225277   3.124   1.193  15.462  0.6851  0.0922  0.1264
 1288TIP3   OH225278   4.351   3.366  13.958 -0.2643  0.3524  0.1283
 1288TIP3    H125279   4.323   3.353  14.049  1.1064  1.0599  0.6647
 1288TIP3    H225280   4.393   3.283  13.934 -0.1460  0.3551  0.3241
 1289TIP3   OH225281   3.570   5.732   0.233 -0.0910  0.1908 -0.1414
 1289TIP3    H125282   3.525   5.817   0.226  0.8568  0.5117 -3.4237
 1289TIP3    H225283   3.535   5.681   0.160  0.2896 -1.8057  1.0537
 1290TIP3   OH225284   0.603   4.435   3.946  0.2460  0.4973 -0.0614
 1290TIP3    H125285   0.588   4.528   3.927  1.8837  0.9667  0.8512
 1290TIP3    H225286   0.560   4.389   3.874 -1.5395  1.9140  0.0611
 1291TIP3   OH225287   2.237   0.122  14.017 -0.3300  1.4445  0.3003
 1291TIP3    H125288   2.144   0.111  13.998  0.1518  0.1048 -1.4121
 1291TIP3    H225289   2.276   0.036  13.999  1.4483  2.3621 -0.3908
 1292TIP3   OH225290   4.666   4.266  16.713  0.7770 -0.4213  0.0430
 1292TIP3    H125291   4.737   4.204  16.697  0.2611 -1.9553  3.2862
 1292TIP3    H225292   4.598   4.214  16.756 -1.3673  1.5414 -0.8400
 1293TIP3   OH225293   5.830   4.038  14.732  0.5727 -0.4120  0.7084
 1293TIP3    H125294   5.768   4.077  14.670  0.9155  0.1217  0.6921
 1293TIP3    H225295   5.849   3.952  14.696  0.6552 -0.1642  0.1388
 1294TIP3   OH225296   5.302   3.085  12.178 -0.0298 -0.5001  0.4004
 1294TIP3    H125297   5.282   3.160  12.234  0.5776 -0.2965  0.3466
 1294TIP3    H225298   5.366   3.118  12.115 -1.0906 -0.5877 -0.7522
 1295TIP3   OH225299   5.727   4.590   3.120  0.5487 -0.0836 -0.1751
 1295TIP3    H125300   5.687   4.584   3.034  0.4964  0.2373 -0.1750
 1295TIP3    H225301   5.735   4.499   3.150  0.2061 -0.1717 -0.3501
 1296TIP3   OH225302   2.225   5.080  16.405  0.1547 -0.4846  0.4801
 1296TIP3    H125303   2.320   5.092  16.399  0.0013 -0.2799 -2.2498
 1296TIP3    H225304   2.193   5.163  16.441  1.0411 -0.7081  1.8028
 1297TIP3   OH225305   2.435   3.756   5.011  0.3404  0.5016  0.7536
 1297TIP3    H125306   2.496   3.807   5.064  0.3200  0.4351  0.8413
 1297TIP3    H225307   2.387   3.703   5.075  1.9178 -1.3240  0.4741
 1298TIP3   OH225308   3.673   0.738   4.458  0.4073  0.2345 -0.0922
 1298TIP3    H125309   3.641   0.782   4.536  1.0657  1.2775 -0.3846
 1298TIP3    H225310   3.752   0.692   4.487 -0.1309 -0.5280  0.1566
 1299TIP3   OH225311   1.682   3.851   2.111 -0.0914  0.1379  0.4929
 1299TIP3    H125312   1.621   3.784   2.080 -1.7001  1.5800  0.4130
 1299TIP3    H225313   1.644   3.933   2.078  1.0632  1.2040  1.7920
 1300TIP3   OH225314   2.315   0.202  11.471  0.3126  0.5538  0.0259
 1300TIP3    H125315   2.290   0.231  11.559  0.2792  0.0796  0.1763
 1300TIP3    H225316   2.402   0.239  11.457  0.8504 -0.3845  0.7640
 1301TIP3   OH225317   1.488   3.119  10.943 -0.1753 -0.5546 -0.3628
 1301TIP3    H125318   1.572   3.073  10.944  0.2077  0.1034  2.5457
 1301TIP3    H225319   1.511   3.209  10.922 -0.4881 -0.9196 -2.3080
 1302TIP3   OH225320   5.314   3.659  15.032 -0.3303 -0.3921  0.7055
 1302TIP3    H125321   5.371   3.663  15.109  1.2077 -0.1155 -0.4395
 1302TIP3    H225322   5.293   3.750  15.012  1.4090 -0.2803 -0.7521
 1303TIP3   OH225323   5.855   5.642  12.473  0.5911 -0.0556 -0.3130
 1303TIP3    H125324   5.936   5.651  12.423  1.0723 -0.3190  0.4023
 1303TIP3    H225325   5.787   5.630  12.407  1.4324 -2.1234 -0.8772
 1304TIP3   OH225326   5.774   2.665  14.414 -0.2884  0.5081  0.4288
 1304TIP3    H125327   5.803   2.744  14.370  0.3514  1.7247  2.9192
 1304TIP3    H225328   5.850   2.607  14.413 -0.0762  0.7836  0.4634
 1305TIP3   OH225329   1.843   1.824  14.875 -0.0782 -0.0507 -0.2309
 1305TIP3    H125330   1.793   1.868  14.806  0.6418 -0.1299 -0.8065
 1305TIP3    H225331   1.927   1.870  14.878  0.1880 -0.5482  0.0607
 1306TIP3   OH225332   4.444   4.335  17.075 -0.1050  0.6981  0.1120
 1306TIP3    H125333   4.524   4.387  17.076  1.2251 -1.3109  0.7039
 1306TIP3    H225334   4.398   4.358  17.156  1.0553  0.0627  0.9526
 1307TIP3   OH225335   5.451   5.248   2.062  0.1050  0.1540  0.6425
 1307TIP3    H125336   5.491   5.164   2.086  1.9613  0.9412  0.3919
 1307TIP3    H225337   5.509   5.283   1.994 -0.8804  1.4562  0.4643
 1308TIP3   OH225338   3.273   2.720   5.487 -0.5669 -0.1666  0.5031
 1308TIP3    H125339   3.222   2.757   5.559  0.7547 -1.1858  2.0003
 1308TIP3    H225340   3.355   2.693   5.528 -0.3675 -2.0794 -1.1116
 1309TIP3   OH225341   4.393   0.833  16.479 -0.5381  0.3307 -0.5010
 1309TIP3    H125342   4.414   0.853  16.570  1.1408  2.6377 -1.3499
 1309TIP3    H225343   4.458   0.882  16.428 -1.6669 -0.6472 -2.9405
 1310TIP3   OH225344   2.619   0.267  14.263 -0.8624  0.4140  0.2541
 1310TIP3    H125345   2.630   0.172  14.269 -0.1265  0.3924 -1.1776
 1310TIP3    H225346   2.524   0.280  14.258 -0.8955 -0.4298 -1.9809
 1311TIP3   OH225347   4.624   3.306   4.110 -0.1612  0.1128  0.3082
 1311TIP3    H125348   4.707   3.327   4.153 -0.5503  1.0936  0.5958
 1311TIP3    H225349   4.590   3.391   4.082 -0.9057 -0.3244 -0.1090
 1312TIP3   OH225350   3.563   5.867   2.312 -0.1086  0.0215  0.0707
 1312TIP3    H125351   3.557   5.773   2.296  1.3027  0.0766 -0.8211
 1312TIP3    H225352   3.638   5.896   2.260  0.5744  1.3408  1.7447
 1313TIP3   OH225353   5.871   5.118   6.253  0.5324 -0.8164  0.7857
 1313TIP3    H125354   5.946   5.061   6.232 -0.7988 -2.1113 -0.6738
 1313TIP3    H225355   5.795   5.059   6.248 -1.0457  1.3192 -2.0934
 1314TIP3   OH225356   4.907   0.903   5.522  0.2282  0.5392 -0.5404
 1314TIP3    H125357   4.885   0.821   5.478 -0.5821  0.0762  0.6935
 1314TIP3    H225358   4.903   0.881   5.615  2.1170  1.4366 -0.2203
 1315TIP3   OH225359   6.497   1.537  15.630  0.5974  0.2394 -0.2744
 1315TIP3    H125360   6.401   1.527  15.631  0.6963 -0.7974 -0.7383
 1315TIP3    H225361   6.527   1.471  15.568  1.6660  0.1451  0.3357
 1316TIP3   OH225362   5.696   2.520  13.437  0.4883 -0.1266  0.1109
 1316TIP3    H125363   5.740   2.437  13.419  0.1994 -0.2749  0.0903
 1316TIP3    H225364   5.745   2.557  13.511  1.7315  0.5253 -0.9989
 1317TIP3   OH225365   3.479   3.709   5.313  0.2232  0.4640 -0.1369
 1317TIP3    H125366   3.522   3.793   5.294 -0.1774  0.6420 -0.2507
 1317TIP3    H225367   3.398   3.711   5.263 -0.3956  0.5380  0.8619
 1318TIP3   OH225368   1.951   3.959  17.077  0.2381 -0.1562  0.1308
 1318TIP3    H125369   1.967   3.865  17.071  0.6503 -0.0012 -1.3773
 1318TIP3    H225370   1.864   3.967  17.116  0.2714 -1.1476  0.4158
 1319TIP3   OH225371   0.998   0.987   1.032 -0.2043  0.1989  0.8287
 1319TIP3    H125372   0.971   0.899   1.005 -2.0115  0.6411  1.0961
 1319TIP3    H225373   1.046   1.022   0.957 -2.3901  0.2089 -0.6355
 1320TIP3   OH225374   1.608   1.942  12.416 -0.2280 -0.0990  0.2752
 1320TIP3    H125375   1.625   1.902  12.501  1.0206  0.1853  0.1636
 1320TIP3    H225376   1.685   1.995  12.398 -0.0143 -0.9525 -1.4857
 1321TIP3   OH225377   1.867   1.075   2.337  0.0982 -0.5164 -0.2557
 1321TIP3    H125378   1.945   1.130   2.339  0.8006 -1.4814 -0.6929
 1321TIP3    H225379   1.798   1.132   2.303  0.6122  0.3442  0.1395
 1322TIP3   OH225380   3.621   0.843   0.890  0.2843 -0.3053  0.2274
 1322TIP3    H125381   3.711   0.862   0.914  1.4630 -2.6356 -2.0345
 1322TIP3    H225382   3.612   0.749   0.904 -0.7887 -0.6639 -2.4837
 1323TIP3   OH225383   4.653   3.803   3.903  0.0738  0.1511 -0.0436
 1323TIP3    H125384   4.745   3.792   3.927  0.5290  0.7208 -1.4801
 1323TIP3    H225385   4.614   3.846   3.978  1.3909  1.5680 -0.1499
 1324TIP3   OH225386   1.117   3.230   6.675  0.1657 -0.2808 -0.8079
 1324TIP3    H125387   1.080   3.254   6.590  0.2255 -2.3374 -1.4326
 1324TIP3    H225388   1.198   3.183   6.653  0.5830 -0.1393  0.4099
 1325TIP3   OH225389   5.438   2.516  16.376 -0.4475 -0.5017  0.3127
 1325TIP3    H125390   5.453   2.604  16.340  2.4469 -0.5799  1.2257
 1325TIP3    H225391   5.445   2.529  16.471 -0.4846 -1.6459  0.4677
 1326TIP3   OH225392   0.663   5.398  16.020 -0.0256  0.1125 -0.5771
 1326TIP3    H125393   0.585   5.422  16.070  0.5802 -0.4543  0.6884
 1326TIP3    H225394   0.733   5.393  16.086  0.8562 -0.3843 -1.5317
 1327TIP3   OH225395   4.442   3.886   3.745  0.3583 -0.0225  0.7262
 1327TIP3    H125396   4.385   3.835   3.802 -0.8245  0.8471  0.3394
 1327TIP3    H225397   4.528   3.882   3.787  0.0762 -1.5345  1.1943
 1328TIP3   OH225398   5.154   1.125  15.614 -0.1194 -0.0902  0.0286
 1328TIP3    H125399   5.226   1.150  15.556 -0.0031  1.8614  0.9516
 1328TIP3    H225400   5.083   1.186  15.592 -0.1504  0.5314  1.7312
 1329TIP3   OH225401   2.831   4.443   0.404  0.2603 -0.2915  0.1918
 1329TIP3    H125402   2.870   4.356   0.414 -0.3968 -0.6328 -0.2406
 1329TIP3    H225403   2.856   4.489   0.484  0.6537 -0.8568  0.3996
 1330TIP3   OH225404   4.791   0.136  11.677 -0.1397  0.8520  0.4385
 1330TIP3    H125405   4.874   0.183  11.677  0.2045  0.2477  0.7217
 1330TIP3    H225406   4.726   0.202  11.701  0.5708  0.7831  2.6286
 1331TIP3   OH225407   5.450   4.364   5.357  0.8324 -0.0094  0.0219
 1331TIP3    H125408   5.354   4.355   5.361  0.8226  0.5333  1.0318
 1331TIP3    H225409   5.477   4.297   5.294 -0.4169  1.3342 -2.0088
 1332TIP3   OH225410   5.915   5.974  14.436 -0.2765 -0.2958 -0.2031
 1332TIP3    H125411   5.899   5.891  14.481 -1.2621 -0.9012 -1.6172
 1332TIP3    H225412   5.978   5.952  14.367  0.2902  0.3639  0.1034
 1333TIP3   OH225413   2.236   4.761   0.653  0.3069  0.1891  0.2365
 1333TIP3    H125414   2.251   4.855   0.656  0.4319  0.2720 -2.1989
 1333TIP3    H225415   2.178   4.748   0.578  0.3085 -1.6726  0.5293
 1334TIP3   OH225416   1.798   4.076  14.293  1.1485 -0.3397  0.3753
 1334TIP3    H125417   1.756   4.049  14.374 -0.9395 -1.9904 -1.2145
 1334TIP3    H225418   1.771   4.011  14.228  3.1492  0.6725 -1.5606
 1335TIP3   OH225419   2.513   6.749  14.840 -0.0434  0.0851 -0.1780
 1335TIP3    H125420   2.552   6.836  14.848  0.0942  0.0819 -0.8218
 1335TIP3    H225421   2.554   6.712  14.762 -0.8521 -0.1704 -0.4812
 1336TIP3   OH225422   1.294   1.832  15.237  0.4789  0.5622  0.5463
 1336TIP3    H125423   1.214   1.872  15.205  1.3681  1.8983 -0.0664
 1336TIP3    H225424   1.362   1.897  15.219  1.7577 -0.7053  0.6945
 1337TIP3   OH225425   3.213   5.619   4.045  0.2763 -0.0826  0.2222
 1337TIP3    H125426   3.205   5.533   4.087  0.1289  0.4782  1.3605
 1337TIP3    H225427   3.307   5.628   4.027  0.3306 -0.3641  0.3570
 1338TIP3   OH225428   1.916   3.964  10.494  0.4843  0.2138  0.2566
 1338TIP3    H125429   1.915   3.927  10.582  0.4179  1.6252  0.8639
 1338TIP3    H225430   1.966   4.045  10.502 -0.0312  0.6657 -0.8736
 1339TIP3   OH225431   4.625   3.228  12.239  0.3863  0.0463 -0.3516
 1339TIP3    H125432   4.658   3.268  12.320 -1.8876  0.6728  0.2976
 1339TIP3    H225433   4.689   3.160  12.218  1.2191  0.1466  1.7542
 1340TIP3   OH225434   5.445   4.575   4.953 -0.2845 -0.6151 -0.3981
 1340TIP3    H125435   5.389   4.565   5.031  0.7060 -2.9111  0.0783
 1340TIP3    H225436   5.533   4.587   4.989 -0.3970  2.8756 -1.1439
 1341TIP3   OH225437   2.596   2.898  13.023  0.8334 -0.5976 -0.0240
 1341TIP3    H125438   2.646   2.898  13.104 -0.1353  1.5380  0.6244
 1341TIP3    H225439   2.629   2.973  12.974 -0.2014 -0.4918 -0.5738
 1342TIP3   OH225440   1.568   0.620  15.318  0.1075 -0.2095 -0.0826
 1342TIP3    H125441   1.576   0.579  15.232  1.1868 -1.5148  0.6305
 1342TIP3    H225442   1.651   0.602  15.362 -0.7952 -0.3951  1.6037
 1343TIP3   OH225443   5.721   2.204   0.479 -0.2869  0.1707  0.1987
 1343TIP3    H125444   5.739   2.169   0.392 -0.5195 -1.5321  0.8289
 1343TIP3    H225445   5.627   2.191   0.491 -0.5005  1.6011  0.1889
 1344TIP3   OH225446   2.594   1.507   3.220  0.8956  0.1531 -0.4403
 1344TIP3    H125447   2.644   1.550   3.289 -0.1623 -1.0912  1.1453
 1344TIP3    H225448   2.505   1.542   3.229  0.2694 -1.5526  0.2045
 1345TIP3   OH225449   1.721   1.264   4.162  0.5758  0.2667 -0.0289
 1345TIP3    H125450   1.792   1.288   4.222  1.4119  0.4569 -1.0745
 1345TIP3    H225451   1.756   1.283   4.075 -1.8458  3.1384 -0.4332
 1346TIP3   OH225452   5.512   2.214   5.781  0.2163  0.4013 -0.6791
 1346TIP3    H125453   5.467   2.269   5.717  0.7198  2.7946  0.9979
 1346TIP3    H225454   5.459   2.221   5.860 -0.3228 -2.4342 -0.7398
 1347TIP3   OH225455   3.906   4.264  11.272  0.0265 -0.1366 -0.0109
 1347TIP3    H125456   3.832   4.279  11.331  0.5162  1.1910  0.2869
 1347TIP3    H225457   3.897   4.331  11.204  0.0841 -0.9604 -0.8427
 1348TIP3   OH225458   2.230   4.397   1.356 -0.3827 -0.2928 -0.2019
 1348TIP3    H125459   2.256   4.306   1.339 -1.5524 -0.2309 -2.4390
 1348TIP3    H225460   2.167   4.391   1.428 -1.7142 -1.4267 -1.4520
 1349TIP3   OH225461   5.070   1.206   2.749 -0.2938 -0.1584  0.0809
 1349TIP3    H125462   5.002   1.146   2.779  0.1218  0.4742  2.3500
 1349TIP3    H225463   5.081   1.269   2.820  0.8221  1.3258 -1.3421
 1350TIP3   OH225464   6.730   0.794  11.608  0.1542  0.7453  0.3031
 1350TIP3    H125465   6.745   0.793  11.703 -0.4460  2.5143  0.4474
 1350TIP3    H225466   6.657   0.855  11.597 -1.0801 -0.9435 -1.1270
 1351TIP3   OH225467   1.121   3.586   6.605  0.1213 -0.5133 -0.6308
 1351TIP3    H125468   1.214   3.565   6.593 -0.0329 -1.7153  0.2859
 1351TIP3    H225469   1.075   3.503   6.593 -0.9127  0.2115 -1.8136
 1352TIP3   OH225470   2.665   4.486  12.466  0.0864  0.4374 -0.2487
 1352TIP3    H125471   2.752   4.498  12.505  0.1583  0.0992 -0.3036
 1352TIP3    H225472   2.649   4.392  12.471  0.4153  0.2920 -1.7042
 1353TIP3   OH225473   5.743   3.492  15.733 -0.3118 -0.4936 -0.0890
 1353TIP3    H125474   5.661   3.443  15.724  0.0715 -1.1062 -0.2190
 1353TIP3    H225475   5.751   3.507  15.827 -2.1262  2.2158 -0.3023
 1354TIP3   OH225476   1.221   3.502  17.179  0.5465 -0.0211 -0.6481
 1354TIP3    H125477   1.248   3.423  17.227  0.7888  0.4107 -0.0650
 1354TIP3    H225478   1.215   3.474  17.088  1.2712 -0.5595 -0.5366
 1355TIP3   OH225479   6.199   3.491   5.227 -0.5120 -0.5219  0.1273
 1355TIP3    H125480   6.162   3.578   5.210  0.4728 -0.0789  0.1795
 1355TIP3    H225481   6.161   3.464   5.310 -1.0304 -0.2578 -0.0219
 1356TIP3   OH225482   1.807   0.474  12.805 -0.5217 -0.5699  0.1535
 1356TIP3    H125483   1.900   0.497  12.798 -0.1501 -1.0088  2.9984
 1356TIP3    H225484   1.801   0.387  12.765  0.5265 -1.0371  0.9860
 1357TIP3   OH225485   2.301   1.951  13.794 -0.7398  0.1326  0.4207
 1357TIP3    H125486   2.377   1.896  13.776 -1.0624  0.0240 -0.6269
 1357TIP3    H225487   2.256   1.908  13.866  0.0525  0.0619  0.8783
 1358TIP3   OH225488   1.038   3.935  14.381  0.1650 -0.0228  0.5870
 1358TIP3    H125489   0.952   3.975  14.376  0.8679  1.3880 -0.6346
 1358TIP3    H225490   1.052   3.898  14.294  1.4811  1.2566  0.2316
 1359TIP3   OH225491   1.749   6.153  16.386  0.1055 -0.3478  0.4058
 1359TIP3    H125492   1.779   6.236  16.424 -0.3313  0.2168 -0.4464
 1359TIP3    H225493   1.657   6.169  16.364  0.7849 -0.0790 -2.3968
 1360TIP3   OH225494   6.638   0.567   1.327 -0.5067 -0.7562  0.4187
 1360TIP3    H125495   6.654   0.570   1.232  0.0841  0.7101  0.5417
 1360TIP3    H225496   6.589   0.647   1.345 -0.1500 -0.7582  1.4290
 1361TIP3   OH225497   4.089   4.127   0.654 -0.0143  0.2849 -0.2748
 1361TIP3    H125498   4.161   4.189   0.662  1.3898 -1.3977  0.5442
 1361TIP3    H225499   4.069   4.126   0.560  1.4205  0.3525 -0.5938
 1362TIP3   OH225500   3.455   2.025  15.132 -0.1962  0.2630  0.5792
 1362TIP3    H125501   3.368   1.994  15.157 -1.1086  1.4105 -1.0869
 1362TIP3    H225502   3.515   1.962  15.172 -1.7658 -0.3403  2.0565
 1363TIP3   OH225503   3.717   5.287   1.776  0.1010 -0.0596 -0.9207
 1363TIP3    H125504   3.714   5.313   1.868 -1.0949 -1.0461 -0.6772
 1363TIP3    H225505   3.652   5.218   1.768  2.4776 -2.2797 -1.7884
 1364TIP3   OH225506   0.693   0.886   2.414  0.2978  0.1549 -0.1152
 1364TIP3    H125507   0.662   0.814   2.470 -0.8152 -0.0902 -1.0385
 1364TIP3    H225508   0.647   0.963   2.447 -0.5080 -0.0240 -0.8093
 1365TIP3   OH225509   4.637   0.960  13.637  0.1227  0.4637 -0.2241
 1365TIP3    H125510   4.690   1.015  13.695  0.7875 -0.9644  0.5487
 1365TIP3    H225511   4.673   0.976  13.550  1.0663  0.3736  0.1451
 1366TIP3   OH225512   2.301   4.479   3.270  0.3389  0.1831  0.2172
 1366TIP3    H125513   2.217   4.482   3.223  0.5761  1.5835 -0.1543
 1366TIP3    H225514   2.366   4.503   3.204  1.1934 -2.1152  0.2001
 1367TIP3   OH225515   4.084   3.295  15.502 -0.2915 -0.4387 -0.2055
 1367TIP3    H125516   4.023   3.353  15.547  0.2621  0.0148 -0.0441
 1367TIP3    H225517   4.065   3.309  15.409  0.1257  0.3127 -0.1819
 1368TIP3   OH225518   1.155   0.264   5.184  0.3242 -0.1521  0.0117
 1368TIP3    H125519   1.093   0.337   5.185  0.8861  0.4359 -2.9670
 1368TIP3    H225520   1.104   0.190   5.152  1.1100  0.3660 -2.5760
 1369TIP3   OH225521   0.084   0.204  11.828  0.5812  0.0803 -0.3514
 1369TIP3    H125522   0.061   0.278  11.884 -0.1372 -0.1128 -0.3870
 1369TIP3    H225523   0.177   0.189  11.845  0.3917  0.0799  0.7235
 1370TIP3   OH225524   3.475   2.408   5.491  0.3805  0.1827 -0.4390
 1370TIP3    H125525   3.464   2.432   5.399  1.4823 -0.2537 -0.6976
 1370TIP3    H225526   3.468   2.312   5.491 -0.3105  0.2356  0.0307
 1371TIP3   OH225527   6.493   3.414   1.096 -0.1108  1.0392  0.4202
 1371TIP3    H125528   6.486   3.318   1.102  1.7334  0.7588 -1.5290
 1371TIP3    H225529   6.504   3.432   1.003  0.9630  3.0499  0.9054
 1372TIP3   OH225530   0.443   5.946  12.473 -0.6296  0.2917 -0.2719
 1372TIP3    H125531   0.534   5.916  12.474 -0.3281  1.1720 -1.2353
 1372TIP3    H225532   0.391   5.865  12.478  0.1847 -0.1610  1.3635
 1373TIP3   OH225533   2.874   3.411  11.971 -0.0689 -0.1825 -0.5071
 1373TIP3    H125534   2.874   3.320  12.003 -1.2283  0.5445  1.6217
 1373TIP3    H225535   2.929   3.408  11.893  1.3644 -2.3793  0.5299
 1374TIP3   OH225536   0.436   5.264  13.356 -0.2456 -0.4371 -0.1868
 1374TIP3    H125537   0.477   5.185  13.391 -0.0589 -0.5425 -0.6262
 1374TIP3    H225538   0.506   5.330  13.356 -0.4977 -0.1725  0.5083
 1375TIP3   OH225539   1.175   6.030  13.361  0.1781  0.2782  0.1199
 1375TIP3    H125540   1.137   6.118  13.358 -0.9254 -0.1630  0.6309
 1375TIP3    H225541   1.112   5.979  13.412  1.0759 -0.6798  0.2967
 1376TIP3   OH225542   1.921   1.732  12.965  0.1259  0.2222 -0.2853
 1376TIP3    H125543   1.856   1.663  12.976 -0.0749  0.5269  0.4513
 1376TIP3    H225544   2.005   1.686  12.967 -0.0394 -0.1020 -0.6487
 1377TIP3   OH225545   6.718   1.748   3.723 -0.4284  0.0034  0.1996
 1377TIP3    H125546   6.764   1.744   3.640 -1.2961 -1.3529 -0.2364
 1377TIP3    H225547   6.775   1.700   3.784 -0.2195  0.2136  0.1684
 1378TIP3   OH225548   6.081   6.690   3.186 -0.3018  0.4293 -0.1831
 1378TIP3    H125549   6.124   6.745   3.253  0.8377 -0.4140 -0.2013
 1378TIP3    H225550   6.020   6.635   3.236 -1.3484  1.6024 -0.1485
 1379TIP3   OH225551   1.379   3.929  10.523  1.0101  0.2044  0.4340
 1379TIP3    H125552   1.334   3.965  10.446  0.8746  0.4020  0.6098
 1379TIP3    H225553   1.472   3.931  10.499  1.2156  2.6957  1.2833
 1380TIP3   OH225554   6.583   1.311   4.280  0.3685 -0.6413  0.0309
 1380TIP3    H125555   6.634   1.379   4.324  2.8079 -1.6879 -1.0911
 1380TIP3    H225556   6.556   1.252   4.350  0.3777  0.1135  0.6826
 1381TIP3   OH225557   0.829   6.595  14.328  0.4899  0.1438 -0.1813
 1381TIP3    H125558   0.758   6.658  14.337  0.9333  1.0183 -2.6644
 1381TIP3    H225559   0.818   6.537  14.404 -1.8765  1.2284  0.3583
 1382TIP3   OH225560   5.789   4.116   5.444 -0.0450 -0.8418  0.2010
 1382TIP3    H125561   5.806   4.136   5.536 -1.8164  0.7679  0.2209
 1382TIP3    H225562   5.875   4.103   5.405  0.7387 -1.0400  1.9844
 1383TIP3   OH225563   3.179   6.139   0.347  0.2131  0.5386  0.6349
 1383TIP3    H125564   3.243   6.085   0.301 -0.2070  0.6562 -0.0875
 1383TIP3    H225565   3.230   6.182   0.416  0.1516 -2.4568  2.6360
 1384TIP3   OH225566   6.376   0.469  14.386  0.0355 -0.7997  0.1875
 1384TIP3    H125567   6.388   0.439  14.296  0.9346 -1.4788  0.5230
 1384TIP3    H225568   6.303   0.531  14.382  0.1212 -0.7782 -1.0155
 1385TIP3   OH225569   4.453   5.838   4.384 -0.1514  0.3127  0.0528
 1385TIP3    H125570   4.423   5.927   4.368 -0.3341 -0.0669 -1.8668
 1385TIP3    H225571   4.547   5.846   4.398 -0.2044  0.8278  0.1302
 1386TIP3   OH225572   6.197   1.420  12.352 -0.1988 -0.0841 -0.0501
 1386TIP3    H125573   6.162   1.425  12.441 -0.2481 -2.8023  0.1252
 1386TIP3    H225574   6.172   1.503  12.312 -0.5442  1.0055  2.3316
 1387TIP3   OH225575   3.855   0.429  16.529  0.4626  0.0272 -0.7769
 1387TIP3    H125576   3.792   0.402  16.461 -1.9718  0.9129  1.0775
 1387TIP3    H225577   3.872   0.349  16.579 -1.6189  0.4107  0.6099
 1388TIP3   OH225578   3.139   4.682  11.884 -0.5125  0.0513 -0.6381
 1388TIP3    H125579   3.055   4.640  11.862 -0.3621 -1.0104  0.7858
 1388TIP3    H225580   3.122   4.776  11.873 -1.8386 -0.1651 -0.5503
 1389TIP3   OH225581   4.054   5.559   4.317  0.4843  0.1686  0.3800
 1389TIP3    H125582   4.134   5.602   4.346 -0.6133  0.6102  2.8867
 1389TIP3    H225583   3.986   5.591   4.376 -1.5292 -0.3340 -1.5786
 1390TIP3   OH225584   5.301   1.564   5.356 -0.3137  0.5308 -0.4446
 1390TIP3    H125585   5.305   1.564   5.452 -0.0388  3.0192 -0.4287
 1390TIP3    H225586   5.381   1.610   5.329 -0.7234  0.4326 -1.8555
 1391TIP3   OH225587   2.209   4.294  16.867  0.2827 -0.1135  0.3267
 1391TIP3    H125588   2.246   4.296  16.779  0.0132 -0.1376  0.2107
 1391TIP3    H225589   2.203   4.201  16.888 -1.4004 -0.1820 -0.3839
 1392TIP3   OH225590   4.149   0.811   4.992 -0.0156 -0.0277 -0.3222
 1392TIP3    H125591   4.224   0.871   4.995 -0.0570  0.0040  0.0749
 1392TIP3    H225592   4.094   0.838   5.065  1.7592 -2.8752  2.1804
 1393TIP3   OH225593   5.322   0.347  15.500 -0.4577  0.7667 -0.1537
 1393TIP3    H125594   5.314   0.378  15.410  2.7130  3.8662  0.5307
 1393TIP3    H225595   5.234   0.357  15.537 -0.9853  2.8877 -1.8771
 1394TIP3   OH225596   4.925   6.668  14.254  0.0062 -0.3914  0.3537
 1394TIP3    H125597   4.975   6.720  14.191  0.3098 -0.8343  0.2206
 1394TIP3    H225598   4.856   6.627  14.202 -0.2779 -0.0645  0.4713
 1395TIP3   OH225599   3.508   1.190   3.671 -0.3119 -0.0310  0.0090
 1395TIP3    H125600   3.482   1.099   3.684 -1.4133  0.5002  1.5868
 1395TIP3    H225601   3.430   1.232   3.634  0.8649 -0.1669 -2.7870
 1396TIP3   OH225602   3.623   5.501   0.400 -0.0076  0.4390  0.8970
 1396TIP3    H125603   3.606   5.430   0.462  2.0986 -1.5823 -0.7229
 1396TIP3    H225604   3.696   5.549   0.439  2.2589 -1.6778 -0.5870
 1397TIP3   OH225605   0.031   0.576   3.528 -0.0986  0.6873  0.4554
 1397TIP3    H125606  -0.052   0.529   3.529  0.5814 -0.5365  0.1361
 1397TIP3    H225607   0.055   0.581   3.436  0.2069  1.0243  0.5499
 1398TIP3   OH225608   5.097   6.679   5.253  1.1415 -0.1422 -0.0487
 1398TIP3    H125609   5.122   6.771   5.245  0.1392  0.0002 -1.8891
 1398TIP3    H225610   5.176   6.630   5.233  1.2679  0.3299 -0.7387
 1399TIP3   OH225611   6.180   0.824   3.347 -0.0189 -0.3009 -0.5302
 1399TIP3    H125612   6.232   0.858   3.420 -0.6356 -0.3212 -0.0834
 1399TIP3    H225613   6.155   0.736   3.373 -1.1565  0.0886 -0.2987
 1400TIP3   OH225614   1.594   4.042   2.432 -0.5189  0.2619 -0.3802
 1400TIP3    H125615   1.510   3.999   2.414 -0.2042 -1.4297  1.9449
 1400TIP3    H225616   1.579   4.094   2.510  0.4949  0.2832 -0.1860
 1401TIP3   OH225617   2.240   3.268  12.913 -0.1512 -0.0587 -0.6280
 1401TIP3    H125618   2.211   3.253  13.003 -0.5215  0.9680 -0.5712
 1401TIP3    H225619   2.160   3.268  12.862  0.0098 -0.0991 -0.8808
 1402TIP3   OH225620   0.759   3.902   4.611 -0.1990  0.0267 -0.1848
 1402TIP3    H125621   0.784   3.810   4.621 -0.3135 -0.0030 -0.1771
 1402TIP3    H225622   0.689   3.915   4.675  0.5548  0.3993  0.5775
 1403TIP3   OH225623   6.101   1.571  13.165  0.2072 -0.2239  0.1190
 1403TIP3    H125624   6.008   1.593  13.157  0.0363 -0.3133  1.7030
 1403TIP3    H225625   6.138   1.643  13.216 -0.0543 -2.7537  4.0783
 1404TIP3   OH225626   1.062   2.371   5.325 -0.3865 -0.2691 -0.4097
 1404TIP3    H125627   1.120   2.357   5.400  1.7110 -0.1651 -1.9735
 1404TIP3    H225628   1.070   2.464   5.306 -1.4608 -0.1594 -0.3313
 1405TIP3   OH225629   2.191   5.780  13.094  0.6501  0.0077 -0.1010
 1405TIP3    H125630   2.138   5.785  13.014  0.3887 -0.3369  0.0483
 1405TIP3    H225631   2.173   5.693  13.129  1.2797 -0.0877 -0.0182
 1406TIP3   OH225632   0.189   3.433  17.179  0.2235  0.0956  0.5751
 1406TIP3    H125633   0.195   3.460  17.087 -2.1968 -1.8703 -0.2097
 1406TIP3    H225634   0.129   3.497  17.219  1.0689  0.7937  0.7408
 1407TIP3   OH225635   4.966   1.405  14.058 -0.4746 -0.1703  0.1597
 1407TIP3    H125636   4.910   1.458  14.114 -0.6091  2.3448 -2.2851
 1407TIP3    H225637   5.054   1.420  14.092 -0.3232  2.9094 -1.4421
 1408TIP3   OH225638   6.049   3.264  13.112  0.3804 -0.0023 -0.5862
 1408TIP3    H125639   6.107   3.340  13.121 -0.9685  0.8581  0.8720
 1408TIP3    H225640   5.983   3.292  13.049 -1.0395  0.6259  1.1473
 1409TIP3   OH225641   0.392   5.494  12.087  0.6995  0.1671  0.7934
 1409TIP3    H125642   0.313   5.476  12.137  0.2515  2.2080  0.8707
 1409TIP3    H225643   0.424   5.408  12.060 -2.4589 -0.6044 -0.6554
 1410TIP3   OH225644   4.695   2.547  15.213  0.1276  0.5564 -0.5985
 1410TIP3    H125645   4.631   2.565  15.144  0.7551  0.4848 -1.2104
 1410TIP3    H225646   4.663   2.596  15.289 -2.1521 -1.6972 -0.0350
 1411TIP3   OH225647   2.702   6.008   2.538 -0.1812 -0.1948 -0.2777
 1411TIP3    H125648   2.681   6.019   2.445  0.6887  1.9748 -0.2477
 1411TIP3    H225649   2.709   6.097   2.572  0.1950 -0.9563  1.7222
 1412TIP3   OH225650   4.401   2.061  14.565  0.3527  0.1793  0.7756
 1412TIP3    H125651   4.470   2.059  14.632  1.1433 -0.1374 -0.0418
 1412TIP3    H225652   4.339   1.993  14.593  0.6470  0.0922  1.2195
 1413TIP3   OH225653   4.981   4.838  16.898  0.3187 -0.1735 -0.1549
 1413TIP3    H125654   4.893   4.867  16.924 -0.7613 -1.8339 -1.8322
 1413TIP3    H225655   4.995   4.757  16.947  0.4611 -0.4854 -0.7078
 1414TIP3   OH225656   3.765   1.207  12.707  0.2586 -0.1890  0.0357
 1414TIP3    H125657   3.851   1.237  12.737  0.3135 -0.2854 -0.0266
 1414TIP3    H225658   3.758   1.241  12.617 -1.2181  2.8541  1.2096
 1415TIP3   OH225659   0.350   0.531  11.761 -0.0568  0.0520  0.1255
 1415TIP3    H125660   0.264   0.546  11.800  0.9419  1.8514  1.7545
 1415TIP3    H225661   0.332   0.514  11.669 -2.1447  0.5501  0.4137
 1416TIP3   OH225662   2.389   6.171   2.591 -0.2143  0.5655 -0.1568
 1416TIP3    H125663   2.301   6.210   2.591 -0.1497  0.7157 -0.5778
 1416TIP3    H225664   2.447   6.242   2.618 -0.1521  0.6346 -0.4691
 1417TIP3   OH225665   0.080   3.971  11.942  0.1401 -0.3509  0.0080
 1417TIP3    H125666   0.122   4.024  12.010  2.0216 -0.2512 -1.1937
 1417TIP3    H225667   0.029   4.034  11.891 -0.2148 -0.2119  0.5343
 1418TIP3   OH225668   5.363   6.326  11.911  0.0208 -0.1873 -0.4496
 1418TIP3    H125669   5.327   6.408  11.876  0.3132  0.0060 -0.3095
 1418TIP3    H225670   5.291   6.286  11.960  0.0714  0.3270  0.0573
 1419TIP3   OH225671   4.246   6.412  14.823  0.0145 -0.3939  0.4273
 1419TIP3    H125672   4.194   6.483  14.859 -0.1178  0.3956 -1.2576
 1419TIP3    H225673   4.216   6.404  14.732  1.1645 -1.5088  0.1294
 1420TIP3   OH225674   6.072   1.372  14.693  0.7991  0.7369 -0.2585
 1420TIP3    H125675   6.040   1.328  14.614 -0.5403 -1.9145  1.6764
 1420TIP3    H225676   5.995   1.417  14.729  1.5255  2.3932 -0.7130
 1421TIP3   OH225677   5.624   5.810   4.831 -0.5110 -0.2886 -0.2748
 1421TIP3    H125678   5.529   5.800   4.842 -0.6270  0.2956 -0.6994
 1421TIP3    H225679   5.662   5.746   4.891 -1.1909 -1.8060 -1.4082
 1422TIP3   OH225680   1.037   2.971   2.510  0.2841 -0.0010  0.6784
 1422TIP3    H125681   1.010   3.047   2.460 -1.3935  0.4071  2.1631
 1422TIP3    H225682   1.014   2.896   2.455  0.3599  0.5040 -0.0441
 1423TIP3   OH225683   6.278   0.336  15.076 -0.5242 -0.3704  0.1444
 1423TIP3    H125684   6.257   0.334  14.983 -0.2442 -0.5096  0.0845
 1423TIP3    H225685   6.371   0.357  15.080 -0.5747 -0.1850  0.3977
 1424TIP3   OH225686   5.987   4.132  11.026 -0.0943 -0.4220 -0.8510
 1424TIP3    H125687   6.071   4.179  11.030 -0.2879 -0.0105 -1.3938
 1424TIP3    H225688   5.946   4.166  10.946 -0.7482 -0.6701 -0.6181
 1425TIP3   OH225689   0.690   3.232  16.588  0.0117 -0.0987 -0.1288
 1425TIP3    H125690   0.623   3.185  16.637  1.9448 -1.4935  1.2107
 1425TIP3    H225691   0.659   3.323  16.586 -1.7445 -0.6652  0.7231
 1426TIP3   OH225692   4.873   4.512  15.866  0.2147  0.3308 -0.0646
 1426TIP3    H125693   4.869   4.462  15.947  0.4904 -0.1423 -0.3370
 1426TIP3    H225694   4.856   4.603  15.892 -0.3203  0.0883  0.4244
 1427TIP3   OH225695   2.856   0.038  14.088  0.0226 -0.0494  0.7827
 1427TIP3    H125696   2.851   0.004  14.177  1.6430 -0.4079  0.7589
 1427TIP3    H225697   2.874  -0.038  14.034 -0.8179  0.1878  0.1638
 1428TIP3   OH225698   0.062   0.838   2.468 -0.5902  0.2970  0.3115
 1428TIP3    H125699  -0.022   0.839   2.514 -0.1716 -0.3917  1.1074
 1428TIP3    H225700   0.105   0.758   2.498 -0.3063 -0.1664 -1.2945
 1429TIP3   OH225701   5.640   3.987   1.855  0.1236 -0.7487  0.9395
 1429TIP3    H125702   5.716   3.928   1.857  0.5498 -0.3490 -1.7419
 1429TIP3    H225703   5.573   3.940   1.904  1.4208 -2.1038  1.4751
 1430TIP3   OH225704   6.086   6.204   2.815 -0.1797 -0.2592  0.1894
 1430TIP3    H125705   6.128   6.126   2.852  0.9668  0.4613  0.4015
 1430TIP3    H225706   6.003   6.210   2.861  1.3871  0.8430  2.9458
 1431TIP3   OH225707   5.722   2.400   0.278 -0.0132 -0.5454  0.2048
 1431TIP3    H125708   5.811   2.416   0.248 -0.4195  2.4794  0.4645
 1431TIP3    H225709   5.676   2.366   0.201  0.4566  1.4378 -0.9815
 1432TIP3   OH225710   2.940   3.426   3.538  0.2094 -0.5771 -0.2892
 1432TIP3    H125711   3.018   3.392   3.584  0.2624 -2.1829 -1.5478
 1432TIP3    H225712   2.976   3.481   3.468  0.1357  1.3589  1.1520
 1433TIP3   OH225713   0.528   5.368  12.826 -0.0011  0.1969 -0.0458
 1433TIP3    H125714   0.457   5.400  12.770 -1.2150 -1.6668  0.3488
 1433TIP3    H225715   0.489   5.361  12.913  1.5815  2.0846  0.8500
 1434TIP3   OH225716   6.296   2.663   4.270 -0.2762 -0.8624  0.0588
 1434TIP3    H125717   6.265   2.662   4.180 -0.3353  0.2461  0.0544
 1434TIP3    H225718   6.248   2.593   4.314 -0.3506 -1.3096 -0.7294
 1435TIP3   OH225719   4.115   3.612  13.875 -0.0808  0.0415  0.3086
 1435TIP3    H125720   4.125   3.548  13.804 -0.7194  0.1336  0.1307
 1435TIP3    H225721   4.106   3.559  13.954 -2.0244 -0.1385 -0.0088
 1436TIP3   OH225722   6.088   5.696   4.243 -0.2519 -0.1372 -0.2780
 1436TIP3    H125723   6.155   5.762   4.260  0.3114 -0.6225 -0.5939
 1436TIP3    H225724   6.059   5.713   4.154 -0.3515 -0.1034 -0.2394
 1437TIP3   OH225725   1.202   2.809  13.485 -0.2207  0.1389  0.2138
 1437TIP3    H125726   1.221   2.791  13.577  0.4523  2.3207  0.5327
 1437TIP3    H225727   1.289   2.818  13.444 -0.5226 -0.0185 -0.4638
 1438TIP3   OH225728   1.006   0.493   5.184 -0.6193  0.0740 -1.0389
 1438TIP3    H125729   1.063   0.545   5.127 -1.0028 -0.4619 -1.9155
 1438TIP3    H225730   0.948   0.558   5.225  0.6982  0.6356 -0.0473
 1439TIP3   OH225731   3.936   5.962   2.727 -0.3786 -0.8856 -0.0908
 1439TIP3    H125732   3.884   5.953   2.647 -0.0835 -1.5805 -0.2088
 1439TIP3    H225733   3.915   5.883   2.778 -0.0068 -0.8081  0.1856
 1440TIP3   OH225734   3.980   4.122   1.650  0.2415  0.2904  0.4435
 1440TIP3    H125735   3.966   4.138   1.557  2.1293 -0.5533 -0.0038
 1440TIP3    H225736   4.053   4.179   1.674 -0.7562  1.1041  1.6111
 1441TIP3   OH225737   3.612   1.851  11.138 -0.0919  0.2900  0.5536
 1441TIP3    H125738   3.669   1.777  11.120  1.2613  1.1779  1.0926
 1441TIP3    H225739   3.604   1.897  11.054 -1.3911 -0.7521  0.0838
 1442TIP3   OH225740   2.780   3.663  11.928  0.4420  0.0812 -0.6834
 1442TIP3    H125741   2.801   3.652  11.835 -2.9142 -1.9788 -1.3002
 1442TIP3    H225742   2.805   3.580  11.968 -0.3487  0.0609 -0.2280
 1443TIP3   OH225743   2.465   5.342  13.372  0.4123 -0.0553 -0.4335
 1443TIP3    H125744   2.409   5.265  13.369  0.3214  0.0203 -0.6951
 1443TIP3    H225745   2.410   5.413  13.339  0.6886  0.0051 -0.7622
 1444TIP3   OH225746   1.840   3.144  11.376 -0.0523  0.2627  0.5112
 1444TIP3    H125747   1.831   3.068  11.319  0.2328  0.0256  0.7825
 1444TIP3    H225748   1.771   3.204  11.348  0.3254  0.3068 -0.3343
 1445TIP3   OH225749   2.723   4.649   1.179 -0.3639  0.3040  0.0512
 1445TIP3    H125750   2.727   4.573   1.237 -0.0879  0.5800  0.4008
 1445TIP3    H225751   2.766   4.621   1.098 -1.8177 -0.4701 -0.4696
 1446TIP3   OH225752   4.629   0.613  16.436  0.8680 -0.0013 -0.4719
 1446TIP3    H125753   4.611   0.654  16.520  0.3750 -0.9791 -0.0973
 1446TIP3    H225754   4.554   0.636  16.381  0.8247 -0.0066 -0.4142
 1447TIP3   OH225755   2.481   4.101  13.578  0.0672 -0.4286  0.4316
 1447TIP3    H125756   2.515   4.029  13.525  1.4700 -0.3463  1.1760
 1447TIP3    H225757   2.480   4.067  13.668 -1.5131 -0.2990  0.4823
 1448TIP3   OH225758   0.599   4.568   5.641 -0.1271 -0.0523  0.6857
 1448TIP3    H125759   0.520   4.611   5.609 -0.2317 -0.3358  0.5631
 1448TIP3    H225760   0.569   4.515   5.715 -0.0067  0.0481  0.8064
 1449TIP3   OH225761   2.878   0.241  14.498  0.2129  0.2409  0.2143
 1449TIP3    H125762   2.788   0.221  14.525 -0.2705  1.0264 -0.7605
 1449TIP3    H225763   2.930   0.230  14.578 -0.3115 -2.8270  0.1674
 1450TIP3   OH225764   2.270   3.553   5.120  0.6927 -0.1252  0.2492
 1450TIP3    H125765   2.248   3.539   5.212  0.1143 -1.1442 -0.0348
 1450TIP3    H225766   2.197   3.514   5.072  2.1884 -1.8867 -0.6788
 1451TIP3   OH225767   4.990   2.116   2.595  0.1873 -0.5768  0.6238
 1451TIP3    H125768   5.050   2.059   2.549 -1.0472 -1.6509  0.3118
 1451TIP3    H225769   4.941   2.058   2.653 -0.6772  0.2427  0.7267
 1452TIP3   OH225770   1.087   4.709  11.070 -0.4353 -0.0224 -0.3271
 1452TIP3    H125771   1.003   4.731  11.110 -1.6605 -2.7228 -1.2828
 1452TIP3    H225772   1.064   4.668  10.986  1.8193 -0.7798 -0.6236
 1453TIP3   OH225773   6.398   1.455  13.247  0.7225 -0.7064 -0.0448
 1453TIP3    H125774   6.483   1.489  13.274 -0.9267  3.0637  0.6690
 1453TIP3    H225775   6.374   1.508  13.171 -1.7446 -0.5127  0.8135
 1454TIP3   OH225776   6.757   5.059  10.796  0.1911 -0.2853 -0.2751
 1454TIP3    H125777   6.671   5.095  10.777 -0.4695 -1.9271 -0.4521
 1454TIP3    H225778   6.813   5.091  10.725 -0.1842  1.0342  0.0087
 1455TIP3   OH225779   1.868   5.894   3.170 -0.3594  0.1295 -0.2924
 1455TIP3    H125780   1.778   5.927   3.169 -0.8269 -1.1316 -0.7688
 1455TIP3    H225781   1.920   5.966   3.205 -1.7904  0.2824  1.5852
 1456TIP3   OH225782   4.425   4.035   0.858  0.2543  0.4045 -0.0305
 1456TIP3    H125783   4.502   4.040   0.801 -1.7051  0.9069 -2.7593
 1456TIP3    H225784   4.367   4.105   0.826 -2.5823 -1.8369 -0.0185
 1457TIP3   OH225785   1.585   0.444   0.368  0.3869  0.3590  0.5396
 1457TIP3    H125786   1.597   0.474   0.278  1.4984  0.5874  0.7553
 1457TIP3    H225787   1.629   0.359   0.371 -0.0892  0.1171  0.7355
 1458TIP3   OH225788   2.626   3.485  13.357  0.0094  0.1353 -0.0084
 1458TIP3    H125789   2.713   3.517  13.382  0.3296 -0.6087 -0.1412
 1458TIP3    H225790   2.609   3.413  13.418 -1.0033  1.0074  0.7478
 1459TIP3   OH225791   4.396   4.292  15.664  0.1079  0.7519 -0.1490
 1459TIP3    H125792   4.357   4.336  15.739 -1.0457 -0.0985 -0.2333
 1459TIP3    H225793   4.406   4.201  15.692  0.5236  0.6205 -0.7035
 1460TIP3   OH225794   0.181   4.614  12.749 -0.2129  0.2255 -0.6352
 1460TIP3    H125795   0.208   4.577  12.832 -3.0336  0.6577  0.5401
 1460TIP3    H225796   0.226   4.562  12.683 -0.8297 -2.5283  1.0677
 1461TIP3   OH225797   0.864   4.618   1.425  0.0831 -0.1698  0.2370
 1461TIP3    H125798   0.881   4.705   1.462  2.7194 -0.1350 -0.9052
 1461TIP3    H225799   0.900   4.623   1.336 -1.5995 -1.8108 -0.5736
 1462TIP3   OH225800   3.919   3.190   6.136  0.7225  0.6149 -0.3522
 1462TIP3    H125801   3.998   3.206   6.188  0.7069 -0.3749 -0.0083
 1462TIP3    H225802   3.946   3.205   6.046  1.6525 -0.9061 -0.3522
 1463TIP3   OH225803   3.634   4.459  15.590  0.1587  0.3686 -0.1092
 1463TIP3    H125804   3.540   4.479  15.594  0.2532  1.0190 -1.0943
 1463TIP3    H225805   3.670   4.494  15.671 -0.4637  0.0259  0.3212
 1464TIP3   OH225806   1.884   2.580  12.296 -0.4684 -0.2440  0.3661
 1464TIP3    H125807   1.973   2.547  12.285 -0.4321  0.3231 -1.1106
 1464TIP3    H225808   1.893   2.652  12.358 -0.1531 -1.2201  1.4868
 1465TIP3   OH225809   2.721   4.553   2.427 -0.2569 -0.1387 -0.0800
 1465TIP3    H125810   2.783   4.494   2.468  0.6183  1.1366  0.4727
 1465TIP3    H225811   2.708   4.517   2.340  0.7921 -0.7545  0.0055
 1466TIP3   OH225812   3.926   0.335   5.605 -0.2701 -0.4355 -0.0160
 1466TIP3    H125813   3.997   0.399   5.602 -1.0297  0.5233  1.6088
 1466TIP3    H225814   3.958   0.260   5.555  1.7784  0.0934  0.4745
 1467TIP3   OH225815   1.994   5.765   4.698 -0.3241 -0.1522  0.1844
 1467TIP3    H125816   1.994   5.858   4.679 -3.9766 -0.0522  0.2623
 1467TIP3    H225817   1.946   5.726   4.625  0.6592 -1.9275  0.4524
 1468TIP3   OH225818   5.948   0.906  14.970 -0.3906  0.3027  0.1607
 1468TIP3    H125819   6.030   0.939  15.006 -1.2372 -0.2140  2.6638
 1468TIP3    H225820   5.944   0.815  14.999  0.0267 -0.9470 -3.3446
 1469TIP3   OH225821   5.692   2.816   2.702  0.1784 -0.4277 -1.0305
 1469TIP3    H125822   5.647   2.733   2.715  0.2684 -0.4490 -0.8449
 1469TIP3    H225823   5.708   2.849   2.791  0.8475 -0.5964 -1.0832
 1470TIP3   OH225824   3.527   2.020  15.802  0.4757 -0.0970  0.0148
 1470TIP3    H125825   3.494   2.042  15.889  0.4278 -0.8250  0.1852
 1470TIP3    H225826   3.449   2.001  15.751  0.5159  0.1537 -0.1431
 1471TIP3   OH225827   3.248   0.606  16.392  0.6463 -0.0716  0.0358
 1471TIP3    H125828   3.337   0.585  16.364  0.3708 -1.1130 -0.0836
 1471TIP3    H225829   3.192   0.561  16.329  0.0167 -1.6982  1.7197
 1472TIP3   OH225830   2.865   3.168  15.885 -0.3822  0.0321  0.2333
 1472TIP3    H125831   2.889   3.077  15.868  1.4364  0.6813 -0.8156
 1472TIP3    H225832   2.770   3.168  15.889 -0.3917 -1.9432  0.4306
 1473TIP3   OH225833   6.087   0.359  13.422  0.1880  0.2168 -0.1101
 1473TIP3    H125834   6.164   0.351  13.367  0.1539 -0.3363 -0.0813
 1473TIP3    H225835   6.089   0.450  13.453  0.4037  0.4224 -0.7233
 1474TIP3   OH225836   4.663   5.759  15.930 -0.6438  0.3448  0.1021
 1474TIP3    H125837   4.682   5.752  15.836 -0.9717  0.2231  0.0455
 1474TIP3    H225838   4.573   5.793  15.934 -0.3323  1.1607  0.3734
 1475TIP3   OH225839   1.464   0.289   3.554  0.0324 -0.0463  0.7308
 1475TIP3    H125840   1.446   0.252   3.468 -1.7383  0.0117  1.0391
 1475TIP3    H225841   1.539   0.346   3.541  0.8720 -1.3799 -0.3903
 1476TIP3   OH225842   3.179   1.542   5.268 -0.5671 -0.7163  0.1333
 1476TIP3    H125843   3.132   1.469   5.308 -0.3262 -1.4986 -0.9553
 1476TIP3    H225844   3.234   1.577   5.338  0.1689 -2.3268  0.3855
 1477TIP3   OH225845   0.739   0.736   2.056  0.5530 -0.0985 -0.1099
 1477TIP3    H125846   0.689   0.656   2.070  0.3368 -0.1019 -0.8769
 1477TIP3    H225847   0.711   0.767   1.970  1.7855 -0.0535 -0.5150
 1478TIP3   OH225848   1.973   4.380   3.506 -0.4024  0.2240  0.1390
 1478TIP3    H125849   1.989   4.474   3.492  0.0276  0.1992  0.4671
 1478TIP3    H225850   1.982   4.368   3.601 -3.6346  0.4520  0.5573
 1479TIP3   OH225851   3.896   0.654  10.930 -0.0832  0.0964 -0.0699
 1479TIP3    H125852   3.877   0.560  10.927  0.3506 -0.0387  1.1191
 1479TIP3    H225853   3.832   0.693  10.870  0.5349 -1.0728 -1.5369
 1480TIP3   OH225854   4.647   5.688   2.873 -0.2710 -0.2924 -0.3693
 1480TIP3    H125855   4.677   5.600   2.893 -4.4611 -1.5235  1.0075
 1480TIP3    H225856   4.624   5.726   2.958 -0.0347  1.5452 -1.0901
 1481TIP3   OH225857   2.851   2.235   4.678  0.1742 -0.0133  0.0099
 1481TIP3    H125858   2.828   2.213   4.768  2.3055  1.1928  0.8916
 1481TIP3    H225859   2.783   2.296   4.650 -0.4298 -0.2932  0.8369
 1482TIP3   OH225860   5.453   0.578  12.806 -0.7110  0.1783  0.0253
 1482TIP3    H125861   5.538   0.621  12.811  0.2458 -1.8438  3.8355
 1482TIP3    H225862   5.449   0.541  12.718  2.5858 -0.0659 -0.0851
 1483TIP3   OH225863   2.675   2.801   5.537 -0.4369  0.1129  0.0170
 1483TIP3    H125864   2.657   2.853   5.459 -3.5372 -1.6462 -0.5319
 1483TIP3    H225865   2.739   2.736   5.508 -2.0559 -0.9404 -1.2833
 1484TIP3   OH225866   0.341   4.362  17.106  0.3850 -0.1584 -0.0828
 1484TIP3    H125867   0.418   4.386  17.157  0.3340 -0.6310  0.2197
 1484TIP3    H225868   0.371   4.291  17.048  0.3546  0.1326 -0.4561
 1485TIP3   OH225869   4.172   4.599   5.747  0.0747  0.9452  0.0903
 1485TIP3    H125870   4.191   4.649   5.827 -0.9046  0.8650  0.3815
 1485TIP3    H225871   4.125   4.661   5.691  1.1013  1.1160 -0.5811
 1486TIP3   OH225872   2.248   3.480  12.057 -0.1113 -0.6606 -0.1150
 1486TIP3    H125873   2.336   3.461  12.090  1.2231  2.4804 -1.6240
 1486TIP3    H225874   2.255   3.469  11.962 -1.0650  0.5696 -0.3466
 1487TIP3   OH225875   3.426   4.644  14.300  0.0460  0.2850  0.2028
 1487TIP3    H125876   3.456   4.693  14.377  0.2573  2.3582 -1.1469
 1487TIP3    H225877   3.337   4.616  14.323  1.2229 -1.8889  2.4053
 1488TIP3   OH225878   6.007   2.418  16.103  0.4884 -0.4413  0.3370
 1488TIP3    H125879   6.034   2.344  16.049 -0.4382 -1.2806  1.0203
 1488TIP3    H225880   5.915   2.432  16.079  0.7112  0.6013  0.0769
 1489TIP3   OH225881   4.661   0.168  14.866 -0.0165  0.0735  0.1417
 1489TIP3    H125882   4.698   0.171  14.954  0.6548  5.5812 -0.1346
 1489TIP3    H225883   4.732   0.136  14.810  1.4672  2.0533  0.8603
 1490TIP3   OH225884   6.221   1.059  11.563 -0.5549 -0.5297 -0.4596
 1490TIP3    H125885   6.245   0.999  11.633 -0.4087  0.7822  0.6250
 1490TIP3    H225886   6.304   1.079  11.519 -0.2650  0.5488  0.5362
 1491TIP3   OH225887   0.735   6.516  15.555 -0.5119  0.1751 -0.6399
 1491TIP3    H125888   0.716   6.435  15.507 -2.6877  1.0508 -1.2790
 1491TIP3    H225889   0.782   6.570  15.491  0.6499 -0.4381 -0.3157
 1492TIP3   OH225890   4.937   3.590   3.037 -0.2210  0.3843 -0.1717
 1492TIP3    H125891   4.934   3.509   2.987  0.5107 -0.1380  0.6066
 1492TIP3    H225892   4.944   3.659   2.971  1.2872 -0.3273 -0.7819
 1493TIP3   OH225893   3.083   4.851   4.278 -0.4799  0.4981  0.3857
 1493TIP3    H125894   3.131   4.880   4.356  1.9755  0.4222 -1.0695
 1493TIP3    H225895   3.052   4.763   4.300 -2.2412  1.5431  2.3039
 1494TIP3   OH225896   5.040   3.213  16.005  0.0054  0.0879 -0.2990
 1494TIP3    H125897   5.070   3.134  15.959 -0.5402 -0.0687 -0.3828
 1494TIP3    H225898   5.093   3.215  16.085  0.7721  0.2201 -0.8010
 1495TIP3   OH225899   5.088   3.594  12.586 -0.1612  0.0583  0.5234
 1495TIP3    H125900   5.176   3.606  12.552 -0.7348  2.0565 -0.3592
 1495TIP3    H225901   5.044   3.539  12.520  0.2084 -0.3242  0.5987
 1496TIP3   OH225902   3.334   2.325  11.788  0.2618  0.4829 -0.3262
 1496TIP3    H125903   3.390   2.250  11.769 -1.3872 -0.4696 -1.6223
 1496TIP3    H225904   3.325   2.371  11.705  0.0586  1.2559  0.1243
 1497TIP3   OH225905   1.242   3.839  15.551 -0.4349 -0.2345  0.1223
 1497TIP3    H125906   1.295   3.769  15.588 -0.2769  0.4223  1.1540
 1497TIP3    H225907   1.152   3.815  15.571 -0.2334  1.6111  3.6926
 1498TIP3   OH225908   6.266   2.691  15.516  0.6971  0.0836 -0.2805
 1498TIP3    H125909   6.333   2.691  15.584 -0.9925  1.7530  1.4262
 1498TIP3    H225910   6.231   2.602  15.517  0.8196  0.0455  0.8871
 1499TIP3   OH225911   2.162   0.879  11.849 -0.9103  0.9948  0.0446
 1499TIP3    H125912   2.201   0.792  11.844 -0.0550  1.3863 -0.0589
 1499TIP3    H225913   2.157   0.909  11.758 -0.7014  1.2799  0.1271
 1500TIP3   OH225914   5.690   3.478  15.417 -0.6035 -0.2390  0.2337
 1500TIP3    H125915   5.773   3.449  15.380  1.0537  2.5246  1.6633
 1500TIP3    H225916   5.712   3.512  15.503 -3.0436  1.4754  0.2422
 1501TIP3   OH225917   1.313   3.221  16.464  0.0510 -0.7301  0.3745
 1501TIP3    H125918   1.256   3.145  16.474  0.7188 -1.4182 -0.8914
 1501TIP3    H225919   1.378   3.194  16.399  3.4063 -0.8878  3.6085
 1502TIP3   OH225920   3.354   5.113  14.949 -0.1911  0.3079 -0.6694
 1502TIP3    H125921   3.371   5.097  14.857 -2.0750  0.8039 -1.1203
 1502TIP3    H225922   3.317   5.201  14.952  1.8596  1.1766  0.8058
 1503TIP3   OH225923   0.648   6.569   6.125  0.1661  0.9724  0.0112
 1503TIP3    H125924   0.559   6.588   6.155 -0.2155  2.2242 -1.8583
 1503TIP3    H225925   0.689   6.524   6.199 -2.6770 -1.5438  0.1346
 1504TIP3   OH225926   1.081   5.876  14.742 -0.1465  0.7252 -0.3717
 1504TIP3    H125927   1.070   5.804  14.804  0.6183  0.9813  0.0639
 1504TIP3    H225928   1.106   5.833  14.660  0.4665  0.4964 -0.0721
 1505TIP3   OH225929   3.293   2.742   5.771  0.4331  0.0192  0.0763
 1505TIP3    H125930   3.219   2.681   5.769  0.5660 -0.0960 -2.2427
 1505TIP3    H225931   3.331   2.730   5.858 -2.7647  0.7073  1.6607
 1506TIP3   OH225932   5.851   2.564  13.986  0.1139  0.1996  0.7984
 1506TIP3    H125933   5.931   2.616  13.983 -0.8899  1.7589  0.6040
 1506TIP3    H225934   5.791   2.615  14.041 -1.1802 -0.3247 -0.0901
 1507TIP3   OH225935   1.728   1.316  15.329  0.5144 -0.2221 -0.3798
 1507TIP3    H125936   1.703   1.259  15.402  0.2705 -0.7182 -0.8446
 1507TIP3    H225937   1.682   1.280  15.253  0.6151  0.4039 -0.7425
 1508TIP3   OH225938   4.242   3.111  16.259  0.5945  0.1643  0.0010
 1508TIP3    H125939   4.309   3.176  16.238 -0.0164  0.4956 -0.9931
 1508TIP3    H225940   4.223   3.124  16.352  1.8519  0.1069  0.2717
 1509TIP3   OH225941   4.336   1.188   1.695 -0.3731 -0.0857  0.0006
 1509TIP3    H125942   4.253   1.226   1.666 -0.3806  0.1865  0.3745
 1509TIP3    H225943   4.348   1.220   1.785  0.5596  0.5933 -0.3501
 1510TIP3   OH225944   4.246   3.920   4.165 -0.0817  0.2019  0.1770
 1510TIP3    H125945   4.233   3.997   4.109  1.2349  1.3888  1.4533
 1510TIP3    H225946   4.169   3.920   4.222  0.1373  0.8729  0.4881
 1511TIP3   OH225947   6.613   2.557   3.748 -0.6966 -0.5439 -0.5643
 1511TIP3    H125948   6.621   2.529   3.839  1.8255 -0.2341 -0.6539
 1511TIP3    H225949   6.699   2.539   3.709 -1.0352  1.3519 -2.3024
 1512TIP3   OH225950   5.421   1.859   2.160 -0.5101  0.3547  0.3148
 1512TIP3    H125951   5.342   1.864   2.107 -1.0387  0.9850  1.1644
 1512TIP3    H225952   5.426   1.767   2.187 -0.1870  0.0132 -0.9029
 1513TIP3   OH225953   5.906   1.493  14.152  0.8248  0.1643 -0.6135
 1513TIP3    H125954   5.908   1.565  14.089  0.3852 -0.3666 -1.2347
 1513TIP3    H225955   5.920   1.536  14.237  1.0377  0.9248 -1.0217
 1514TIP3   OH225956   2.493   6.348   2.255 -0.1530  0.0945  0.3082
 1514TIP3    H125957   2.421   6.285   2.260  0.9922 -1.1277  2.1589
 1514TIP3    H225958   2.451   6.434   2.253 -1.6669 -0.5756  2.1496
 1515TIP3   OH225959   0.246   0.223   5.329 -0.3377 -0.9439  0.1298
 1515TIP3    H125960   0.220   0.134   5.351 -1.6338 -0.6157 -0.0244
 1515TIP3    H225961   0.167   0.263   5.293  0.5333 -0.0745 -0.8590
 1516TIP3   OH225962   3.977   4.041   5.117 -0.1478 -0.2946 -0.6217
 1516TIP3    H125963   4.054   4.074   5.069 -0.0156 -0.6173 -0.6283
 1516TIP3    H225964   3.969   3.950   5.090 -1.0570 -0.0147 -1.2968
 1517TIP3   OH225965   5.739   4.032  10.892 -0.7562 -0.0499 -0.2304
 1517TIP3    H125966   5.755   3.948  10.934  0.3522 -0.0511 -0.6364
 1517TIP3    H225967   5.700   4.009  10.807  2.7812 -0.3431 -1.8518
 1518TIP3   OH225968   3.608   2.087  13.121 -0.0585 -0.7769  0.0661
 1518TIP3    H125969   3.554   2.026  13.171  0.1173 -0.9192  0.0840
 1518TIP3    H225970   3.693   2.044  13.114  0.4983  0.0878  1.2964
 1519TIP3   OH225971   6.094   2.741  13.896 -0.6226  0.3244  0.8432
 1519TIP3    H125972   6.104   2.807  13.826  0.8212 -0.3843  0.3608
 1519TIP3    H225973   6.056   2.665  13.853 -0.9913  0.3579  1.1090
 1520TIP3   OH225974   5.793   4.512  11.347 -0.1567  0.0605 -0.0002
 1520TIP3    H125975   5.865   4.449  11.357 -0.7460 -0.5808  0.2331
 1520TIP3    H225976   5.714   4.458  11.342 -1.0223  0.8790  3.4720
 1521TIP3   OH225977   6.248   2.891  16.467  0.0078 -0.7410 -0.5698
 1521TIP3    H125978   6.203   2.975  16.480  2.3017  0.3318  0.7325
 1521TIP3    H225979   6.199   2.848  16.397 -0.4588  2.2502 -2.1704
 1522TIP3   OH225980   3.966   4.804   2.660  0.1805  0.0627 -0.2251
 1522TIP3    H125981   4.020   4.779   2.586  1.5437 -0.4499  0.9231
 1522TIP3    H225982   3.876   4.785   2.632  0.6247  0.5191 -1.9755
 1523TIP3   OH225983   2.802   2.396   5.155 -0.0392  0.0152  0.3354
 1523TIP3    H125984   2.708   2.405   5.139 -0.3973 -0.7441  1.9646
 1523TIP3    H225985   2.843   2.432   5.076 -1.7119 -2.1674 -1.6190
 1524TIP3   OH225986   4.004   1.544   0.722 -0.2752 -0.1330 -0.7238
 1524TIP3    H125987   3.957   1.584   0.795  2.1554  0.3678  0.5954
 1524TIP3    H225988   3.992   1.604   0.649  0.3544  1.2150  0.2732
 1525TIP3   OH225989   2.438   0.409   5.122 -0.0537 -0.2135  0.4519
 1525TIP3    H125990   2.344   0.420   5.135  0.2416  1.4742  1.3440
 1525TIP3    H225991   2.447   0.322   5.085 -1.9389 -0.5486  0.7256
 1526TIP3   OH225992   0.847   0.919   6.025  0.0493  0.0860  0.7074
 1526TIP3    H125993   0.786   0.916   6.099 -0.5994 -1.3438  0.1284
 1526TIP3    H225994   0.929   0.885   6.060 -0.5140 -1.4724  0.5423
 1527TIP3   OH225995   5.098   2.138   1.206 -0.2087 -0.0030 -0.6260
 1527TIP3    H125996   5.048   2.179   1.136  0.2955 -1.6452 -1.9722
 1527TIP3    H225997   5.054   2.055   1.221  0.5246 -0.2680  0.0558
 1528TIP3   OH225998   0.340   0.410   5.493  0.6232  0.0230  0.1568
 1528TIP3    H125999   0.279   0.412   5.567  0.5399  0.2614  0.0831
 1528TIP3    H226000   0.316   0.332   5.444  0.1925  0.2679 -0.0273
 1529TIP3   OH226001   5.618   1.764   4.317 -0.4824 -0.6040 -0.2473
 1529TIP3    H126002   5.703   1.805   4.300 -0.1466 -1.0998  0.2150
 1529TIP3    H226003   5.574   1.823   4.377 -0.7775  0.0396 -1.0829
 1530TIP3   OH226004   2.811   0.167  10.822  0.1750 -0.2117 -0.2701
 1530TIP3    H126005   2.877   0.112  10.865  1.3904 -0.1652 -2.0027
 1530TIP3    H226006   2.787   0.118  10.743 -1.0180  0.3289 -0.2526
 1531TIP3   OH226007   2.616   6.613  14.625 -0.1221  0.1999  0.1383
 1531TIP3    H126008   2.645   6.569  14.545 -0.0904 -1.3708  0.9918
 1531TIP3    H226009   2.551   6.554  14.663  0.6633  0.3888  1.8285
 1532TIP3   OH226010   0.423   5.387  16.882  0.2647 -0.2173 -0.1797
 1532TIP3    H126011   0.364   5.444  16.831  0.6043 -2.0433 -2.7162
 1532TIP3    H226012   0.511   5.416  16.859  0.4064  0.4662  1.1933
 1533TIP3   OH226013   5.308   5.501  15.379 -0.5153 -0.1563  0.1997
 1533TIP3    H126014   5.254   5.562  15.329 -0.9883 -1.8236 -1.4061
 1533TIP3    H226015   5.397   5.534  15.370 -0.9604  1.1789  0.7034
 1534TIP3   OH226016   6.683   5.058  15.820 -0.0192  0.1523  0.2253
 1534TIP3    H126017   6.598   5.056  15.776  0.2740 -4.3053 -0.3707
 1534TIP3    H226018   6.662   5.051  15.914 -0.3441  0.6127  0.1874
 1535TIP3   OH226019   4.152   4.091  13.033 -0.1539  0.3076 -0.4050
 1535TIP3    H126020   4.182   4.033  13.103  0.8021  0.7692 -0.4326
 1535TIP3    H226021   4.201   4.063  12.956 -2.2042 -1.1141 -1.2414
 1536TIP3   OH226022   0.235   3.505   5.524 -0.1921  0.0579 -0.4246
 1536TIP3    H126023   0.144   3.519   5.550 -0.1420  0.2086 -0.3309
 1536TIP3    H226024   0.268   3.440   5.586 -0.7155 -1.2301 -1.4711
 1537TIP3   OH226025   3.295   6.515  12.430  0.7000 -0.1691 -0.3364
 1537TIP3    H126026   3.301   6.588  12.491  0.1079  1.0278 -1.6773
 1537TIP3    H226027   3.278   6.438  12.485  0.5606  0.8257  1.0196
 1538TIP3   OH226028   1.650   3.038   4.049 -0.8543  0.3302 -0.3238
 1538TIP3    H126029   1.622   3.108   4.107  0.1812 -1.0919  1.9676
 1538TIP3    H226030   1.642   2.958   4.101  2.8232 -0.6739 -1.1259
 1539TIP3   OH226031   5.448   6.091   5.120  0.1151 -0.2567  0.6107
 1539TIP3    H126032   5.397   6.167   5.146 -2.0591 -2.0045  1.6682
 1539TIP3    H226033   5.527   6.127   5.080 -1.7812  2.5264 -0.7474
 1540TIP3   OH226034   1.972   2.847  15.245  0.2773  0.1359 -0.4046
 1540TIP3    H126035   1.973   2.890  15.330 -0.0279 -2.6823  1.0484
 1540TIP3    H226036   2.051   2.880  15.201  1.9302 -0.4702  2.0295
 1541TIP3   OH226037   5.184   3.316   5.159 -0.1150  0.1159  0.4202
 1541TIP3    H126038   5.135   3.249   5.208  0.2212 -0.8434 -0.5332
 1541TIP3    H226039   5.117   3.373   5.123 -0.4023  0.3508  1.3063
 1542TIP3   OH226040   1.232   4.114  12.264  0.0441 -0.2568 -0.2042
 1542TIP3    H126041   1.154   4.059  12.260 -0.2360  0.2309 -1.7707
 1542TIP3    H226042   1.263   4.106  12.355 -2.6933  0.7634  0.8620
 1543TIP3   OH226043   4.907   4.312  13.562 -0.3313  0.0716 -0.4186
 1543TIP3    H126044   4.839   4.327  13.627 -1.2236 -2.0419 -0.8014
 1543TIP3    H226045   4.877   4.235  13.514  1.5572  0.0675 -1.6546
 1544TIP3   OH226046   5.263   4.042  16.733 -0.0979  0.0664 -0.6723
 1544TIP3    H126047   5.277   4.033  16.828 -0.0960 -2.1688 -0.8582
 1544TIP3    H226048   5.186   3.988  16.715 -0.1678  0.5755 -1.9307
 1545TIP3   OH226049   4.451   3.261  16.187 -0.2799  0.2092  0.2622
 1545TIP3    H126050   4.443   3.348  16.148  0.0170  0.2759  0.3478
 1545TIP3    H226051   4.543   3.239  16.177 -0.6614 -0.8043 -1.2741
 1546TIP3   OH226052   5.613   0.374  12.166  0.1184  0.2058  0.4473
 1546TIP3    H126053   5.606   0.372  12.071 -0.5749  0.8604  0.4822
 1546TIP3    H226054   5.692   0.425  12.183  0.1248  0.2676  0.2277
 1547TIP3   OH226055   1.112   5.613  16.632  0.0843 -0.0528 -0.6965
 1547TIP3    H126056   1.121   5.646  16.543  0.2883 -1.6581 -1.2900
 1547TIP3    H226057   1.186   5.553  16.643 -0.3548 -0.4206  0.2885
 1548TIP3   OH226058   1.622   1.704  15.533  0.9019  0.6470 -0.3852
 1548TIP3    H126059   1.533   1.708  15.568  0.2111  0.9124 -2.1129
 1548TIP3    H226060   1.649   1.613  15.549  0.6551  0.7791  0.8870
 1549TIP3   OH226061   1.037   6.311  12.118 -0.5582 -0.2273 -0.0074
 1549TIP3    H126062   1.080   6.369  12.181  0.2250 -1.1361  0.3068
 1549TIP3    H226063   1.048   6.224  12.155 -0.6147 -0.7067 -1.1080
 1550TIP3   OH226064   2.806   2.971  16.900  0.5213  0.1320 -0.3051
 1550TIP3    H126065   2.793   2.927  16.816 -1.6326  0.8950 -0.3846
 1550TIP3    H226066   2.841   3.057  16.877 -2.4212  1.2971 -0.6074
 1551TIP3   OH226067   0.704   1.051   5.820 -0.1145  0.2479  0.0720
 1551TIP3    H126068   0.787   1.061   5.774  0.2164  1.4399  0.9080
 1551TIP3    H226069   0.728   1.023   5.908 -0.6144  0.1424  0.1776
 1552TIP3   OH226070   0.727   0.608  12.285  0.1254  0.1615 -0.7488
 1552TIP3    H126071   0.737   0.647  12.198 -1.1544 -0.9933 -1.4557
 1552TIP3    H226072   0.759   0.518  12.275 -0.1878 -0.0324 -0.0725
 1553TIP3   OH226073   5.052   0.524  16.131 -0.1015 -0.2543  0.2034
 1553TIP3    H126074   4.977   0.503  16.075 -0.2844  0.3013  0.2325
 1553TIP3    H226075   5.014   0.559  16.211  0.1587 -1.3445  0.8010
 1554TIP3   OH226076   1.732   4.615   0.498  0.4539 -0.4715 -0.0958
 1554TIP3    H126077   1.811   4.595   0.448  1.3923  0.0824  1.1337
 1554TIP3    H226078   1.664   4.560   0.460  1.2665 -0.4170 -1.6499
 1555TIP3   OH226079   6.249   1.430   2.884  0.7398  0.6681 -0.0465
 1555TIP3    H126080   6.188   1.504   2.887 -1.2765 -0.9082 -0.4364
 1555TIP3    H226081   6.264   1.407   2.975 -0.2903  0.2806  0.0346
 1556TIP3   OH226082   6.632   5.442   4.911  0.1499 -0.4878 -0.1130
 1556TIP3    H126083   6.716   5.480   4.937 -0.2152  0.2393  0.0060
 1556TIP3    H226084   6.596   5.504   4.848 -0.7038 -0.3695  0.4906
 1557TIP3   OH226085   4.302   0.487   2.581  0.1915 -0.3060  0.4744
 1557TIP3    H126086   4.255   0.494   2.498  0.0413  0.5992  0.6303
 1557TIP3    H226087   4.388   0.525   2.563  0.7709 -1.7011  0.2655
 1558TIP3   OH226088   3.649   5.459   4.439  0.1577 -0.2219 -0.0373
 1558TIP3    H126089   3.668   5.513   4.362  1.1212 -1.7853 -0.9163
 1558TIP3    H226090   3.700   5.379   4.426 -0.6292 -1.0274  1.6370
 1559TIP3   OH226091   4.699   3.046  16.815 -0.2236 -0.1992 -0.8691
 1559TIP3    H126092   4.693   3.051  16.911  1.6770  1.0125 -0.7956
 1559TIP3    H226093   4.745   2.964  16.799 -2.4216 -1.4842 -0.8581
 1560TIP3   OH226094   1.705   5.031   5.689  0.6645 -0.1327 -0.1217
 1560TIP3    H126095   1.670   4.965   5.629 -0.3546 -2.8173  3.2464
 1560TIP3    H226096   1.636   5.096   5.696 -1.1654 -2.1918  1.6414
 1561TIP3   OH226097   5.384   3.230  16.572 -0.1842 -0.1198 -0.2660
 1561TIP3    H126098   5.309   3.194  16.523 -1.3828  1.2718  0.5043
 1561TIP3    H226099   5.422   3.154  16.616  0.8104 -1.3883 -3.1623
 1562TIP3   OH226100   3.942   3.106   2.356  0.3488 -0.5078 -0.3362
 1562TIP3    H126101   3.887   3.184   2.349  1.6574  0.6519  1.6963
 1562TIP3    H226102   4.022   3.129   2.309  0.1181 -1.2303 -1.0921
 1563TIP3   OH226103   6.176   1.237   3.645  0.1792 -0.2150 -0.7496
 1563TIP3    H126104   6.120   1.183   3.701  0.7536 -0.3213 -0.2717
 1563TIP3    H226105   6.208   1.306   3.703 -1.9524  1.6971 -1.7706
 1564TIP3   OH226106   4.970   5.909  13.681 -0.1658 -0.5914 -0.4172
 1564TIP3    H126107   4.896   5.969  13.671  0.4906 -0.0652 -2.6226
 1564TIP3    H226108   4.972   5.861  13.598  2.4431 -0.0177 -0.7142
 1565TIP3   OH226109   0.649   4.189   2.810  0.5424  0.0443 -0.2473
 1565TIP3    H126110   0.606   4.126   2.868  0.4733 -0.2240 -0.5902
 1565TIP3    H226111   0.716   4.139   2.765 -1.0667 -0.3554 -2.2729
 1566TIP3   OH226112   5.880   0.516  13.313  0.4759 -0.2022 -0.0885
 1566TIP3    H126113   5.876   0.560  13.398  0.0027 -0.0152 -0.2066
 1566TIP3    H226114   5.933   0.438  13.330 -0.9104 -0.9937  0.7637
 1567TIP3   OH226115   3.714   5.219  12.307  0.0334 -0.0694  0.1230
 1567TIP3    H126116   3.740   5.264  12.388  1.7778  1.0400 -1.0079
 1567TIP3    H226117   3.703   5.128  12.333  1.2684  0.1463  1.4892
 1568TIP3   OH226118   3.863   2.626   1.577 -0.1632  0.4030  0.3865
 1568TIP3    H126119   3.841   2.676   1.656 -1.5359  0.4297  0.0053
 1568TIP3    H226120   3.925   2.681   1.529  0.3753  0.5546  1.2575
 1569TIP3   OH226121   6.539   3.881  14.590  0.3369  0.1914  0.2071
 1569TIP3    H126122   6.591   3.921  14.660 -0.5144  2.1423 -0.2547
 1569TIP3    H226123   6.603   3.831  14.539  1.0281 -0.9254  2.1195
 1570TIP3   OH226124   5.323   6.027   6.377  0.0632  0.0530  0.1435
 1570TIP3    H126125   5.330   6.118   6.405 -2.5950  0.5863 -0.7704
 1570TIP3    H226126   5.388   6.019   6.306  1.4855  0.7422  1.3454
 1571TIP3   OH226127   1.423   2.294  11.423  0.2165  0.3276 -0.2927
 1571TIP3    H126128   1.385   2.381  11.410 -1.7054 -0.4408 -0.0487
 1571TIP3    H226129   1.435   2.260  11.334 -1.5237 -0.1774 -0.3535
 1572TIP3   OH226130   3.309   4.996   1.157  0.7049 -0.0401 -0.4200
 1572TIP3    H126131   3.341   5.069   1.103  1.6974 -0.1605 -0.0011
 1572TIP3    H226132   3.387   4.964   1.202  0.1356 -0.8944 -0.0442
 1573TIP3   OH226133   6.058   3.570  13.639 -0.2237 -0.1374 -0.1107
 1573TIP3    H126134   6.009   3.513  13.579  0.7101 -1.1372  0.0521
 1573TIP3    H226135   6.150   3.548  13.623  0.0360 -0.4833  1.7322
 1574TIP3   OH226136   1.142   5.764  12.411  0.4591 -0.3270 -0.2944
 1574TIP3    H126137   1.220   5.819  12.425  0.9303 -1.0384 -0.0722
 1574TIP3    H226138   1.162   5.683  12.457  0.4183 -1.2705 -1.8997
 1575TIP3   OH226139   1.076   5.617   5.758  0.2707 -0.0669 -0.0786
 1575TIP3    H126140   1.169   5.639   5.767  0.8847 -2.5182 -0.0484
 1575TIP3    H226141   1.042   5.681   5.695  2.2110  0.2092 -0.8810
 1576TIP3   OH226142   3.707   6.672  14.696  0.8024  0.3280 -0.4734
 1576TIP3    H126143   3.685   6.639  14.608 -2.3522  1.5066 -0.2046
 1576TIP3    H226144   3.718   6.767  14.683  3.5918  0.0620 -0.1503
 1577TIP3   OH226145   6.047   0.215  17.028 -0.2393 -0.7203 -0.0852
 1577TIP3    H126146   5.988   0.153  17.071  0.9916 -1.8330 -0.0025
 1577TIP3    H226147   6.012   0.301  17.052 -1.8692 -1.3578 -0.0852
 1578TIP3   OH226148   3.673   5.732   1.376  0.2284  0.3173 -0.2597
 1578TIP3    H126149   3.753   5.783   1.361 -0.1575  1.4089  1.2607
 1578TIP3    H226150   3.625   5.782   1.442 -1.3101 -0.7816 -0.5267
 1579TIP3   OH226151   3.978   1.452   0.331  0.4095 -0.2144 -0.1952
 1579TIP3    H126152   3.977   1.517   0.261 -1.4788 -0.3525 -0.3169
 1579TIP3    H226153   3.889   1.454   0.367  1.0936 -0.7996  1.5861
 1580TIP3   OH226154   3.611   0.134   0.412 -0.3331 -0.4045 -0.1017
 1580TIP3    H126155   3.609   0.078   0.334  1.5819  0.3080 -0.6819
 1580TIP3    H226156   3.551   0.205   0.391  0.1735 -0.2120 -0.9447
 1581TIP3   OH226157   4.995   0.540   0.834  0.1823 -0.6694 -0.1708
 1581TIP3    H126158   5.018   0.448   0.822  2.8175 -0.0140 -0.4665
 1581TIP3    H226159   5.022   0.583   0.753 -0.2663  0.5072  0.2820
 1582TIP3   OH226160   3.871   3.938   0.528 -0.1851 -0.4227  0.3046
 1582TIP3    H126161   3.829   4.015   0.490  0.2811 -0.4641 -0.2954
 1582TIP3    H226162   3.815   3.865   0.502 -1.0319 -0.2181  1.4848
 1583TIP3   OH226163   6.262   5.817  14.147 -0.1344 -0.3526  0.1851
 1583TIP3    H126164   6.265   5.910  14.121  1.6634 -0.9684 -1.9921
 1583TIP3    H226165   6.268   5.820  14.243 -0.2078  1.7876  0.1680
 1584TIP3   OH226166   0.617   4.090  14.581  0.7755 -0.5561  0.3554
 1584TIP3    H126167   0.565   4.161  14.620  2.8635 -1.2275  4.6410
 1584TIP3    H226168   0.677   4.135  14.522  0.2915  0.9914  1.0112
 1585TIP3   OH226169   4.089   6.404   1.469  0.0970  0.1778 -0.5433
 1585TIP3    H126170   4.027   6.443   1.407 -0.4957  0.2638  0.1004
 1585TIP3    H226171   4.079   6.310   1.458 -0.2801  0.1915 -0.3070
 1586TIP3   OH226172   4.290   6.442   2.150 -0.8384 -0.0023 -0.4600
 1586TIP3    H126173   4.214   6.471   2.100 -2.0615 -2.9706 -0.4302
 1586TIP3    H226174   4.272   6.472   2.239  0.4421  3.6112 -1.3147
 1587TIP3   OH226175   4.449   2.605  15.888 -0.2732  0.1717  0.0490
 1587TIP3    H126176   4.483   2.669  15.950 -0.2720  0.2176  0.0003
 1587TIP3    H226177   4.399   2.656  15.825  0.5425  0.2462 -0.5538
 1588TIP3   OH226178   4.290   5.546  11.154  0.5407 -0.1183 -0.1971
 1588TIP3    H126179   4.335   5.501  11.082 -0.0091  1.1145 -1.3336
 1588TIP3    H226180   4.215   5.489  11.175 -0.6793  0.6660 -2.2444
 1589TIP3   OH226181   0.043   0.291  12.832 -0.0868  0.4901  0.2616
 1589TIP3    H126182  -0.009   0.227  12.784 -2.0564  1.2510  1.3097
 1589TIP3    H226183   0.095   0.335  12.765 -0.4540 -0.5926 -0.7536
 1590TIP3   OH226184   1.266   4.439   0.341 -0.3918  0.0203 -0.2374
 1590TIP3    H126185   1.211   4.405   0.411 -0.0752  0.3119  0.1582
 1590TIP3    H226186   1.226   4.523   0.318 -0.0910  0.2531  0.0800
 1591TIP3   OH226187   4.520   3.919  14.426 -0.6756 -0.5590  0.2703
 1591TIP3    H126188   4.554   3.963  14.503  1.1251 -1.6953  0.1538
 1591TIP3    H226189   4.425   3.926  14.435 -0.4484  1.7106  1.1606
 1592TIP3   OH226190   0.677   1.127   6.330 -0.1341  0.0026 -0.2629
 1592TIP3    H126191   0.740   1.117   6.401 -1.6157  0.1966  1.1234
 1592TIP3    H226192   0.667   1.039   6.294 -0.5695 -0.4050  0.8326
 1593TIP3   OH226193   5.429   0.724   4.915  0.5683  0.3059 -0.0099
 1593TIP3    H126194   5.489   0.676   4.971 -0.9610 -1.8226 -0.1520
 1593TIP3    H226195   5.483   0.752   4.840  1.5660 -0.8086  0.2888
 1594TIP3   OH226196   6.153   0.205   1.862 -0.1232  0.4025 -0.3005
 1594TIP3    H126197   6.098   0.231   1.788 -1.3182  1.7428  1.0282
 1594TIP3    H226198   6.125   0.116   1.883 -1.0098  0.6568 -0.3667
 1595TIP3   OH226199   3.721   0.479   3.566  0.3503  1.0474  0.2404
 1595TIP3    H126200   3.752   0.563   3.601 -0.6699  1.4865  0.0988
 1595TIP3    H226201   3.728   0.490   3.471 -0.6082  1.2870  0.1989
 1596TIP3   OH226202   4.964   1.541  15.273 -0.5249 -0.3080  0.2828
 1596TIP3    H126203   5.056   1.527  15.253 -0.0681  1.7996  0.8083
 1596TIP3    H226204   4.918   1.469  15.228  1.5289 -2.6762  1.8200
 1597TIP3   OH226205   3.093   3.386   2.082 -0.0647 -0.5561  0.8029
 1597TIP3    H126206   3.014   3.419   2.039 -0.3726 -0.7916  1.1885
 1597TIP3    H226207   3.151   3.362   2.010 -0.9604 -1.8902  0.5196
 1598TIP3   OH226208   4.091   6.147  12.778 -0.0312  0.2353 -0.3495
 1598TIP3    H126209   4.186   6.150  12.768 -0.0128 -2.0670 -1.3501
 1598TIP3    H226210   4.057   6.168  12.690 -0.4427  1.2545  0.0533
 1599TIP3   OH226211   1.938   5.589  13.530  0.1784 -0.5500  0.5233
 1599TIP3    H126212   2.013   5.530  13.522  1.6318  1.1236  1.3339
 1599TIP3    H226213   1.965   5.668  13.482 -0.4066  0.6941  2.2113
 1600TIP3   OH226214   3.511   4.733   3.778 -0.1732  0.0009  0.2185
 1600TIP3    H126215   3.560   4.701   3.702 -1.6507  0.9244 -1.1433
 1600TIP3    H226216   3.543   4.822   3.791 -0.7716  0.2569 -0.0573
 1601TIP3   OH226217   1.537   5.856   1.875 -0.7389 -0.3080 -0.6088
 1601TIP3    H126218   1.611   5.795   1.869 -0.7014 -0.2359 -0.9047
 1601TIP3    H226219   1.520   5.864   1.969  0.4409  0.6666 -0.4571
 1602TIP3   OH226220   0.026   4.296   1.386  0.1829 -0.6734 -0.3474
 1602TIP3    H126221   0.035   4.234   1.458 -1.3816 -0.9276 -0.3602
 1602TIP3    H226222  -0.067   4.319   1.384  0.4411  0.3793 -1.4156
 1603TIP3   OH226223   1.654   2.079   6.503 -0.3790  0.0493 -0.3091
 1603TIP3    H126224   1.723   2.024   6.466 -0.2343  1.2108 -1.7843
 1603TIP3    H226225   1.697   2.126   6.575 -0.0133 -0.2851 -0.3083
 1604TIP3   OH226226   3.667   5.321   1.215  0.2002  0.5288 -0.0640
 1604TIP3    H126227   3.572   5.307   1.216  0.6552 -3.0403  2.2126
 1604TIP3    H226228   3.683   5.381   1.287 -0.1569 -0.6207  1.0030
 1605TIP3   OH226229   0.282   2.257  11.566  0.3900  0.0157  0.0124
 1605TIP3    H126230   0.277   2.329  11.629  2.4399  0.1474  0.0601
 1605TIP3    H226231   0.339   2.193  11.607  1.1873 -0.2049 -1.3864
 1606TIP3   OH226232   0.718   0.216   4.803 -0.1175  0.3008  0.2998
 1606TIP3    H126233   0.631   0.189   4.832 -0.3160  0.5420 -0.0660
 1606TIP3    H226234   0.741   0.290   4.860 -0.6340  0.9687 -0.3467
 1607TIP3   OH226235   5.917   0.931   1.666  0.1535  0.0195 -0.0068
 1607TIP3    H126236   5.956   0.863   1.612 -2.6325 -1.0129 -0.8182
 1607TIP3    H226237   5.863   0.982   1.606 -2.2470 -0.5596  1.5700
 1608TIP3   OH226238   5.145   2.597  14.369 -0.1262 -0.1057 -0.4049
 1608TIP3    H126239   5.057   2.603  14.406 -0.7022 -1.1710 -1.5839
 1608TIP3    H226240   5.187   2.679  14.395 -1.3389  0.2581  0.4642
 1609TIP3   OH226241   3.468   6.471   0.783 -0.2580  0.3161  0.0924
 1609TIP3    H126242   3.496   6.542   0.843  0.8816 -2.4687  3.0195
 1609TIP3    H226243   3.547   6.451   0.732 -0.4053  0.7208 -0.2980
 1610TIP3   OH226244   5.401   5.631  12.733  0.4763  0.0225  0.0763
 1610TIP3    H126245   5.361   5.550  12.703 -0.4079 -0.0472  1.4277
 1610TIP3    H226246   5.331   5.679  12.776  1.4090  0.7365  0.8310
 1611TIP3   OH226247   2.051   1.361  16.311 -0.7723  0.1351 -0.3803
 1611TIP3    H126248   2.095   1.444  16.331 -0.7614  0.1282 -0.3740
 1611TIP3    H226249   2.057   1.311  16.392  0.0352 -0.2271 -0.6543
 1612TIP3   OH226250   0.644   3.195   3.183 -0.6144  0.4618  0.1534
 1612TIP3    H126251   0.590   3.193   3.262 -1.5685 -0.1780 -0.5086
 1612TIP3    H226252   0.664   3.103   3.165 -0.8483  0.5605 -0.6451
 1613TIP3   OH226253   3.710   3.972   0.758  0.7051 -0.0410 -0.0675
 1613TIP3    H126254   3.775   3.945   0.693 -0.2139  1.4431 -1.6427
 1613TIP3    H226255   3.751   4.043   0.806  0.7500 -0.0167 -0.1428
 1614TIP3   OH226256   0.927   1.564   4.110 -0.4796  0.1059  0.2311
 1614TIP3    H126257   0.839   1.532   4.132 -0.7889  3.1775  4.2017
 1614TIP3    H226258   0.917   1.605   4.024 -2.6978 -0.4464  0.1955
 1615TIP3   OH226259   1.333   2.326   3.767 -0.1129  1.0824 -0.0580
 1615TIP3    H126260   1.332   2.366   3.854  1.2206 -1.4178  1.1598
 1615TIP3    H226261   1.420   2.346   3.733 -0.1640  0.9247 -0.2801
 1616TIP3   OH226262   6.518   1.494  11.741  0.0520  0.9813  0.2333
 1616TIP3    H126263   6.539   1.446  11.822  0.6748 -0.5117 -0.7879
 1616TIP3    H226264   6.473   1.573  11.771  0.4040  0.5156  2.0516
 1617TIP3   OH226265   2.219   3.718  16.835  0.2374  0.0579  0.1896
 1617TIP3    H126266   2.170   3.773  16.774  2.2998  0.6302 -1.0249
 1617TIP3    H226267   2.204   3.628  16.804  0.0982  0.2384 -0.2793
 1618TIP3   OH226268   5.980   3.066  15.151 -0.3612  0.2477 -0.8087
 1618TIP3    H126269   6.028   3.125  15.094 -0.9180  0.6793 -0.8350
 1618TIP3    H226270   5.922   3.123  15.201 -0.3137 -0.1916 -0.2515
 1619TIP3   OH226271   3.076   6.718  11.199 -1.0997 -0.0638 -0.6244
 1619TIP3    H126272   3.074   6.634  11.154  0.7050 -0.7197  0.4827
 1619TIP3    H226273   3.011   6.709  11.269 -1.9297 -0.0258 -1.3900
 1620TIP3   OH226274   4.027   0.460   3.475  0.1259 -0.2700  0.4778
 1620TIP3    H126275   4.004   0.373   3.444 -0.0590 -0.0063 -0.1335
 1620TIP3    H226276   3.996   0.463   3.565  1.3088 -1.3022  0.9400
 1621TIP3   OH226277   3.564   5.918   3.352 -0.1130  0.1099 -0.2861
 1621TIP3    H126278   3.620   5.885   3.422  0.3208 -0.9230 -1.0997
 1621TIP3    H226279   3.489   5.858   3.351 -0.5826  0.6912 -0.0768
 1622TIP3   OH226280   6.236   3.913   2.148 -0.1824 -0.0303 -0.6861
 1622TIP3    H126281   6.181   3.899   2.072  0.0826 -0.1144 -0.8632
 1622TIP3    H226282   6.243   4.008   2.156 -0.5128 -0.0175 -0.5469
 1623TIP3   OH226283   1.407   3.380   6.133 -0.0351  0.4549 -0.4287
 1623TIP3    H126284   1.381   3.335   6.052 -0.1138  2.8510 -1.7829
 1623TIP3    H226285   1.411   3.310   6.199 -3.0113 -1.0979 -1.7790
 1624TIP3   OH226286   3.387   0.161  13.404 -0.1408  0.3758 -0.3213
 1624TIP3    H126287   3.342   0.226  13.459 -0.1758 -0.1839  0.3142
 1624TIP3    H226288   3.423   0.098  13.466 -0.2445 -0.3035 -0.9510
 1625TIP3   OH226289   2.360   0.418  15.844 -0.9600  0.0051  0.1756
 1625TIP3    H126290   2.410   0.352  15.891 -2.5001 -1.1634  0.2327
 1625TIP3    H226291   2.282   0.371  15.813 -1.0957  1.3118 -1.5206
 1626TIP3   OH226292   2.186   3.769   1.642  0.0773  0.0261 -0.4840
 1626TIP3    H126293   2.227   3.683   1.642 -0.1271 -0.0757 -1.2385
 1626TIP3    H226294   2.257   3.829   1.619  0.1398  0.0140 -0.3198
 1627TIP3   OH226295   5.289   0.640  11.845  0.0829  0.1661  0.6199
 1627TIP3    H126296   5.286   0.560  11.897  0.2184 -0.2457 -0.0071
 1627TIP3    H226297   5.202   0.645  11.805  0.8431 -0.9072 -1.2040
 1628TIP3   OH226298   6.461   2.702   0.733  0.1522  0.7711 -0.1054
 1628TIP3    H126299   6.534   2.639   0.729  0.5322  1.0956  1.4849
 1628TIP3    H226300   6.475   2.759   0.658  1.2429  0.4951 -0.1258
 1629TIP3   OH226301   3.447   4.218  14.254  0.0173 -0.4386  0.0247
 1629TIP3    H126302   3.460   4.127  14.281 -0.4116 -0.5252 -0.0593
 1629TIP3    H226303   3.435   4.266  14.335  0.9552 -0.3368  0.1186
 1630TIP3   OH226304   4.556   6.566  11.464 -0.4061  0.0523 -0.2532
 1630TIP3    H126305   4.622   6.613  11.516 -0.0986  0.1351 -0.7161
 1630TIP3    H226306   4.598   6.553  11.379 -1.4875  1.2945 -0.9961
 1631TIP3   OH226307   3.610   1.582  14.534 -0.1250  0.1973  0.0532
 1631TIP3    H126308   3.518   1.568  14.512 -0.1968 -0.2509  0.6102
 1631TIP3    H226309   3.609   1.653  14.598 -0.0471  0.5004 -0.2868
 1632TIP3   OH226310   5.839   5.047  11.511  0.3661 -0.2330 -0.2694
 1632TIP3    H126311   5.855   5.009  11.597  0.9861  2.1313  0.6998
 1632TIP3    H226312   5.925   5.074  11.479 -0.2302  2.1993  0.0092
 1633TIP3   OH226313   2.424   6.764   4.014  0.2406  0.4447 -0.1073
 1633TIP3    H126314   2.345   6.785   4.065 -0.1520  0.7238 -0.8264
 1633TIP3    H226315   2.479   6.715   4.075 -1.4102 -1.6224 -0.2279
 1634TIP3   OH226316   2.754   4.253   5.127 -0.3000  0.5397 -0.4849
 1634TIP3    H126317   2.673   4.296   5.100 -0.6072 -0.8056 -1.8250
 1634TIP3    H226318   2.805   4.246   5.047  0.4246 -0.1056  0.0250
 1635TIP3   OH226319   0.903   3.137  10.897  0.3428 -0.4186 -0.0045
 1635TIP3    H126320   0.851   3.118  10.819  1.7150  1.3938 -1.3947
 1635TIP3    H226321   0.940   3.053  10.923 -1.3209 -1.2898 -0.4235
 1636TIP3   OH226322   3.951   1.085  16.806 -0.4799  0.2103 -0.1103
 1636TIP3    H126323   3.873   1.031  16.797  0.5864 -1.0574 -2.1872
 1636TIP3    H226324   3.994   1.080  16.720 -0.4757  4.5735 -0.4963
 1637TIP3   OH226325   1.749   6.187   2.312  0.3225  0.2325  0.5567
 1637TIP3    H126326   1.676   6.203   2.252  1.1427 -0.5795 -0.6911
 1637TIP3    H226327   1.824   6.174   2.254  1.2796  0.1626  1.7978
 1638TIP3   OH226328   0.540   0.279  12.264 -0.1060 -0.3314  0.0066
 1638TIP3    H126329   0.603   0.306  12.330  0.8280 -0.2352 -0.9112
 1638TIP3    H226330   0.511   0.360  12.223 -0.4235 -0.4142  0.0646
 1639TIP3   OH226331   5.856   4.856  15.893 -0.5640  0.6193  0.3333
 1639TIP3    H126332   5.765   4.835  15.914 -0.3101  0.0940  0.9132
 1639TIP3    H226333   5.894   4.774  15.863 -0.4442  0.9776 -0.5189
 1640TIP3   OH226334   4.791   2.479  14.121 -0.6003 -0.2102  0.0349
 1640TIP3    H126335   4.746   2.422  14.184 -0.6474 -2.5612 -2.0298
 1640TIP3    H226336   4.735   2.477  14.044  0.4696  1.0163 -0.7896
 1641TIP3   OH226337   0.812   1.771   1.947 -0.7869  0.1158 -0.4667
 1641TIP3    H126338   0.727   1.798   1.984  0.3814  1.8441  1.0731
 1641TIP3    H226339   0.852   1.718   2.016 -0.7231 -0.8965 -1.2898
 1642TIP3   OH226340   0.900   6.365  14.929  0.0061 -0.4710  0.4846
 1642TIP3    H126341   0.853   6.319  14.999 -0.5030 -2.2632 -0.9808
 1642TIP3    H226342   0.872   6.321  14.849  0.6364  1.5031 -0.8481
 1643TIP3   OH226343   5.443   1.002  12.800 -0.2863 -0.2373 -0.5562
 1643TIP3    H126344   5.365   0.946  12.808  0.6187 -1.3182  0.9037
 1643TIP3    H226345   5.418   1.084  12.841 -1.1657 -0.0354 -1.4717
 1644TIP3   OH226346   6.130   1.608   0.134 -0.1929 -0.3173  0.2661
 1644TIP3    H126347   6.137   1.635   0.225  0.5169  0.1906  0.0654
 1644TIP3    H226348   6.221   1.608   0.102 -0.3572 -1.2317 -0.2232
 1645TIP3   OH226349   1.568   3.102   4.748  0.9139 -0.4111 -0.2344
 1645TIP3    H126350   1.601   3.186   4.716  1.0801 -0.5806 -0.5107
 1645TIP3    H226351   1.622   3.036   4.704  1.0163 -0.6532  0.2448
 1646TIP3   OH226352   2.610   6.230  14.046 -0.5659 -0.1767  0.2397
 1646TIP3    H126353   2.558   6.177  14.106  0.0306 -2.1473 -0.9243
 1646TIP3    H226354   2.598   6.189  13.960  0.2889  1.2989 -0.6203
 1647TIP3   OH226355   2.071   5.935   6.324 -0.8218 -0.0649  0.0635
 1647TIP3    H126356   2.105   5.995   6.257  1.7377  0.3091  1.6313
 1647TIP3    H226357   2.000   5.984   6.366 -0.2233  0.9915 -0.1359
 1648TIP3   OH226358   0.835   1.358   1.571 -0.4363  0.1620 -0.3938
 1648TIP3    H126359   0.753   1.314   1.594 -0.3287 -1.2614 -2.5661
 1648TIP3    H226360   0.858   1.322   1.486  3.4772 -0.8983  1.0133
 1649TIP3   OH226361   5.778   1.757   4.893 -0.0751 -0.4393  0.4392
 1649TIP3    H126362   5.735   1.770   4.809  1.5770 -0.3174 -0.3922
 1649TIP3    H226363   5.736   1.679   4.930  0.0366 -1.2073 -1.0466
 1650TIP3   OH226364   4.376   1.643   4.390  0.1611  0.4643 -0.1954
 1650TIP3    H126365   4.468   1.615   4.396  0.4015  1.1607 -0.6275
 1650TIP3    H226366   4.339   1.618   4.475  0.8120  0.3878  0.0738
 1651TIP3   OH226367   2.374   5.740  13.948  0.2194 -0.0165  0.2124
 1651TIP3    H126368   2.357   5.824  13.991  0.3810  0.5639 -0.8594
 1651TIP3    H226369   2.469   5.735  13.941  0.3177 -1.1250  1.9110
 1652TIP3   OH226370   5.356   4.318   4.101  0.0087  0.2059 -1.0458
 1652TIP3    H126371   5.345   4.388   4.038  0.2542  0.2509 -1.0400
 1652TIP3    H226372   5.402   4.358   4.175 -1.4104  0.4674 -0.2823
 1653TIP3   OH226373   3.731   1.243   5.312 -0.0260  0.3899  0.6653
 1653TIP3    H126374   3.805   1.286   5.271  1.2162 -1.7181  0.5981
 1653TIP3    H226375   3.654   1.287   5.276  1.1629  2.2477  0.3331
 1654TIP3   OH226376   5.286   3.089  16.924  0.1858  0.2906 -0.6688
 1654TIP3    H126377   5.209   3.047  16.961  0.3936 -0.3020 -0.9040
 1654TIP3    H226378   5.324   3.138  16.997 -0.5227  0.7455 -0.6086
 1655TIP3   OH226379   3.702   5.721  16.551 -0.2173 -0.5859 -0.3197
 1655TIP3    H126380   3.705   5.806  16.596 -0.3506 -1.1416  0.7570
 1655TIP3    H226381   3.793   5.706  16.523 -0.3441  0.2809 -1.2260
 1656TIP3   OH226382   1.607   2.354   5.318  0.3019 -0.8503  0.8162
 1656TIP3    H126383   1.542   2.321   5.381  0.0572 -0.9929  0.4891
 1656TIP3    H226384   1.598   2.296   5.242 -0.6913  0.4515 -0.0862
 1657TIP3   OH226385   2.416   1.642  16.698  0.2512 -0.4308 -0.2741
 1657TIP3    H126386   2.462   1.593  16.766 -0.1628 -0.8199 -0.2713
 1657TIP3    H226387   2.383   1.720  16.743  2.4353  0.7660 -0.6739
 1658TIP3   OH226388   1.619   1.856   0.768 -0.1530 -0.4226 -0.4957
 1658TIP3    H126389   1.569   1.829   0.845  0.9487 -0.8556  0.0766
 1658TIP3    H226390   1.575   1.814   0.694 -2.1719  1.2619 -0.2968
 1659TIP3   OH226391   3.106   5.450  15.432 -0.3066  0.4090 -0.6989
 1659TIP3    H126392   3.011   5.458  15.442 -0.4185 -0.4318 -0.9920
 1659TIP3    H226393   3.143   5.511  15.496 -1.0495  1.3189 -1.1322
 1660TIP3   OH226394   1.001   2.728   6.537 -0.1582 -1.0009  0.7116
 1660TIP3    H126395   0.945   2.753   6.611  1.3138  2.4942  0.7645
 1660TIP3    H226396   1.090   2.735   6.571  0.4511 -3.0371 -0.3800
 1661TIP3   OH226397   0.367   3.500  12.672  0.2478 -0.2810  0.4280
 1661TIP3    H126398   0.365   3.408  12.698  0.1995 -0.7724 -1.2620
 1661TIP3    H226399   0.300   3.507  12.604 -1.0431  1.4220  1.7961
 1662TIP3   OH226400   1.103   0.790  16.107  0.2029 -0.4728 -0.4926
 1662TIP3    H126401   1.027   0.743  16.072 -0.8020 -0.6059  1.8063
 1662TIP3    H226402   1.168   0.786  16.036 -1.1709 -2.1575 -1.7039
 1663TIP3   OH226403   2.440   0.682   5.556  0.1902 -0.1890 -0.0353
 1663TIP3    H126404   2.364   0.642   5.512 -0.8615  0.9796  0.6905
 1663TIP3    H226405   2.434   0.775   5.533 -0.9296  0.6277  3.3215
 1664TIP3   OH226406   4.270   5.421   0.621 -0.7455 -0.3288 -0.6656
 1664TIP3    H126407   4.346   5.457   0.668 -0.3539 -0.9542 -0.8201
 1664TIP3    H226408   4.282   5.448   0.530 -0.5538 -0.6804 -0.7450
 1665TIP3   OH226409   5.016   3.816   1.391 -0.0838  0.4614 -0.2022
 1665TIP3    H126410   5.071   3.873   1.445 -0.3005  0.4927 -0.0109
 1665TIP3    H226411   4.926   3.840   1.415 -0.1738 -0.6184  0.5842
 1666TIP3   OH226412   2.942   3.094   5.735 -0.3299 -0.5600  0.8757
 1666TIP3    H126413   2.976   3.082   5.824 -2.2639  0.8990  1.8352
 1666TIP3    H226414   2.949   3.188   5.719  0.7916 -0.9149 -0.8708
 1667TIP3   OH226415   3.631   1.918   1.975 -0.5492  0.2108  0.1193
 1667TIP3    H126416   3.636   1.959   2.061 -2.1742  0.3197  0.1865
 1667TIP3    H226417   3.540   1.931   1.947 -0.9587 -2.7481 -0.1360
 1668TIP3   OH226418   3.294   0.828   5.669  0.3784 -0.4670  0.5801
 1668TIP3    H126419   3.221   0.772   5.642 -0.9857  2.1839 -1.4549
 1668TIP3    H226420   3.369   0.794   5.621  0.0420 -1.8292  0.9817
 1669TIP3   OH226421   5.113   0.657  15.858  0.7956  0.5626 -0.4078
 1669TIP3    H126422   5.090   0.724  15.794 -0.7795 -0.9567 -1.4647
 1669TIP3    H226423   5.029   0.628  15.895  1.3851 -1.2214 -0.3961
 1670TIP3   OH226424   2.279   6.396  11.142  0.1793  0.5543 -0.7290
 1670TIP3    H126425   2.361   6.346  11.146  1.2997  2.1429 -2.6063
 1670TIP3    H226426   2.307   6.487  11.156 -0.9510  1.3613 -3.4036
 1671TIP3   OH226427   3.455   3.180  16.651 -0.9687  0.0683 -0.3412
 1671TIP3    H126428   3.484   3.095  16.618 -1.6302 -0.4076  0.2649
 1671TIP3    H226429   3.417   3.224  16.575  1.7023  0.8929 -1.2443
 1672TIP3   OH226430   5.780   6.076  13.754 -0.0995 -0.2756  0.6125
 1672TIP3    H126431   5.811   6.065  13.664 -3.1190  2.6891 -0.9101
 1672TIP3    H226432   5.828   6.152  13.787 -0.5729 -0.0288  0.7362
 1673TIP3   OH226433   2.973   2.533  14.548  0.3528 -0.4631 -0.4233
 1673TIP3    H126434   2.894   2.491  14.582  0.7238 -1.2757 -0.5275
 1673TIP3    H226435   3.044   2.476  14.579  0.7417 -0.9101 -2.0760
 1674TIP3   OH226436   6.019   0.617   5.670 -0.9562 -0.0073  0.0180
 1674TIP3    H126437   5.945   0.650   5.720  0.6695  1.4104  1.5388
 1674TIP3    H226438   6.052   0.543   5.721 -1.1123 -0.4130 -0.4692
 1675TIP3   OH226439   1.732   1.518  12.159  0.1926  0.1245 -0.2778
 1675TIP3    H126440   1.731   1.546  12.250 -0.2189  0.6782 -0.4532
 1675TIP3    H226441   1.677   1.582  12.113  0.0621 -0.3900 -0.8450
 1676TIP3   OH226442   2.843   0.997   5.083 -0.3266 -0.5979  0.3639
 1676TIP3    H126443   2.914   1.047   5.125  0.3505 -1.3589  0.1459
 1676TIP3    H226444   2.792   0.962   5.156 -1.7567  1.7165  0.5144
 1677TIP3   OH226445   5.298   5.991   5.426  0.0812  0.5328  0.5682
 1677TIP3    H126446   5.273   5.911   5.472  0.2178  0.1120 -0.0904
 1677TIP3    H226447   5.325   5.962   5.339 -1.3910  1.4591 -0.2242
 1678TIP3   OH226448   1.641   1.059  13.684 -0.2079  0.1829 -0.2506
 1678TIP3    H126449   1.727   1.042  13.721 -0.2165 -1.4942 -0.9428
 1678TIP3    H226450   1.589   1.090  13.758  0.1722 -1.7552  0.8756
 1679TIP3   OH226451   4.029   0.395  17.197 -0.1006 -0.4223 -0.2713
 1679TIP3    H126452   4.003   0.469  17.253 -2.5705 -0.7350 -0.9453
 1679TIP3    H226453   4.015   0.427  17.108  2.6357 -0.3600 -0.7177
 1680TIP3   OH226454   4.072   5.810   3.512 -0.0694 -0.4435 -0.0188
 1680TIP3    H126455   4.149   5.754   3.523 -1.0310 -1.3013  2.8484
 1680TIP3    H226456   4.085   5.882   3.573 -1.7585 -0.8684  0.8798
 1681TIP3   OH226457   1.888   5.930  16.508  0.9977 -0.4120  0.0361
 1681TIP3    H126458   1.944   5.955  16.581  0.5008 -2.2937  1.0829
 1681TIP3    H226459   1.833   6.007  16.493  0.4862 -0.3039  2.2414
 1682TIP3   OH226460   2.009   3.025   2.257  0.0881 -0.4344 -0.3857
 1682TIP3    H126461   1.925   3.028   2.301 -0.1631  0.1101 -0.8844
 1682TIP3    H226462   2.017   3.111   2.214  2.4312  0.8642  2.4654
 1683TIP3   OH226463   0.683   5.619   1.540  0.0196  0.3160 -0.1835
 1683TIP3    H126464   0.639   5.534   1.540  0.1508  0.2467 -1.3387
 1683TIP3    H226465   0.776   5.598   1.547  0.0731  0.3509 -0.7747
 1684TIP3   OH226466   0.427   3.021   4.733 -0.2802  0.0310 -0.2485
 1684TIP3    H126467   0.517   3.055   4.737 -0.1353 -0.5091  1.3721
 1684TIP3    H226468   0.435   2.939   4.684  0.1032 -0.0445 -0.0577
 1685TIP3   OH226469   5.534   0.097  16.712  0.1139  0.0209 -0.0156
 1685TIP3    H126470   5.525   0.192  16.706 -0.5674 -0.1030 -1.0723
 1685TIP3    H226471   5.559   0.070  16.624 -1.5882 -0.9778 -0.2031
 1686TIP3   OH226472   2.079   4.496  14.799  0.3812 -0.0904  0.7021
 1686TIP3    H126473   2.152   4.447  14.761  1.1655  0.4372  1.4991
 1686TIP3    H226474   2.108   4.587  14.798 -1.3189  0.4843 -1.3716
 1687TIP3   OH226475   3.449   2.306   2.086 -0.6271  0.1768 -0.4512
 1687TIP3    H126476   3.482   2.341   2.003  0.5824  3.5750  1.3548
 1687TIP3    H226477   3.522   2.255   2.121 -1.3438 -1.7571 -1.7048
 1688TIP3   OH226478   0.463   2.461   1.938 -0.1854  0.1291 -0.0467
 1688TIP3    H126479   0.430   2.396   2.000 -2.1059  0.0021 -1.1372
 1688TIP3    H226480   0.544   2.494   1.977  0.0625 -1.8998  1.1944
 1689TIP3   OH226481   2.804   4.171  11.416 -0.1806 -0.4198  0.4686
 1689TIP3    H126482   2.871   4.235  11.440 -0.1773  0.5491 -1.9090
 1689TIP3    H226483   2.838   4.087  11.447  3.1150 -0.2497 -2.3895
 1690TIP3   OH226484   2.636   3.249   4.393 -0.1396  0.5465  0.0961
 1690TIP3    H126485   2.706   3.243   4.458 -0.2522  2.8806  0.4868
 1690TIP3    H226486   2.605   3.339   4.400 -1.7356  0.1595 -1.5865
 1691TIP3   OH226487   1.651   2.175  15.994 -0.2001  0.9114 -0.6101
 1691TIP3    H126488   1.621   2.266  15.996 -1.0577  0.5911  1.2482
 1691TIP3    H226489   1.631   2.141  16.080  0.4285 -0.9687 -1.1906
 1692TIP3   OH226490   5.251   0.498  17.044 -0.6300 -0.3010 -0.3028
 1692TIP3    H126491   5.204   0.434  17.098  1.5174 -1.6892 -0.0312
 1692TIP3    H226492   5.183   0.557  17.012 -2.4632 -1.8678  0.6290
 1693TIP3   OH226493   3.963   2.794  10.982 -0.3082 -0.4457  0.1594
 1693TIP3    H126494   4.016   2.716  10.964  0.2670 -0.1084  0.3951
 1693TIP3    H226495   4.015   2.867  10.948  0.1994  0.0709  1.9945
 1694TIP3   OH226496   5.704   3.361  11.047 -0.0313  0.1763  0.0750
 1694TIP3    H126497   5.640   3.293  11.025 -0.6908  0.9296 -0.3760
 1694TIP3    H226498   5.650   3.435  11.075  0.7092  0.1761  1.5378
 1695TIP3   OH226499   2.474   0.421   6.313  0.6054  0.2517 -0.0387
 1695TIP3    H126500   2.428   0.499   6.283 -0.9938 -0.2670  0.9944
 1695TIP3    H226501   2.565   0.450   6.325  0.4853  1.3845 -1.7223
 1696TIP3   OH226502   4.297   2.397   6.244  0.3235  0.2842 -0.1321
 1696TIP3    H126503   4.305   2.304   6.219  1.5940  0.4391 -0.3441
 1696TIP3    H226504   4.309   2.397   6.338  0.2240  0.2211 -0.1191
 1697TIP3   OH226505   2.943   1.646  12.786 -0.2264 -0.6071 -0.0766
 1697TIP3    H126506   3.010   1.712  12.767 -1.6004  1.1194  0.9678
 1697TIP3    H226507   2.985   1.587  12.849  0.4775  0.1455  0.1639
 1698TIP3   OH226508   0.095   6.051  12.349 -0.4250  0.8867  0.0112
 1698TIP3    H126509   0.145   5.973  12.326 -2.1427  0.1512 -1.3542
 1698TIP3    H226510   0.157   6.123  12.338  0.3040  0.0126 -1.7892
 1699TIP3   OH226511   2.919   1.080  12.351 -0.0037  0.2256 -0.1620
 1699TIP3    H126512   2.857   1.109  12.418 -0.2211 -1.6396  0.4582
 1699TIP3    H226513   2.999   1.129  12.370 -0.4566  0.6663  0.6694
 1700TIP3   OH226514   6.097   0.838   2.506 -0.3338 -0.0675  0.3904
 1700TIP3    H126515   6.062   0.786   2.433 -0.5748  0.0797  0.4026
 1700TIP3    H226516   6.041   0.816   2.580  0.5643 -1.0282  0.7947
 1701TIP3   OH226517   1.044   2.701  12.018 -0.3270  0.6348  0.6477
 1701TIP3    H126518   1.116   2.756  12.048 -1.3932  1.6948  1.3297
 1701TIP3    H226519   0.967   2.736  12.063 -1.3615 -0.1117 -0.5046
 1702TIP3   OH226520   0.618   5.128  15.585 -0.0750 -0.6860 -0.4069
 1702TIP3    H126521   0.703   5.103  15.547  0.3037 -0.9731  0.6043
 1702TIP3    H226522   0.638   5.203  15.640 -0.0596 -2.0972  1.5821
 1703TIP3   OH226523   1.381   4.977   3.798  0.0945  0.0925  0.8099
 1703TIP3    H126524   1.338   4.928   3.869 -1.7866  1.9845  1.0335
 1703TIP3    H226525   1.394   4.913   3.729 -2.1497 -0.7843  1.1699
 1704TIP3   OH226526   6.533   0.132  13.974  0.1918  0.6141  1.1266
 1704TIP3    H126527   6.514   0.044  14.007  0.2959 -0.1361 -0.7558
 1704TIP3    H226528   6.521   0.189  14.050 -0.0826 -0.9948  2.3223
 1705TIP3   OH226529   0.776   3.334  14.229  0.3461  0.1377  0.6846
 1705TIP3    H126530   0.723   3.361  14.154  0.0622 -1.6977  0.1992
 1705TIP3    H226531   0.795   3.416  14.276 -0.1762  1.1938 -0.9140
 1706TIP3   OH226532   3.071   2.634  15.764 -0.6384 -0.2882  0.1573
 1706TIP3    H126533   3.160   2.626  15.797  0.4129 -0.5367 -2.5866
 1706TIP3    H226534   3.019   2.577  15.821  1.0332 -0.5572  1.4539
 1707TIP3   OH226535   0.806   3.620   2.363 -0.1824  1.0659 -0.2728
 1707TIP3    H126536   0.792   3.580   2.277 -0.9603 -0.0190  0.3361
 1707TIP3    H226537   0.720   3.617   2.405  0.6466 -0.4419  1.3798
 1708TIP3   OH226538   3.735   2.268  13.765  0.4041 -0.5403 -0.4609
 1708TIP3    H126539   3.792   2.214  13.711  2.8341 -0.4585  1.9046
 1708TIP3    H226540   3.651   2.269  13.718  1.0597 -4.1438 -1.8785
 1709TIP3   OH226541   3.986   1.938   4.735 -0.4034 -0.2070 -0.2390
 1709TIP3    H126542   3.968   1.924   4.642 -0.7468 -0.6858 -0.1036
 1709TIP3    H226543   3.900   1.948   4.774 -0.1503  3.9116 -0.5519
 1710TIP3   OH226544   4.762   3.516   6.578  0.6309  0.3070 -0.1658
 1710TIP3    H126545   4.852   3.527   6.549  0.6559  1.0564  0.1791
 1710TIP3    H226546   4.718   3.598   6.552 -0.2011 -0.4722 -1.2755
 1711TIP3   OH226547   4.883   3.921   5.051 -0.3597 -0.4049 -0.6547
 1711TIP3    H126548   4.969   3.934   5.011  0.0164 -0.6402  0.0705
 1711TIP3    H226549   4.883   3.979   5.128 -1.0872  0.0649 -0.9982
 1712TIP3   OH226550   5.713   4.085   2.487 -0.0792  0.2080  0.0922
 1712TIP3    H126551   5.691   3.999   2.524 -0.7574  0.2008 -0.3139
 1712TIP3    H226552   5.720   4.143   2.563  1.3926 -0.4147  0.4472
 1713TIP3   OH226553   3.275   6.647  12.736  0.0184 -0.7694  0.4302
 1713TIP3    H126554   3.182   6.668  12.740  0.2218  0.3470 -0.3936
 1713TIP3    H226555   3.319   6.732  12.735  1.1676 -1.2777  2.9516
 1714TIP3   OH226556   2.199   0.997  17.033 -0.2056  0.1816  0.1616
 1714TIP3    H126557   2.216   1.060  17.103  0.6361 -0.1858  0.3030
 1714TIP3    H226558   2.127   0.943  17.067 -1.9121  1.9418 -0.5601
 1715TIP3   OH226559   5.345   4.892  11.748 -0.0410 -0.3118 -0.0668
 1715TIP3    H126560   5.255   4.920  11.733 -0.3042 -0.9847  0.2034
 1715TIP3    H226561   5.388   4.968  11.787 -0.1953  0.3822 -1.2187
 1716TIP3   OH226562   3.409   1.582   3.041  0.2783 -0.7451  0.0482
 1716TIP3    H126563   3.326   1.606   3.083 -0.1218  2.8689 -2.4848
 1716TIP3    H226564   3.382   1.533   2.963  0.5585 -0.7266 -0.0600
 1717TIP3   OH226565   5.366   2.872   1.397 -0.3563 -0.2520 -0.1212
 1717TIP3    H126566   5.409   2.844   1.478  1.6822  1.8990 -0.4283
 1717TIP3    H226567   5.371   2.795   1.340 -1.5401 -1.6916  1.6281
 1718TIP3   OH226568   4.599   2.234  12.222 -0.5104 -0.2024 -0.1748
 1718TIP3    H126569   4.521   2.230  12.168  0.2558  1.4258 -1.4719
 1718TIP3    H226570   4.577   2.295  12.292 -1.3341 -1.9276  1.1008
 1719TIP3   OH226571   6.684   5.893   4.455 -0.2610 -0.1624 -0.2558
 1719TIP3    H126572   6.755   5.957   4.445  0.7189 -1.2215 -0.1402
 1719TIP3    H226573   6.727   5.808   4.446 -1.7230 -0.7981 -1.5480
 1720TIP3   OH226574   5.070   4.363  11.884 -0.1531 -0.4581 -0.4208
 1720TIP3    H126575   5.068   4.319  11.969  1.0402 -1.9252 -1.1420
 1720TIP3    H226576   5.070   4.457  11.906 -0.3199 -0.8188  1.1692
 1721TIP3   OH226577   5.201   3.622   2.850 -0.1135 -0.1411  0.1629
 1721TIP3    H126578   5.131   3.581   2.801  0.4067 -1.3808  0.4498
 1721TIP3    H226579   5.190   3.716   2.834 -1.0391 -0.4171 -0.8359
 1722TIP3   OH226580   2.914   4.590   5.925 -0.1066  0.2536  0.0637
 1722TIP3    H126581   2.955   4.667   5.886 -0.2400  0.6788  0.7485
 1722TIP3    H226582   2.840   4.625   5.974 -0.9528 -0.4502 -0.6938
 1723TIP3   OH226583   2.211   1.104   3.076  0.1479 -0.0437  0.3588
 1723TIP3    H126584   2.279   1.107   3.010 -1.2101 -0.7281 -1.1020
 1723TIP3    H226585   2.178   1.014   3.073 -0.8878  0.3013  0.9555
 1724TIP3   OH226586   1.167   4.431  13.182  0.2191  0.2752  0.5320
 1724TIP3    H126587   1.164   4.475  13.097 -0.0648 -0.3457  0.2159
 1724TIP3    H226588   1.079   4.443  13.219  0.0301 -0.3166  0.2892
 1725TIP3   OH226589   5.907   1.217   5.482 -0.5676  0.3864 -0.1899
 1725TIP3    H126590   5.812   1.225   5.481 -0.4789  1.9637 -2.5712
 1725TIP3    H226591   5.936   1.279   5.548 -1.2044 -0.4353  0.8704
 1726TIP3   OH226592   5.092   2.253  12.067  0.5120  0.2115 -0.5563
 1726TIP3    H126593   5.127   2.339  12.042  1.6473 -0.5131 -1.4841
 1726TIP3    H226594   5.074   2.209  11.984  0.5599 -0.7093 -0.0831
 1727TIP3   OH226595   5.151   3.655   4.139  0.4125 -0.1710  0.4789
 1727TIP3    H126596   5.102   3.608   4.071 -1.0530 -0.0900  1.4565
 1727TIP3    H226597   5.165   3.589   4.208  0.3863  0.2050  0.8420
 1728TIP3   OH226598   0.498   1.371  16.252  0.0015 -0.2091  0.6151
 1728TIP3    H126599   0.490   1.373  16.156  0.2131 -1.0919  0.5665
 1728TIP3    H226600   0.408   1.382  16.283 -0.7124 -4.1296  0.2039
 1729TIP3   OH226601   5.693   6.479   4.839 -0.9093  0.7413  0.3197
 1729TIP3    H126602   5.770   6.527   4.867 -1.1714  1.5690 -0.3370
 1729TIP3    H226603   5.623   6.509   4.897 -0.6591 -0.3473  1.2152
 1730TIP3   OH226604   3.062   0.826  13.581  0.6730 -0.4135  0.0142
 1730TIP3    H126605   2.973   0.854  13.562  0.1293 -0.4462  2.3519
 1730TIP3    H226606   3.114   0.860  13.508 -0.6797  2.7508  0.4525
 1731TIP3   OH226607   0.605   6.225   0.249 -0.1368  0.2150  0.0335
 1731TIP3    H126608   0.536   6.276   0.291 -0.8182 -1.0621  0.4942
 1731TIP3    H226609   0.559   6.172   0.184  0.4603 -0.3058  0.0289
 1732TIP3   OH226610   5.613   1.987   0.725 -0.1660  0.2738  0.1088
 1732TIP3    H126611   5.635   1.958   0.814 -0.3906 -0.7567 -0.1644
 1732TIP3    H226612   5.671   1.937   0.668 -0.8125  0.0818 -0.3960
 1733TIP3   OH226613   5.178   0.321  14.239  0.7786 -0.1493  0.2874
 1733TIP3    H126614   5.089   0.349  14.263  0.8960 -1.0201  1.7967
 1733TIP3    H226615   5.164   0.249  14.177  0.3643 -2.1561  2.6497
 1734TIP3   OH226616   6.336   0.530  15.563  0.4413  0.2389  0.2085
 1734TIP3    H126617   6.397   0.582  15.510  0.5519  0.2305  0.3295
 1734TIP3    H226618   6.301   0.465  15.501  0.8681 -0.0213  0.2420
 1735TIP3   OH226619   4.489   1.044  14.821 -0.4929  0.2353 -0.0160
 1735TIP3    H126620   4.450   1.131  14.815 -0.3823  0.5044  2.3679
 1735TIP3    H226621   4.583   1.060  14.816 -0.5155  0.0922 -0.9850
 1736TIP3   OH226622   0.417   2.876  16.108 -0.1171  0.5225  0.3678
 1736TIP3    H126623   0.337   2.913  16.147  0.0040  0.3537  0.7803
 1736TIP3    H226624   0.420   2.786  16.141  1.0619  0.9906  1.6068
 1737TIP3   OH226625   1.207   0.380   1.995  0.2713  0.2141  0.2019
 1737TIP3    H126626   1.147   0.307   2.007 -0.3167  0.5102 -0.9655
 1737TIP3    H226627   1.280   0.360   2.055  0.1098 -1.3068 -0.0789
 1738TIP3   OH226628   3.554   2.010   1.546  0.4843 -0.0984 -0.9998
 1738TIP3    H126629   3.565   1.915   1.556  0.4698  0.2019  2.8241
 1738TIP3    H226630   3.633   2.047   1.587 -1.6761  1.5594  1.8626
 1739TIP3   OH226631   4.756   3.024  12.940  0.0903 -0.1770  0.9355
 1739TIP3    H126632   4.776   2.933  12.919  2.2619  0.1651  1.3944
 1739TIP3    H226633   4.821   3.048  13.006 -0.9665  1.4700  1.3998
 1740TIP3   OH226634   2.875   0.322   0.851 -0.3617 -0.5626  0.0358
 1740TIP3    H126635   2.908   0.342   0.938 -0.2029 -1.3793  0.1667
 1740TIP3    H226636   2.927   0.248   0.822  2.0111  1.8686 -2.1833
 1741TIP3   OH226637   1.370   0.291  15.460 -0.0175 -0.2732  0.0598
 1741TIP3    H126638   1.433   0.357  15.492 -0.2129 -0.7064  1.3603
 1741TIP3    H226639   1.308   0.280  15.532 -0.3641 -1.4121 -0.4016
 1742TIP3   OH226640   3.631   2.645   0.007 -0.2308  0.2360  0.7956
 1742TIP3    H126641   3.627   2.712   0.075 -0.3943  0.4534  0.5736
 1742TIP3    H226642   3.578   2.573   0.041  2.3058 -0.9656  2.3126
 1743TIP3   OH226643   2.178   6.196  11.008 -0.0562 -0.2446 -0.3031
 1743TIP3    H126644   2.141   6.246  10.935  0.7557  0.0326 -0.5337
 1743TIP3    H226645   2.207   6.262  11.071  1.2359 -0.4012 -0.7158
 1744TIP3   OH226646   4.646   3.781   0.150  0.3602  0.2919 -0.5398
 1744TIP3    H126647   4.658   3.701   0.202  1.8609 -0.9385 -2.7093
 1744TIP3    H226648   4.678   3.851   0.207  1.1882 -0.9314  0.5394
 1745TIP3   OH226649   2.620   3.254  15.030 -0.7272  0.1781  0.0883
 1745TIP3    H126650   2.608   3.212  14.945  0.4238 -0.0912  0.0636
 1745TIP3    H226651   2.557   3.210  15.087 -1.1166 -0.0164 -0.4862
 1746TIP3   OH226652   2.708   2.959  16.180 -0.7126  0.7051 -0.3174
 1746TIP3    H126653   2.631   2.981  16.128 -2.1626 -2.4026  0.4109
 1746TIP3    H226654   2.779   2.950  16.116 -1.3664  1.6770 -1.1956
 1747TIP3   OH226655   4.880   2.742  11.116  0.2892  0.4028 -0.3563
 1747TIP3    H126656   4.955   2.695  11.077 -1.1128 -1.3591 -0.9983
 1747TIP3    H226657   4.837   2.676  11.170 -0.7829  1.4171  0.0326
 1748TIP3   OH226658   0.077   1.962  11.793 -0.2115  0.0745 -0.5570
 1748TIP3    H126659   0.046   1.924  11.875  0.8608  1.1125  0.3435
 1748TIP3    H226660   0.005   2.017  11.763 -0.9258 -0.9577 -0.7411
 1749TIP3   OH226661   2.675   0.820  15.765 -0.2638  0.4482  0.9076
 1749TIP3    H126662   2.679   0.836  15.859 -0.3956 -0.6935  1.1173
 1749TIP3    H226663   2.671   0.724  15.757  2.4656  0.3885 -0.3334
 1750TIP3   OH226664   4.330   4.654  10.709 -0.3217 -0.0598 -0.1835
 1750TIP3    H126665   4.410   4.677  10.662  0.7604 -0.7651  1.2729
 1750TIP3    H226666   4.302   4.735  10.751 -0.2469  0.1295 -0.4933
 1751TIP3   OH226667   6.584   4.431  15.081  0.1928  0.1583 -0.4940
 1751TIP3    H126668   6.638   4.352  15.090 -0.3996 -0.1601  0.3043
 1751TIP3    H226669   6.500   4.408  15.121 -0.6539  0.5529 -2.0101
 1752TIP3   OH226670   3.574   3.839   5.918  0.2533 -0.1220 -0.1227
 1752TIP3    H126671   3.618   3.874   5.995  1.0987 -2.1389  0.3499
 1752TIP3    H226672   3.621   3.876   5.844  0.5706  0.4257  0.3497
 1753TIP3   OH226673   0.790   0.427   0.390 -0.1513  0.0514 -0.4094
 1753TIP3    H126674   0.835   0.347   0.363 -1.0114 -1.0154  1.2408
 1753TIP3    H226675   0.834   0.454   0.470  0.3051  1.3979 -1.1001
 1754TIP3   OH226676   1.923   3.183   0.377 -0.1435  0.0354 -0.4535
 1754TIP3    H126677   1.933   3.088   0.365 -1.7034 -0.3208  0.8219
 1754TIP3    H226678   1.980   3.204   0.451 -1.1326 -0.2357  0.4002
 1755TIP3   OH226679   1.924   5.121  16.257 -0.2631  0.4498  0.8479
 1755TIP3    H126680   1.892   5.031  16.261  1.2069 -0.0596  1.2242
 1755TIP3    H226681   2.019   5.113  16.246 -0.4210  1.9524 -1.8759
 1756TIP3   OH226682   5.364   6.779  14.311 -0.1880  0.2161 -0.2205
 1756TIP3    H126683   5.282   6.759  14.265  0.2588  0.4385 -1.1352
 1756TIP3    H226684   5.402   6.850  14.260  0.3302  0.4480  0.4986
 1757TIP3   OH226685   6.601   5.657  11.311  0.5664  0.0359  0.4712
 1757TIP3    H126686   6.685   5.676  11.270  1.2757  0.1218  1.9253
 1757TIP3    H226687   6.614   5.677  11.404 -1.1403  0.3094  0.6764
 1758TIP3   OH226688   0.304   3.706   3.401 -0.2673  0.4155  0.0519
 1758TIP3    H126689   0.247   3.751   3.464 -0.4012 -0.9079  0.8833
 1758TIP3    H226690   0.267   3.619   3.392  1.3271 -0.3020  0.2195
 1759TIP3   OH226691   1.461   2.709  13.346  0.1929  0.0422  0.2108
 1759TIP3    H126692   1.543   2.687  13.303  0.5905 -1.2062  1.5677
 1759TIP3    H226693   1.486   2.740  13.433 -0.8190 -1.5274  1.0827
 1760TIP3   OH226694   1.245   2.766   2.852 -0.0776 -0.2007 -0.1005
 1760TIP3    H126695   1.268   2.724   2.768  1.1534 -0.0865  0.1675
 1760TIP3    H226696   1.249   2.695   2.916  4.2675  0.6627  0.7502
 1761TIP3   OH226697   4.404   4.861  13.550 -0.9263  0.0391 -0.3593
 1761TIP3    H126698   4.342   4.795  13.521  1.7331 -2.6002 -0.3108
 1761TIP3    H226699   4.380   4.880  13.641 -2.6252  0.2972 -0.8515
 1762TIP3   OH226700   5.581   2.480  17.069  0.1357 -0.2015  0.2227
 1762TIP3    H126701   5.611   2.562  17.109  0.5681  0.4791 -1.4655
 1762TIP3    H226702   5.488   2.496  17.050  0.4871  0.3015 -1.1009
 1763TIP3   OH226703   4.196   0.179   1.525  0.0561 -0.3659  0.6043
 1763TIP3    H126704   4.279   0.207   1.485 -0.0286 -1.9313 -0.7683
 1763TIP3    H226705   4.209   0.085   1.542 -1.1588 -0.4489  1.0914
 1764TIP3   OH226706   6.329   4.680   5.512  0.4911  0.2588 -0.4717
 1764TIP3    H126707   6.309   4.751   5.451  2.1543  0.2006 -1.1094
 1764TIP3    H226708   6.278   4.700   5.590  0.3958  1.7802 -0.9043
 1765TIP3   OH226709   6.109   0.349  13.070  0.4366  0.3449 -0.4170
 1765TIP3    H126710   6.180   0.285  13.056  1.4319  1.4398 -0.4282
 1765TIP3    H226711   6.031   0.295  13.081  1.4577 -0.9500  0.8225
 1766TIP3   OH226712   1.036   1.707  12.049 -0.2424 -0.3947  0.1177
 1766TIP3    H126713   1.007   1.797  12.045 -0.9551 -0.6643 -1.4032
 1766TIP3    H226714   1.092   1.702  12.126 -0.8977  1.1236  0.6932
 1767TIP3   OH226715   5.796   6.362  14.740  0.9036 -0.2287 -0.2444
 1767TIP3    H126716   5.758   6.334  14.656  1.9997 -1.0724 -0.4640
 1767TIP3    H226717   5.890   6.366  14.724  1.0710  0.1412  0.8032
 1768TIP3   OH226718   6.197   3.098   5.381 -0.8938 -0.3091  0.2815
 1768TIP3    H126719   6.167   3.022   5.430 -0.7449  0.4403  1.5448
 1768TIP3    H226720   6.252   3.147   5.442 -1.3618  1.0550 -0.3549
 1769TIP3   OH226721   5.150   1.336   1.306 -0.5092 -0.0780  1.1699
 1769TIP3    H126722   5.058   1.340   1.335 -0.3800 -0.1430  1.5989
 1769TIP3    H226723   5.200   1.331   1.388 -0.1170  0.0518  0.9387
 1770TIP3   OH226724   5.472   0.722  14.735 -0.0321 -0.2551  0.0268
 1770TIP3    H126725   5.517   0.684  14.810  3.2162  1.1514 -1.0646
 1770TIP3    H226726   5.513   0.680  14.659  0.2003  1.8157 -1.0422
 1771TIP3   OH226727   6.266   3.247   3.730 -0.7583  0.3081 -0.4526
 1771TIP3    H126728   6.260   3.324   3.787  1.0652 -0.5663  0.9588
 1771TIP3    H226729   6.326   3.188   3.775 -0.2147 -0.9217 -2.7032
 1772TIP3   OH226730   1.881   6.666  11.651 -0.0770 -0.5601 -0.3489
 1772TIP3    H126731   1.909   6.721  11.578  0.5980  0.0289  0.3398
 1772TIP3    H226732   1.894   6.577  11.619  0.2258 -0.3109 -0.9493
 1773TIP3   OH226733   2.332   5.311  10.425 -0.6182  0.1100  0.3887
 1773TIP3    H126734   2.316   5.405  10.424  0.9629  0.4196  1.9833
 1773TIP3    H226735   2.427   5.302  10.433 -0.7120 -1.6273 -0.1920
 1774TIP3   OH226736   2.175   6.078   3.927 -0.1879 -0.1570  0.2315
 1774TIP3    H126737   2.249   6.130   3.895 -0.1878  0.0482  0.5580
 1774TIP3    H226738   2.102   6.140   3.932 -0.8320 -0.7322 -1.6858
 1775TIP3   OH226739   0.820   5.983   2.262  1.0828 -0.1917  0.3502
 1775TIP3    H126740   0.896   5.933   2.292  0.6230 -0.6734  0.7308
 1775TIP3    H226741   0.749   5.957   2.321  0.0569 -1.5056 -1.4106
 1776TIP3   OH226742   5.352   0.809  15.638  0.8413  0.1419  0.1986
 1776TIP3    H126743   5.378   0.796  15.547 -0.3173  0.5687 -0.2001
 1776TIP3    H226744   5.256   0.813  15.636  0.8783  2.7456  1.0788
 1777TIP3   OH226745   0.936   1.772  11.220 -0.0517 -0.6206  0.3128
 1777TIP3    H126746   0.922   1.851  11.273 -2.6721 -0.3698 -0.6968
 1777TIP3    H226747   0.872   1.709  11.253  0.3879 -1.5144 -0.5217
 1778TIP3   OH226748   4.656   6.160   0.590 -0.7274 -0.0928 -0.1331
 1778TIP3    H126749   4.673   6.242   0.542  0.4389 -0.3530 -0.1866
 1778TIP3    H226750   4.713   6.096   0.548  0.4281 -0.2965  1.6875
 1779TIP3   OH226751   1.937   0.587   2.217 -0.1328  0.0101  0.0808
 1779TIP3    H126752   1.924   0.667   2.166 -2.8556 -0.2482  0.3117
 1779TIP3    H226753   1.862   0.584   2.276 -0.2340 -2.8624 -0.1372
 1780TIP3   OH226754   1.233   6.552  11.328 -0.1940 -0.2814 -0.0617
 1780TIP3    H126755   1.325   6.545  11.352 -0.4116  0.2344  0.9396
 1780TIP3    H226756   1.186   6.540  11.411 -0.9528  1.9540 -0.1589
 1781TIP3   OH226757   4.810   3.543   0.635 -0.3059  0.0339  0.2117
 1781TIP3    H126758   4.765   3.560   0.552  0.5598 -5.1528 -1.4893
 1781TIP3    H226759   4.875   3.613   0.642  0.8247 -0.4218 -4.4487
 1782TIP3   OH226760   4.775   4.466  11.872  0.1663  0.0866 -0.2915
 1782TIP3    H126761   4.748   4.546  11.917 -1.0843  0.0110 -0.8797
 1782TIP3    H226762   4.790   4.403  11.942 -2.4488 -0.2381  0.0253
 1783TIP3   OH226763   2.256   5.592   5.101  0.1345  0.0190 -0.0315
 1783TIP3    H126764   2.191   5.637   5.047 -0.4256 -0.0524  0.5786
 1783TIP3    H226765   2.326   5.569   5.040  0.6788  2.1859 -0.2711
 1784TIP3   OH226766   6.013   4.674   4.003 -0.6434 -0.7305 -0.0843
 1784TIP3    H126767   5.923   4.677   3.970 -0.0348 -2.0445 -1.9295
 1784TIP3    H226768   6.045   4.764   3.991 -2.1909  0.1784  2.1275
 1785TIP3   OH226769   0.065   4.955   3.775  0.3735 -0.0471 -0.0136
 1785TIP3    H126770  -0.005   4.892   3.760 -0.6660  1.4567 -1.6875
 1785TIP3    H226771   0.146   4.906   3.757 -0.2405 -1.6393  1.4129
 1786TIP3   OH226772   0.136   1.106   0.214 -0.1315 -0.0625 -0.5605
 1786TIP3    H126773   0.161   1.194   0.241  0.7911 -0.8574  1.3193
 1786TIP3    H226774   0.052   1.091   0.256  1.7890 -1.6921  2.9747
 1787TIP3   OH226775   0.081   4.133  12.177  0.0642  0.2863  0.5580
 1787TIP3    H126776   0.064   4.053  12.225 -0.1704  0.1448  0.2455
 1787TIP3    H226777   0.101   4.198  12.244 -1.5284  0.4184  0.9390
 1788TIP3   OH226778   2.809   4.568   1.501 -0.5516 -0.0149  0.6371
 1788TIP3    H126779   2.878   4.502   1.508  0.6193  1.0336 -0.4881
 1788TIP3    H226780   2.733   4.521   1.467 -0.3523 -1.1505  1.7134
 1789TIP3   OH226781   4.116   3.530   2.463  0.2643  0.7563  0.1276
 1789TIP3    H126782   4.075   3.543   2.378  0.1187  2.2991  0.4067
 1789TIP3    H226783   4.045   3.538   2.526  0.6798  1.5667  0.5005
 1790TIP3   OH226784   6.435   1.397   4.072  0.2517 -0.3422  0.1901
 1790TIP3    H126785   6.478   1.389   4.157  1.4313 -1.2738 -0.4851
 1790TIP3    H226786   6.493   1.453   4.021 -0.0910 -0.3856 -0.2499
 1791TIP3   OH226787   6.166   2.203   1.045 -0.1523 -0.0383 -0.4334
 1791TIP3    H126788   6.138   2.240   1.129  0.9602 -0.2912  0.0546
 1791TIP3    H226789   6.219   2.127   1.068  2.0253  1.1758 -1.2980
 1792TIP3   OH226790   3.775   2.538  11.309  0.1143 -0.2391  1.0010
 1792TIP3    H126791   3.726   2.591  11.246 -0.6140 -0.4644  1.3833
 1792TIP3    H226792   3.864   2.573  11.304 -0.0637  0.1214  0.2579
 1793TIP3   OH226793   5.180   5.538   0.711 -0.1246 -0.3436 -0.3436
 1793TIP3    H126794   5.263   5.583   0.728  0.6380 -1.6470 -0.5698
 1793TIP3    H226795   5.150   5.574   0.628 -0.0349  0.4761 -0.0317
 1794TIP3   OH226796   5.929   5.305  13.809  0.0225 -0.2389  0.4151
 1794TIP3    H126797   6.012   5.351  13.797  0.2851 -0.6525  0.6040
 1794TIP3    H226798   5.922   5.295  13.904  0.3455 -1.2562  0.3374
 1795TIP3   OH226799   5.750   6.750  13.131 -0.6763  0.2889  0.3937
 1795TIP3    H126800   5.730   6.657  13.124  0.6920  0.2095 -3.2623
 1795TIP3    H226801   5.670   6.790  13.166 -2.6914 -1.7227 -1.8049
 1796TIP3   OH226802   4.565   2.732  15.441 -0.4171 -0.1316  0.2603
 1796TIP3    H126803   4.508   2.788  15.494 -0.3673  1.8420 -1.7191
 1796TIP3    H226804   4.587   2.659  15.499 -1.1632  1.4625  2.6270
 1797TIP3   OH226805   0.374   4.381  13.224  0.5175 -0.1607  0.0299
 1797TIP3    H126806   0.286   4.367  13.259  0.9072  0.5595  1.3167
 1797TIP3    H226807   0.423   4.422  13.296  2.0448 -1.0054 -0.4953
 1798TIP3   OH226808   5.728   4.046  12.264  0.1485 -0.2468 -0.4777
 1798TIP3    H126809   5.640   4.060  12.229 -0.3463 -0.3002  0.7340
 1798TIP3    H226810   5.757   3.964  12.223 -0.0090  0.2251 -1.5565
 1799TIP3   OH226811   5.649   2.389  16.818  0.0284  0.4561  0.1259
 1799TIP3    H126812   5.646   2.396  16.913  1.0098  1.8139  0.0782
 1799TIP3    H226813   5.565   2.350  16.794  0.1566 -0.7743  1.6075
 1800TIP3   OH226814   0.380   4.559  11.008  0.0325  0.0908  0.0208
 1800TIP3    H126815   0.302   4.614  11.005  0.0462  0.0747 -0.6423
 1800TIP3    H226816   0.405   4.557  11.101 -1.2521 -0.5988  0.3699
 1801TIP3   OH226817   0.910   4.538   2.234 -0.4251 -0.0501  0.0051
 1801TIP3    H126818   0.831   4.550   2.285 -0.2323  1.1429  0.0342
 1801TIP3    H226819   0.886   4.563   2.145  0.2317  1.5024  0.2491
 1802TIP3   OH226820   5.399   2.448  14.792  0.5671  0.0920  0.1580
 1802TIP3    H126821   5.458   2.466  14.720  1.2652 -1.8343  0.2227
 1802TIP3    H226822   5.454   2.454  14.870 -0.1913  2.2047  0.5618
 1803TIP3   OH226823   4.594   2.851  13.232 -0.0897  0.1320 -0.5607
 1803TIP3    H126824   4.511   2.817  13.266  0.3037  0.1075  0.4125
 1803TIP3    H226825   4.646   2.773  13.214 -0.0417  0.1625 -0.5543
 1804TIP3   OH226826   2.753   1.984   4.437 -0.0250 -0.2809 -0.1378
 1804TIP3    H126827   2.724   2.030   4.516  0.8430  0.9371 -0.5250
 1804TIP3    H226828   2.846   1.966   4.453  0.2035  0.1596 -0.9723
 1805TIP3   OH226829   5.220   3.266  15.151  0.5394 -0.1458  0.3554
 1805TIP3    H126830   5.241   3.266  15.244  0.7022 -2.8627  0.3671
 1805TIP3    H226831   5.304   3.251  15.107  0.7361  2.8162 -0.3409
 1806TIP3   OH226832   0.626   1.156  13.209 -0.1659  0.4026  0.3864
 1806TIP3    H126833   0.590   1.092  13.147  1.4527 -0.1181 -0.0281
 1806TIP3    H226834   0.566   1.230  13.203 -1.2838 -0.5213 -0.1541
 1807TIP3   OH226835   2.010   0.400  11.529  0.0773  0.4221  0.0712
 1807TIP3    H126836   2.054   0.341  11.590  1.0316 -0.5661 -1.5113
 1807TIP3    H226837   2.038   0.370  11.443 -1.5043  1.5636 -0.8770
 1808TIP3   OH226838   1.961   3.431  16.428  0.1211  0.1526 -0.5631
 1808TIP3    H126839   1.878   3.396  16.462  0.9490 -0.4045  0.9609
 1808TIP3    H226840   1.941   3.458  16.339 -1.9738  1.0048  0.1253
 1809TIP3   OH226841   1.873   0.040  12.054  0.0751  0.5591  0.1285
 1809TIP3    H126842   1.782   0.046  12.026  0.3179 -0.5938 -0.9359
 1809TIP3    H226843   1.891  -0.054  12.060  1.2175  0.7741  0.2203
 1810TIP3   OH226844   3.546   6.095   0.719  0.0630  0.4441 -0.2621
 1810TIP3    H126845   3.570   6.136   0.802 -0.3429  0.3787 -0.1074
 1810TIP3    H226846   3.478   6.032   0.742  0.8484 -0.4930 -0.4663
 1811TIP3   OH226847   1.754   6.068   4.590 -0.0923  0.0850 -1.2376
 1811TIP3    H126848   1.850   6.064   4.584  0.0969  0.4182  1.1456
 1811TIP3    H226849   1.724   5.991   4.541  1.4172 -0.2990 -1.5887
 1812TIP3   OH226850   0.045   0.744  14.201 -0.0448 -0.1934 -0.2509
 1812TIP3    H126851   0.126   0.787  14.231 -0.7323  1.2114 -0.3609
 1812TIP3    H226852   0.044   0.760  14.107  0.5461 -1.9421 -0.5726
 1813TIP3   OH226853   4.230   2.206  14.973  0.3292 -0.2572 -0.5662
 1813TIP3    H126854   4.262   2.285  15.017  0.1605 -0.3524 -0.2715
 1813TIP3    H226855   4.172   2.238  14.905  0.9472 -0.0892 -1.0126
 1814TIP3   OH226856   4.352   6.310   1.449  0.0948 -0.0204 -0.2067
 1814TIP3    H126857   4.269   6.355   1.434  1.0640  1.3606 -1.6152
 1814TIP3    H226858   4.368   6.261   1.368  0.4296 -0.6579  0.2374
 1815TIP3   OH226859   0.814   3.531   0.997  0.4891 -0.3929  0.0004
 1815TIP3    H126860   0.804   3.626   1.004  0.2181 -0.4243  0.0650
 1815TIP3    H226861   0.799   3.512   0.905 -3.4856 -0.8081  0.6106
 1816TIP3   OH226862   2.676   5.703   2.018 -0.1436 -0.0832 -0.1308
 1816TIP3    H126863   2.668   5.769   1.949  0.0360  0.6656  0.5657
 1816TIP3    H226864   2.586   5.691   2.049  0.0587  1.1184  0.9399
 1817TIP3   OH226865   1.002   2.427   6.488 -0.3934  0.0291 -0.7349
 1817TIP3    H126866   0.995   2.341   6.529 -1.2604 -0.0963 -1.1488
 1817TIP3    H226867   1.092   2.454   6.506 -0.0313 -1.0761 -0.8344
 1818TIP3   OH226868   1.999   0.558   5.486 -0.7390 -0.0867 -0.0564
 1818TIP3    H126869   2.069   0.493   5.481 -1.3563 -0.7743  0.0722
 1818TIP3    H226870   1.975   0.561   5.578 -1.1037 -0.1003 -0.1498
 1819TIP3   OH226871   2.786   5.879  16.257 -0.2348  0.1536 -0.4841
 1819TIP3    H126872   2.868   5.843  16.223  0.6367  1.0265  0.6181
 1819TIP3    H226873   2.775   5.837  16.342 -1.4975 -0.7572 -1.1047
 1820TIP3   OH226874   0.758   3.911  13.549 -0.0728 -0.0069 -0.2136
 1820TIP3    H126875   0.715   3.983  13.503 -0.6678 -0.5590 -0.5246
 1820TIP3    H226876   0.784   3.949  13.633  0.1125  0.7257 -0.5931
 1821TIP3   OH226877   6.592   2.952  13.998 -0.3096  0.8115  0.2618
 1821TIP3    H126878   6.601   3.045  13.978  1.9376  0.1277 -2.2854
 1821TIP3    H226879   6.505   2.928  13.968  0.1170  1.5346 -1.5849
 1822TIP3   OH226880   0.959   3.383   5.806 -0.1227 -0.3396  0.1253
 1822TIP3    H126881   0.867   3.366   5.788 -0.3472  0.1801  0.7415
 1822TIP3    H226882   0.968   3.370   5.900 -0.1692  2.1896  0.5217
 1823TIP3   OH226883   5.789   6.510   5.480  0.2037 -0.2322 -0.6614
 1823TIP3    H126884   5.722   6.546   5.422 -0.1224 -0.2706 -0.3021
 1823TIP3    H226885   5.797   6.573   5.551 -0.3115 -0.8238 -0.0715
 1824TIP3   OH226886   1.304   4.945  15.591  0.0068 -0.4237  0.2958
 1824TIP3    H126887   1.261   4.999  15.656 -0.2810  2.1080 -1.9125
 1824TIP3    H226888   1.398   4.956  15.609 -0.0589  0.5983  0.0587
 1825TIP3   OH226889   1.562   0.299  11.670  0.1056 -0.0085 -0.7263
 1825TIP3    H126890   1.596   0.210  11.680 -0.0510  0.0549  0.4381
 1825TIP3    H226891   1.611   0.335  11.596  0.1858 -1.0521 -1.1881
 1826TIP3   OH226892   3.596   1.651  13.920 -0.2990  0.5116 -0.6308
 1826TIP3    H126893   3.674   1.611  13.959  0.3037 -0.7336 -3.0214
 1826TIP3    H226894   3.625   1.737  13.891  0.0362  0.2805 -0.9873
 1827TIP3   OH226895   0.206   0.234   2.513  0.6416 -0.0836  0.2791
 1827TIP3    H126896   0.252   0.252   2.431 -0.5528  0.5015 -0.2764
 1827TIP3    H226897   0.273   0.245   2.581  0.7763  3.2876 -0.3097
 1828TIP3   OH226898   5.992   0.320  15.049 -0.1464  0.0197 -0.3008
 1828TIP3    H126899   5.934   0.246  15.031  0.5312 -0.5038 -0.3847
 1828TIP3    H226900   6.080   0.282  15.049  0.2075  0.8190 -0.2886
 1829TIP3   OH226901   4.665   5.854  11.419 -0.2319 -0.2264  0.2033
 1829TIP3    H126902   4.674   5.942  11.454  2.1876  0.2693 -1.5574
 1829TIP3    H226903   4.582   5.855  11.371  0.7442  1.7171 -1.4995
 1830TIP3   OH226904   1.400   1.775   6.175 -0.3822  0.3112  0.0480
 1830TIP3    H126905   1.318   1.814   6.204 -0.6200  0.4412 -0.7804
 1830TIP3    H226906   1.440   1.842   6.119  0.2120  0.1848  0.3143
 1831TIP3   OH226907   6.275   1.436   0.459 -0.2416  0.3730 -0.7709
 1831TIP3    H126908   6.362   1.459   0.494  0.4429 -1.2408 -1.3562
 1831TIP3    H226909   6.261   1.498   0.388 -0.2314  1.6141  0.2930
 1832TIP3   OH226910   3.822   2.488  14.026 -0.4744  0.4955 -0.2342
 1832TIP3    H126911   3.863   2.552  14.084 -0.8906 -0.1324  0.7647
 1832TIP3    H226912   3.878   2.487  13.948  1.3508 -0.2891  1.0584
 1833TIP3   OH226913   2.419   6.581  10.610  0.1805  0.3471 -0.2523
 1833TIP3    H126914   2.325   6.565  10.615 -0.0521  2.1337  2.4079
 1833TIP3    H226915   2.428   6.676  10.623  2.3447  0.1771 -0.2955
 1834TIP3   OH226916   1.907   4.742   4.143  0.4284  0.0100  0.2357
 1834TIP3    H126917   1.918   4.671   4.081  0.6207  0.3469 -0.1157
 1834TIP3    H226918   1.969   4.810   4.115  0.9191 -0.0572  1.1239
 1835TIP3   OH226919   5.952   4.469  14.688 -0.3007 -0.2992  0.1386
 1835TIP3    H126920   5.998   4.398  14.733 -0.3853  0.5761  1.6424
 1835TIP3    H226921   5.895   4.506  14.755 -0.5763  0.9148 -0.7563
 1836TIP3   OH226922   3.899   0.847  13.307  0.5106 -0.2436  0.1213
 1836TIP3    H126923   3.970   0.881  13.362 -0.1957  1.7437 -0.1351
 1836TIP3    H226924   3.819   0.882  13.348 -0.0189  1.4528 -2.2556
 1837TIP3   OH226925   2.664   4.163   4.273 -0.3172  0.1659  0.0594
 1837TIP3    H126926   2.645   4.075   4.241 -0.8962  0.4520 -0.3936
 1837TIP3    H226927   2.633   4.164   4.363  0.2580 -0.2858  0.2635
 1838TIP3   OH226928   5.776   0.778   3.822 -0.3668 -0.3752 -0.7267
 1838TIP3    H126929   5.780   0.873   3.834 -1.3715 -0.4217 -0.0249
 1838TIP3    H226930   5.701   0.750   3.874  0.3773 -1.6564 -0.3117
 1839TIP3   OH226931   3.912   1.848   3.252 -0.5682  0.2558  0.3025
 1839TIP3    H126932   3.821   1.861   3.224 -1.1133 -1.0406  1.4075
 1839TIP3    H226933   3.910   1.766   3.301  1.2820  0.0243  0.0113
 1840TIP3   OH226934   0.640   3.589  15.616  0.3282 -0.0323 -1.0939
 1840TIP3    H126935   0.594   3.673  15.611  0.0081 -0.1748 -0.6002
 1840TIP3    H226936   0.676   3.577  15.528 -0.2055  0.2951 -1.3651
 1841TIP3   OH226937   2.014   2.616   5.898 -0.3495  0.1496  0.0094
 1841TIP3    H126938   1.924   2.638   5.923 -0.2136  1.9261 -0.9812
 1841TIP3    H226939   2.011   2.523   5.876 -1.9074  0.1610  0.1489
 1842TIP3   OH226940   4.366   3.120   0.985  0.1405 -0.6789 -0.0955
 1842TIP3    H126941   4.284   3.159   0.953  0.3372 -0.2409 -0.0804
 1842TIP3    H226942   4.355   3.115   1.079  0.1671 -0.5263 -0.0832
 1843TIP3   OH226943   5.080   2.822   0.856  0.4070  0.3596  0.4551
 1843TIP3    H126944   5.045   2.878   0.926  0.7592  1.2898 -0.0976
 1843TIP3    H226945   5.124   2.883   0.797  2.4610 -0.7180  0.8166
 1844TIP3   OH226946   2.927   0.330  16.978  0.0742  0.2915  0.5702
 1844TIP3    H126947   2.853   0.273  16.956  0.4364 -0.0754  0.2945
 1844TIP3    H226948   2.886   0.412  17.007 -0.4336  0.6179 -0.9775
 1845TIP3   OH226949   5.065   1.143   5.629  0.0934  0.2440  0.0728
 1845TIP3    H126950   5.055   1.101   5.714 -0.3197 -1.5356 -0.8255
 1845TIP3    H226951   5.150   1.113   5.597  1.1480  2.4875  0.6973
 1846TIP3   OH226952   2.995   6.536  11.029 -0.3573 -0.0549 -0.1805
 1846TIP3    H126953   2.900   6.542  11.039 -0.3575 -0.1725 -0.1145
 1846TIP3    H226954   3.009   6.542  10.934 -0.3410  1.2831 -0.1103
 1847TIP3   OH226955   1.606   2.096  16.267 -0.0648  0.2186  0.0795
 1847TIP3    H126956   1.679   2.071  16.324 -1.3976 -1.3024  1.1863
 1847TIP3    H226957   1.534   2.040  16.296 -0.7468 -0.6760 -3.1808
 1848TIP3   OH226958   5.287   5.591  14.062 -0.5381  0.3764 -0.0724
 1848TIP3    H126959   5.308   5.509  14.018  0.8930  0.1983  0.8892
 1848TIP3    H226960   5.309   5.576  14.154  0.5631  2.0685 -0.0103
 1849TIP3   OH226961   0.225   2.976  14.371  0.1484  0.1065  0.1142
 1849TIP3    H126962   0.225   3.060  14.418  3.2655 -0.0070  0.3684
 1849TIP3    H226963   0.147   2.981  14.315 -1.3727  1.9201  2.2752
 1850TIP3   OH226964   1.941   5.414   4.426 -0.4557  0.9849  0.4462
 1850TIP3    H126965   2.004   5.455   4.366 -1.8807 -0.5941 -2.2566
 1850TIP3    H226966   1.964   5.321   4.424 -1.2010  0.7783  1.5498
 1851TIP3   OH226967   3.437   4.001   0.060  0.6011  0.0281  0.1489
 1851TIP3    H126968   3.405   4.037   0.143 -1.5220 -0.9115 -0.2386
 1851TIP3    H226969   3.459   3.910   0.080 -0.4689 -0.3685 -0.4336
 1852TIP3   OH226970   3.404   2.362  13.362 -0.0129 -0.3766  0.0822
 1852TIP3    H126971   3.316   2.330  13.383  0.1974 -0.8319  0.2737
 1852TIP3    H226972   3.462   2.290  13.387  0.5300  0.4781  1.3203
 1853TIP3   OH226973   3.842   5.249   6.580 -0.0777  0.0541  0.1131
 1853TIP3    H126974   3.782   5.184   6.618  0.0041 -0.7221 -1.0467
 1853TIP3    H226975   3.808   5.333   6.610 -0.1695 -0.5245  1.6623
 1854TIP3   OH226976   2.889   1.003   5.789  0.0761  0.0884 -0.1933
 1854TIP3    H126977   2.898   1.016   5.694  0.4340 -2.2082 -0.4879
 1854TIP3    H226978   2.795   0.990   5.803  0.0248  0.4170 -0.2317
 1855TIP3   OH226979   5.428   4.407  16.079 -0.1050 -0.2985 -0.1462
 1855TIP3    H126980   5.382   4.454  16.148  1.3511 -0.1514  0.7416
 1855TIP3    H226981   5.484   4.344  16.125  0.7134 -0.3488 -1.1847
 1856TIP3   OH226982   2.308   5.525   1.435  0.0461 -0.2091 -0.2562
 1856TIP3    H126983   2.397   5.524   1.401 -0.4643 -0.9565 -1.6235
 1856TIP3    H226984   2.256   5.563   1.364 -0.8607 -0.6939  0.1477
 1857TIP3   OH226985   3.886   3.359  16.269  0.1277 -0.1138  0.6169
 1857TIP3    H126986   3.919   3.405  16.346 -0.1937  0.2841  0.5196
 1857TIP3    H226987   3.868   3.270  16.300 -0.1465  0.0876  1.0428
 1858TIP3   OH226988   0.732   4.381  13.997 -0.4597 -0.0426  0.1370
 1858TIP3    H126989   0.671   4.452  13.974 -0.1734  0.0731 -0.2649
 1858TIP3    H226990   0.792   4.376  13.923 -0.3864 -0.6068  0.2323
 1859TIP3   OH226991   4.869   1.057  15.079  0.5215  0.2519 -0.1496
 1859TIP3    H126992   4.918   1.109  15.144  0.2070  0.0135  0.2819
 1859TIP3    H226993   4.794   1.023  15.128  0.5303 -0.3110 -0.5270
 1860TIP3   OH226994   4.030   3.489   5.712  0.2443  0.0478 -0.4438
 1860TIP3    H126995   4.039   3.556   5.644  0.4906  0.4637 -0.0112
 1860TIP3    H226996   4.001   3.411   5.666  1.8219 -0.0824 -1.2602
 1861TIP3   OH226997   0.010   5.680  16.738  0.1411  0.1717 -0.2683
 1861TIP3    H126998  -0.026   5.693  16.826 -0.2286 -0.8442 -0.2652
 1861TIP3    H226999   0.046   5.765  16.715  0.9842  0.2449  1.2007
 1862TIP3   OH227000   5.138   5.551   5.654 -0.3294 -0.7685 -0.4777
 1862TIP3    H127001   5.193   5.473   5.665 -1.9195 -1.9565 -0.6224
 1862TIP3    H227002   5.070   5.542   5.722 -0.3360  0.6732 -0.2757
 1863TIP3   OH227003   2.429   6.407   0.931 -0.5422  0.0791 -0.4955
 1863TIP3    H127004   2.473   6.331   0.970 -0.1846  1.0604  1.0764
 1863TIP3    H227005   2.485   6.431   0.857  0.7467  0.3607  0.5469
 1864TIP3   OH227006   2.846   6.557   6.425  0.0771  0.1109  0.8193
 1864TIP3    H127007   2.891   6.606   6.356 -0.2521 -0.9214 -0.1406
 1864TIP3    H227008   2.915   6.539   6.489  0.6433  0.1099  0.2213
 1865TIP3   OH227009   0.096   0.147  14.584  0.4152 -0.0206  0.5114
 1865TIP3    H127010   0.096   0.242  14.594 -0.4152 -0.0200  0.5417
 1865TIP3    H227011   0.038   0.131  14.510  0.1881 -0.5360  0.8025
 1866TIP3   OH227012   1.314   2.221   1.951  0.1244  0.4427  0.3074
 1866TIP3    H127013   1.375   2.274   1.900 -1.4014 -0.0771 -2.0901
 1866TIP3    H227014   1.279   2.281   2.017  0.1250  1.8313 -0.9463
 1867TIP3   OH227015   3.594   0.995   4.433 -0.1965  0.0006  0.5582
 1867TIP3    H127016   3.663   0.930   4.425  0.0921  0.3592  0.0629
 1867TIP3    H227017   3.633   1.076   4.399  0.1925  0.9741  3.1951
 1868TIP3   OH227018   4.369   1.592  13.343 -0.6945 -0.0378  0.5292
 1868TIP3    H127019   4.345   1.611  13.253  0.4739  0.6775  0.3544
 1868TIP3    H227020   4.305   1.640  13.396 -1.5098 -0.6278  0.0938
 1869TIP3   OH227021   0.103   2.859   5.478  0.2798  0.1476 -0.3463
 1869TIP3    H127022   0.102   2.915   5.556  2.0628  0.2708 -0.3712
 1869TIP3    H227023   0.042   2.789   5.498  1.0314 -0.0534  1.3676
 1870TIP3   OH227024   2.267   0.723  13.863 -0.0640  0.0606 -0.1042
 1870TIP3    H127025   2.296   0.698  13.776  3.1302  0.9108  0.6273
 1870TIP3    H227026   2.286   0.817  13.869  0.2607 -0.0938  1.6494
 1871TIP3   OH227027   1.499   5.685  11.952  0.5819  0.0000 -0.3745
 1871TIP3    H127028   1.430   5.740  11.916  0.5706  0.2946  0.0875
 1871TIP3    H227029   1.570   5.691  11.889  0.3006 -0.0590 -0.6983
 1872TIP3   OH227030   4.464   0.721  15.721 -0.1621 -0.2835 -0.2054
 1872TIP3    H127031   4.515   0.733  15.801 -0.3556  2.6719 -0.4700
 1872TIP3    H227032   4.520   0.668  15.664  1.7023  1.0418  0.3578
 1873TIP3   OH227033   1.676   4.303  15.481 -0.2706  0.2599  0.1260
 1873TIP3    H127034   1.590   4.331  15.514 -0.4563  0.8003 -0.7985
 1873TIP3    H227035   1.691   4.357  15.404  0.2820 -0.7906 -0.5185
 1874TIP3   OH227036   4.972   3.297   4.023  0.2089 -1.2542  0.3009
 1874TIP3    H127037   5.041   3.291   3.957  1.0088 -1.8958  1.1747
 1874TIP3    H227038   5.004   3.363   4.085  0.3255 -1.9792  1.0259
 1875TIP3   OH227039   1.432   5.946  11.065  0.4943 -0.1199  0.3055
 1875TIP3    H127040   1.461   6.037  11.061  0.0498 -0.0031 -0.2784
 1875TIP3    H227041   1.376   5.943  11.143  2.4017 -0.4493  1.6953
 1876TIP3   OH227042   2.354   0.177  14.426 -0.1229  0.0211 -0.1626
 1876TIP3    H127043   2.296   0.109  14.459 -2.3284  1.2493 -1.3825
 1876TIP3    H227044   2.332   0.186  14.334  1.7219  0.8313 -0.5655
 1877TIP3   OH227045   2.133   2.106  16.367 -0.1341  0.8953 -0.4797
 1877TIP3    H127046   2.178   2.188  16.384  0.4911  0.1640  1.4167
 1877TIP3    H227047   2.185   2.039  16.410 -2.0588 -0.1854  0.2511
 1878TIP3   OH227048   3.275   0.927   1.396 -0.3062  0.0704 -0.9610
 1878TIP3    H127049   3.302   0.924   1.304  0.3343  2.6750 -0.9067
 1878TIP3    H227050   3.353   0.959   1.442 -0.5268 -1.4879  0.5612
 1879TIP3   OH227051   6.249   2.368   5.790  0.1961  0.0516  0.6645
 1879TIP3    H127052   6.218   2.406   5.708 -2.1351  1.0157  1.9173
 1879TIP3    H227053   6.216   2.279   5.789  0.9118 -0.2112  0.1807
 1880TIP3   OH227054   0.926   5.886   2.967  0.5676  0.5903  0.2196
 1880TIP3    H127055   0.873   5.833   3.027  0.5110 -0.6776 -0.9386
 1880TIP3    H227056   0.868   5.902   2.892  0.0626  3.5737  1.1925
 1881TIP3   OH227057   0.400   2.177  16.221 -0.5132 -0.5146 -0.4677
 1881TIP3    H127058   0.327   2.179  16.159  0.3717  0.1196 -1.5126
 1881TIP3    H227059   0.406   2.267  16.255  0.0346 -0.4657 -0.6876
 1882TIP3   OH227060   3.007   5.001   0.038  0.3673  0.4173 -0.3587
 1882TIP3    H127061   2.949   5.076   0.042  0.0793  0.1555  0.5015
 1882TIP3    H227062   2.989   4.952   0.118  1.3964  0.0563 -0.3349
 1883TIP3   OH227063   4.043   3.560   0.732 -0.5945  0.2496 -0.2767
 1883TIP3    H127064   3.991   3.562   0.812  1.2988  0.5148  0.9883
 1883TIP3    H227065   4.069   3.652   0.718  0.2086  0.0069 -0.4154
 1884TIP3   OH227066   5.058   1.169   5.308  0.6582  0.2593 -0.5559
 1884TIP3    H127067   5.084   1.081   5.281  0.6673 -0.7293  2.4984
 1884TIP3    H227068   5.093   1.226   5.240  2.6001 -1.9041 -1.4269
 1885TIP3   OH227069   3.678   0.795  14.276  0.0367  0.1086  0.1382
 1885TIP3    H127070   3.756   0.849  14.267  0.0444  0.5060  2.3189
 1885TIP3    H227071   3.628   0.811  14.197  1.6409  0.7033 -0.7714
 1886TIP3   OH227072   3.181   3.999   3.795  0.1262  0.1409 -0.4085
 1886TIP3    H127073   3.097   3.999   3.841  0.9187  0.0627  1.0625
 1886TIP3    H227074   3.176   3.922   3.737  0.6595 -2.1905  2.4924
 1887TIP3   OH227075   6.230   4.714   0.091 -0.5565  0.1332 -0.3997
 1887TIP3    H127076   6.275   4.701   0.174 -0.4346  1.9682 -0.1634
 1887TIP3    H227077   6.296   4.697   0.024 -0.2003  0.3140 -0.0927
 1888TIP3   OH227078   5.008   0.055  15.655  1.1743  0.2924 -0.3878
 1888TIP3    H127079   5.001   0.093  15.568  3.3063 -1.0636 -1.1708
 1888TIP3    H227080   5.007  -0.040  15.641  0.4379  0.0500  1.1546
 1889TIP3   OH227081   4.846   0.761  13.773 -0.0313 -0.1625  0.0500
 1889TIP3    H127082   4.798   0.690  13.730 -0.2803  1.0636 -1.7751
 1889TIP3    H227083   4.778   0.823  13.801  0.3532  0.7895 -1.0730
 1890TIP3   OH227084   0.836   0.872   1.593 -0.0798 -0.1611 -0.1199
 1890TIP3    H127085   0.911   0.813   1.585  0.5852  0.6523  0.0666
 1890TIP3    H227086   0.824   0.907   1.505  0.1179  0.1385 -0.0288
 1891TIP3   OH227087   1.721   4.791  14.420  0.1541 -0.4922  1.0009
 1891TIP3    H127088   1.756   4.742  14.495  1.8279 -1.6349 -0.4730
 1891TIP3    H227089   1.633   4.756  14.407 -0.2290 -0.1545  2.5236
 1892TIP3   OH227090   0.666   5.703   4.953 -0.2522  0.1843  0.5446
 1892TIP3    H127091   0.689   5.792   4.979 -2.8960  0.8835  0.6704
 1892TIP3    H227092   0.618   5.713   4.871  0.6993 -1.2659 -0.2057
 1893TIP3   OH227093   6.391   6.468  15.536  0.2046 -0.1710 -0.2959
 1893TIP3    H127094   6.332   6.519  15.480 -0.3856  0.2641  0.7112
 1893TIP3    H227095   6.451   6.533  15.572  0.1927 -0.3568  0.0600
 1894TIP3   OH227096   4.152   2.032   2.387  0.0980 -0.1311  0.6446
 1894TIP3    H127097   4.199   2.027   2.471  0.6111 -1.3952  0.2884
 1894TIP3    H227098   4.214   2.075   2.328  0.3432 -0.7064  0.4874
 1895TIP3   OH227099   2.084   2.648  16.394  0.1003  0.3663 -0.4517
 1895TIP3    H127100   1.991   2.668  16.398 -0.5125 -2.6301  2.7246
 1895TIP3    H227101   2.126   2.718  16.445 -0.5270  1.0123 -0.8215
 1896TIP3   OH227102   0.746   2.000  13.620  0.4581 -0.1565 -0.6011
 1896TIP3    H127103   0.798   1.943  13.563  0.5265  0.3701 -1.0640
 1896TIP3    H227104   0.674   1.944  13.650  0.6931 -0.5744 -0.8066
 1897TIP3   OH227105   4.118   0.104   5.116 -0.2269  0.0422 -0.2887
 1897TIP3    H127106   4.080   0.107   5.029 -2.0194 -0.7949  0.4430
 1897TIP3    H227107   4.045   0.080   5.174  0.6416  1.7974  1.6163
 1898TIP3   OH227108   4.846   4.583   0.319  0.2524  0.3856  0.5923
 1898TIP3    H127109   4.897   4.508   0.350 -0.3897  0.6670  2.4036
 1898TIP3    H227110   4.880   4.657   0.369 -0.6688  0.8929  0.4686
 1899TIP3   OH227111   5.779   4.136  10.558  0.5582 -0.6582 -0.4260
 1899TIP3    H127112   5.735   4.054  10.581  0.7064 -0.6978 -0.2852
 1899TIP3    H227113   5.865   4.130  10.598  0.1158  0.1113  0.6700
 1900TIP3   OH227114   3.610   6.443   4.176  0.1339  0.5172 -0.1318
 1900TIP3    H127115   3.600   6.416   4.267  0.5804  2.6581  0.5714
 1900TIP3    H227116   3.537   6.503   4.160  1.9785  2.8292 -0.1249
 1901TIP3   OH227117   4.135   2.108  11.555  0.1272 -0.3611  0.9625
 1901TIP3    H127118   4.177   2.095  11.640 -0.7316 -1.3138  1.2468
 1901TIP3    H227119   4.057   2.053  11.558 -1.4944  1.8474  0.6498
 1902TIP3   OH227120   1.307   5.567   4.784  0.0655 -0.0849  0.1359
 1902TIP3    H127121   1.352   5.534   4.862 -0.3485  0.2175  0.5036
 1902TIP3    H227122   1.230   5.613   4.817  0.2329  0.6074 -0.4154
 1903TIP3   OH227123   0.456   4.749   3.157  0.1028 -0.7440 -0.1657
 1903TIP3    H127124   0.367   4.717   3.167 -0.2372  0.3912  0.4630
 1903TIP3    H227125   0.454   4.800   3.076 -0.0030 -0.0746  0.2597
 1904TIP3   OH227126   6.344   6.707  13.240  0.2658  0.2067  0.5774
 1904TIP3    H127127   6.313   6.726  13.328 -0.0068  1.2016  0.2795
 1904TIP3    H227128   6.411   6.774  13.223  1.2886 -0.8200  0.5382
 1905TIP3   OH227129   2.347   1.157   2.801 -0.3078  0.1910 -0.0310
 1905TIP3    H127130   2.286   1.144   2.729 -2.8416 -1.5690  2.2842
 1905TIP3    H227131   2.430   1.122   2.770 -1.7559 -1.9999 -1.5444
 1906TIP3   OH227132   0.463   4.294  14.683  0.7228  0.3795  0.5286
 1906TIP3    H127133   0.475   4.387  14.701  0.7817  0.1356  1.7879
 1906TIP3    H227134   0.421   4.292  14.597  0.1261  1.5954  0.7722
 1907TIP3   OH227135   6.233   1.755   4.490  0.4343  0.9767  0.3566
 1907TIP3    H127136   6.252   1.820   4.421  1.0949 -0.1631 -0.5583
 1907TIP3    H227137   6.159   1.705   4.456  3.1476 -2.1146 -1.3625
 1908TIP3   OH227138   3.032   5.734   2.728 -0.2638  0.2911 -0.5821
 1908TIP3    H127139   3.016   5.799   2.659  1.5404  0.6612 -0.6848
 1908TIP3    H227140   3.069   5.659   2.682 -0.5565 -0.0792 -0.2178
 1909TIP3   OH227141   3.968   3.353   5.046 -0.1483  0.3818  0.0009
 1909TIP3    H127142   3.950   3.387   5.133 -0.8487 -2.7419  1.1537
 1909TIP3    H227143   3.885   3.318   5.015  0.7921 -1.4800 -0.5230
 1910TIP3   OH227144   0.548   4.552  14.701 -0.1953  0.6203 -0.2778
 1910TIP3    H127145   0.622   4.612  14.689 -0.0327  0.3914 -0.4127
 1910TIP3    H227146   0.516   4.572  14.789  0.1591  0.5726 -0.1357
 1911TIP3   OH227147   6.717   4.149   5.381 -0.1117  0.1921  0.4607
 1911TIP3    H127148   6.681   4.234   5.404 -1.0182 -0.4967  1.6912
 1911TIP3    H227149   6.739   4.109   5.465 -0.8015 -1.2502 -0.0286
 1912TIP3   OH227150   5.248   1.808   0.230 -0.9286 -0.4864  0.8050
 1912TIP3    H127151   5.197   1.805   0.311 -0.6739  2.2548  1.0840
 1912TIP3    H227152   5.242   1.899   0.201 -1.2852 -1.4896 -2.4345
 1913TIP3   OH227153   2.567   0.296  13.928 -0.6288  0.2335  0.4578
 1913TIP3    H127154   2.500   0.353  13.966  1.8399  3.7563 -0.1854
 1913TIP3    H227155   2.624   0.274  14.002 -0.6295  0.0212  0.3933
 1914TIP3   OH227156   2.994   3.849  13.098 -0.0943  0.5666  0.1214
 1914TIP3    H127157   2.919   3.854  13.157  0.3864  2.1506  0.6266
 1914TIP3    H227158   3.067   3.820  13.153 -0.4182 -1.4717 -0.4742
 1915TIP3   OH227159   3.017   3.098   1.890 -0.3169  0.1964 -0.5508
 1915TIP3    H127160   3.004   3.006   1.916 -0.2305  0.4686  0.4750
 1915TIP3    H227161   2.931   3.127   1.860 -0.7934  0.3395  0.9303
 1916TIP3   OH227162   0.003   0.602   3.251 -0.0638 -0.5206  0.4159
 1916TIP3    H127163   0.003   0.697   3.245  0.9427 -0.4972  0.6989
 1916TIP3    H227164  -0.084   0.576   3.220 -0.6786  0.5332  1.2337
 1917TIP3   OH227165   4.792   2.937  15.929  0.1155 -0.1502  0.0935
 1917TIP3    H127166   4.758   2.868  15.986  0.0393  0.8831  1.3119
 1917TIP3    H227167   4.733   2.938  15.854 -0.1455 -1.1036  0.2846
 1918TIP3   OH227168   5.874   3.625   5.193  0.6416 -0.3776 -0.0619
 1918TIP3    H127169   5.784   3.628   5.226 -0.2197 -0.0879 -2.3890
 1918TIP3    H227170   5.892   3.714   5.164  0.7061 -1.0431 -2.1267
 1919TIP3   OH227171   5.978   5.011  13.810  0.2737  0.1513 -0.0581
 1919TIP3    H127172   5.973   5.106  13.823 -0.3056  0.3522 -1.6298
 1919TIP3    H227173   5.909   4.976  13.866  0.5295  0.6523  0.5735
 1920TIP3   OH227174   4.000   5.317   1.040 -0.6523 -0.6189  0.2222
 1920TIP3    H127175   3.966   5.407   1.040 -0.6788 -0.6297 -0.1828
 1920TIP3    H227176   3.922   5.262   1.036 -0.6284 -0.6598  0.3112
 1921TIP3   OH227177   4.816   5.306   0.643  0.1677  0.2172 -0.1606
 1921TIP3    H127178   4.798   5.294   0.737  0.5769  2.6632  0.2602
 1921TIP3    H227179   4.730   5.302   0.602 -0.1693  0.5777  0.4960
 1922TIP3   OH227180   4.999   3.223  13.829  0.8326  0.0764  0.1213
 1922TIP3    H127181   4.966   3.213  13.739  0.8553 -1.6159  0.3006
 1922TIP3    H227182   4.994   3.136  13.867 -1.2938  1.1786  2.5095
 1923TIP3   OH227183   0.468   2.334   2.445  0.3437  0.4783 -0.4580
 1923TIP3    H127184   0.518   2.253   2.431 -0.0294  0.2959 -0.7752
 1923TIP3    H227185   0.512   2.378   2.517  0.5049 -0.0518 -0.2314
 1924TIP3   OH227186   4.414   0.988  14.399 -0.0553 -0.0271 -0.3190
 1924TIP3    H127187   4.456   0.911  14.362 -1.1118 -0.4176 -0.7547
 1924TIP3    H227188   4.388   0.963  14.487 -1.8217 -0.7405 -1.0042
 1925TIP3   OH227189   4.978   5.704   0.863  0.0328 -0.0830 -0.3185
 1925TIP3    H127190   4.997   5.785   0.910 -0.1040 -0.6352  0.6964
 1925TIP3    H227191   4.911   5.728   0.799 -0.3934  0.4824  0.3388
 1926TIP3   OH227192   2.103   6.517  15.768 -0.3499 -0.3666  0.0125
 1926TIP3    H127193   2.164   6.585  15.738 -0.1081 -1.1134 -1.2057
 1926TIP3    H227194   2.079   6.545  15.857  1.5967  0.0619  0.4406
 1927TIP3   OH227195   1.460   3.408  16.900  0.2934 -0.2527  0.1031
 1927TIP3    H127196   1.494   3.494  16.875  0.3626 -0.7140 -1.4694
 1927TIP3    H227197   1.365   3.419  16.903  0.3956  0.3160  1.6721
 1928TIP3   OH227198   3.552   4.330   1.109 -0.3193  0.0799  0.1782
 1928TIP3    H127199   3.551   4.406   1.167 -0.6353  1.0368 -1.0399
 1928TIP3    H227200   3.556   4.368   1.021  1.2882 -1.3519 -0.3920
 1929TIP3   OH227201   0.018   3.250   0.684  0.1510 -0.5720  0.1919
 1929TIP3    H127202   0.006   3.333   0.731 -1.1685 -0.5162 -0.2146
 1929TIP3    H227203  -0.025   3.185   0.739  1.4877 -1.0484  0.6758
 1930TIP3   OH227204   1.501   5.317   2.499 -0.1321 -0.7608  0.5823
 1930TIP3    H127205   1.567   5.384   2.520 -0.1023 -0.5952 -0.0382
 1930TIP3    H227206   1.546   5.234   2.513  0.4150 -0.6517 -0.4433
 1931TIP3   OH227207   6.689   0.320  12.461 -0.2837  0.3342  0.2924
 1931TIP3    H127208   6.648   0.399  12.497 -0.5518  1.2510 -1.9330
 1931TIP3    H227209   6.685   0.257  12.532 -1.4579  1.8449  1.6199
 1932TIP3   OH227210   2.868   5.618  14.767 -0.0014  0.1236  0.0297
 1932TIP3    H127211   2.802   5.580  14.825 -0.3343 -0.6195 -0.8130
 1932TIP3    H227212   2.818   5.674  14.707  0.4425  1.5859  1.0036
 1933TIP3   OH227213   2.616   4.582   4.557 -0.0049  0.2797 -0.3350
 1933TIP3    H127214   2.649   4.560   4.644  0.1763  0.6049 -0.3181
 1933TIP3    H227215   2.534   4.534   4.549  0.6249 -0.7776 -0.4961
 1934TIP3   OH227216   0.605   2.610   4.656 -0.3362  0.2679 -0.3838
 1934TIP3    H127217   0.621   2.664   4.579  0.2669  0.9026  0.1703
 1934TIP3    H227218   0.510   2.599   4.659 -0.4450  1.0821 -0.6539
 1935TIP3   OH227219   1.602   6.781   6.758 -0.8451  0.4150 -0.7341
 1935TIP3    H127220   1.511   6.783   6.787 -0.7279 -0.8277 -0.2615
 1935TIP3    H227221   1.602   6.716   6.688  0.1345 -1.2931  0.8358
 1936TIP3   OH227222   3.759   5.365  16.581  0.4881  0.7699  0.3649
 1936TIP3    H127223   3.824   5.396  16.518  0.9366  3.0474  1.8811
 1936TIP3    H227224   3.711   5.296  16.535  0.6354  2.5483 -2.5567
 1937TIP3   OH227225   4.525   2.908   0.907 -0.1258 -0.5755 -1.4258
 1937TIP3    H127226   4.485   2.991   0.931  0.8240 -0.6850  0.6303
 1937TIP3    H227227   4.584   2.929   0.834  0.8204  0.7240 -0.2949
 1938TIP3   OH227228   2.970   3.250  13.133 -1.4147 -0.5888  0.0486
 1938TIP3    H127229   2.929   3.275  13.051 -1.8924  0.9558  0.7383
 1938TIP3    H227230   2.897   3.225  13.190 -1.3189  0.9048  0.8521
 1939TIP3   OH227231   4.814   3.066  15.636  0.4147  0.3701 -0.0412
 1939TIP3    H127232   4.757   2.991  15.651 -0.2921  0.6411 -1.3468
 1939TIP3    H227233   4.811   3.115  15.719 -1.6243  0.6443 -0.2534
 1940TIP3   OH227234   6.028   1.142   2.254 -0.2987  0.7552 -0.5747
 1940TIP3    H127235   6.028   1.149   2.350 -1.1054 -1.6274 -0.3718
 1940TIP3    H227236   6.107   1.189   2.227  1.5551 -1.0523  1.4896
 1941TIP3   OH227237   0.585   2.560   0.856  0.0353 -0.2273 -0.1824
 1941TIP3    H127238   0.560   2.652   0.862  1.2806  0.1241 -0.3725
 1941TIP3    H227239   0.625   2.552   0.769 -0.8286 -1.1298 -0.5039
 1942TIP3   OH227240   0.508   5.466   4.649  0.2580 -0.3346  0.0591
 1942TIP3    H127241   0.527   5.455   4.556  1.3525 -1.1542  0.3572
 1942TIP3    H227242   0.487   5.378   4.680 -1.0407  0.0862  0.3999
 1943TIP3   OH227243   0.441   1.205   4.412 -0.2129 -0.1789  0.4602
 1943TIP3    H127244   0.484   1.270   4.467 -0.6747 -0.4810  1.1848
 1943TIP3    H227245   0.352   1.237   4.402 -0.1172 -0.0987 -0.1586
 1944TIP3   OH227246   3.424   5.953  11.787  0.0119 -0.2963 -0.2521
 1944TIP3    H127247   3.352   5.907  11.743  0.1780 -1.5560  0.7558
 1944TIP3    H227248   3.382   6.023  11.836 -0.5562 -1.1611  0.5021
 1945TIP3   OH227249   3.789   1.118  13.060  0.2131  0.1211 -0.4531
 1945TIP3    H127250   3.776   1.213  13.058 -0.0739  0.0760 -0.6725
 1945TIP3    H227251   3.794   1.096  13.153 -0.1098  0.2937 -0.3983
 1946TIP3   OH227252   3.565   1.762   1.173  0.2900 -0.0038  0.3066
 1946TIP3    H127253   3.559   1.671   1.146 -0.1715 -0.0791  0.6674
 1946TIP3    H227254   3.651   1.768   1.216  1.2647  0.2423 -1.6243
 1947TIP3   OH227255   0.918   1.869  14.289  0.1352 -0.3878 -0.3023
 1947TIP3    H127256   0.887   1.779  14.295  0.1940 -0.4281 -0.6031
 1947TIP3    H227257   0.961   1.885  14.373 -2.1370  0.2067  0.7985
 1948TIP3   OH227258   6.486   3.021  11.445  0.5780  0.3394 -0.0343
 1948TIP3    H127259   6.486   3.094  11.384  1.1549  0.2518 -0.1440
 1948TIP3    H227260   6.408   3.034  11.499  0.1251  0.4647 -0.7267
 1949TIP3   OH227261   3.708   3.180  11.741  0.2333  0.3077 -0.0623
 1949TIP3    H127262   3.716   3.242  11.668 -1.0673  0.1122 -0.3831
 1949TIP3    H227263   3.627   3.132  11.722  1.1940 -1.4316  0.2254
 1950TIP3   OH227264   4.908   3.139  13.149  0.5651 -0.5553 -0.1568
 1950TIP3    H127265   4.912   3.226  13.191  0.1078 -0.6526  0.0852
 1950TIP3    H227266   4.987   3.095  13.179  1.1613  0.0314 -0.8405
 1951TIP3   OH227267   3.567   5.938  12.054 -0.0180  0.3850 -0.0705
 1951TIP3    H127268   3.527   5.974  11.974 -0.9844 -0.0139  0.2218
 1951TIP3    H227269   3.493   5.924  12.113  0.3072 -2.2849 -0.2461
 1952TIP3   OH227270   0.593   5.055   0.708 -0.2758 -0.0289 -0.1794
 1952TIP3    H127271   0.652   5.026   0.777  0.2374  1.1583 -0.1200
 1952TIP3    H227272   0.618   5.002   0.632 -0.4751 -0.9432  0.3793
 1953TIP3   OH227273   2.007   6.198  16.893  0.2907  0.1885 -0.1172
 1953TIP3    H127274   2.086   6.253  16.899  0.5621 -0.2290  0.1635
 1953TIP3    H227275   1.935   6.261  16.893  0.6203  0.5729 -0.3158
 1954TIP3   OH227276   1.027   0.679  12.666 -0.5127 -0.5078 -0.1897
 1954TIP3    H127277   0.940   0.697  12.630 -0.8915 -2.3145 -0.2110
 1954TIP3    H227278   1.029   0.729  12.748 -2.1377 -1.6017  0.5424
 1955TIP3   OH227279   5.444   3.400   5.177 -0.2060  0.0275  0.2286
 1955TIP3    H127280   5.498   3.327   5.208 -0.6096 -0.7092 -0.7882
 1955TIP3    H227281   5.358   3.362   5.163 -1.2750  1.3926  2.7315
 1956TIP3   OH227282   3.566   2.672  16.719 -0.7256 -0.5643  0.2798
 1956TIP3    H127283   3.635   2.720  16.673  0.8060  0.0502  3.1148
 1956TIP3    H227284   3.613   2.612  16.778 -2.6164 -3.2038 -0.7672
 1957TIP3   OH227285   3.820   1.699   2.545 -0.0931  0.0148 -0.3402
 1957TIP3    H127286   3.736   1.655   2.536 -0.7026  0.6673  1.9426
 1957TIP3    H227287   3.881   1.644   2.496 -1.4248 -1.6520 -0.1687
 1958TIP3   OH227288   0.658   1.853  11.990  0.4282 -0.7085  0.1322
 1958TIP3    H127289   0.591   1.846  11.923  0.1412 -2.0947  0.5488
 1958TIP3    H227290   0.635   1.786  12.054  1.9651 -0.9181  0.4843
 1959TIP3   OH227291   5.330   5.631   2.706 -0.2664  0.0424 -0.3430
 1959TIP3    H127292   5.296   5.575   2.637 -0.9113 -0.2090  0.1788
 1959TIP3    H227293   5.420   5.600   2.720 -0.9873 -1.5982  0.7226
 1960TIP3   OH227294   3.922   2.622  12.709  0.2926  0.6656  0.1363
 1960TIP3    H127295   3.888   2.708  12.687  0.1987  0.8603  1.0203
 1960TIP3    H227296   3.888   2.564  12.641 -1.9988  0.8191  1.0999
 1961TIP3   OH227297   3.149   6.513   4.208  0.2023 -0.4400 -0.0045
 1961TIP3    H127298   3.064   6.481   4.240  0.2564  1.1376  1.8974
 1961TIP3    H227299   3.197   6.435   4.183 -0.1951 -1.7352  3.0780
 1962TIP3   OH227300   2.200   0.624  16.732 -0.1064  0.7590  0.7440
 1962TIP3    H127301   2.164   0.704  16.694 -1.4478  0.3849  1.1801
 1962TIP3    H227302   2.174   0.627  16.824  0.5563  0.2223  0.9566
 1963TIP3   OH227303   5.673   2.307  14.693  0.2696  0.5310  0.0688
 1963TIP3    H127304   5.718   2.228  14.663  0.6439  0.7210  0.1253
 1963TIP3    H227305   5.663   2.360  14.614  1.3334  1.0701  0.2942
 1964TIP3   OH227306   2.639   2.957  15.457  0.2776 -0.1893  0.1174
 1964TIP3    H127307   2.683   3.033  15.494  0.2359  0.0346 -0.2870
 1964TIP3    H227308   2.549   2.962  15.490 -0.3482  1.1974 -1.7158
 1965TIP3   OH227309   1.628   4.654  17.125 -0.1123 -0.5034 -0.5881
 1965TIP3    H127310   1.557   4.697  17.173 -0.3618 -2.7955  1.1842
 1965TIP3    H227311   1.685   4.726  17.097 -1.3509  1.1064  0.9272
 1966TIP3   OH227312   2.841   0.827   3.238  0.2940 -0.2475 -0.1476
 1966TIP3    H127313   2.771   0.868   3.289  0.0733  1.7432 -1.9694
 1966TIP3    H227314   2.892   0.778   3.302  0.4486  2.7255  2.1417
 1967TIP3   OH227315   3.272   5.373  14.911  0.1837 -0.7090  0.1811
 1967TIP3    H127316   3.323   5.426  14.972 -1.5261  1.6076 -0.3048
 1967TIP3    H227317   3.320   5.378  14.828 -1.7708  3.2114 -0.8366
 1968TIP3   OH227318   5.036   1.585   6.524 -0.5286  0.0849 -0.3848
 1968TIP3    H127319   5.059   1.633   6.603 -2.1391 -0.7250  0.6008
 1968TIP3    H227320   5.032   1.493   6.552  1.3288 -0.5346 -1.9754
 1969TIP3   OH227321   2.592   4.097   4.939 -0.0888 -0.1278 -0.1511
 1969TIP3    H127322   2.621   4.039   5.009  1.2413  3.2520  2.2502
 1969TIP3    H227323   2.516   4.053   4.901  0.0483 -2.7722  2.4493
 1970TIP3   OH227324   6.290   1.202  13.242 -0.1298  0.9010 -0.3362
 1970TIP3    H127325   6.219   1.226  13.184  1.9123  1.9882 -2.4550
 1970TIP3    H227326   6.343   1.281  13.250  1.7248 -0.3387 -0.0986
 1971TIP3   OH227327   5.170   0.995   1.597  0.4835  0.2102  0.0057
 1971TIP3    H127328   5.207   0.970   1.681 -0.6594  0.2975  0.5559
 1971TIP3    H227329   5.242   0.989   1.535  1.3442  0.1819  1.0032
 1972TIP3   OH227330   2.783   3.694   1.472 -0.2195 -0.4659  0.0761
 1972TIP3    H127331   2.774   3.752   1.397 -0.2818  0.6902  0.9551
 1972TIP3    H227332   2.876   3.671   1.474 -0.2306 -0.5532 -0.3907
 1973TIP3   OH227333   0.099   6.636  11.775  0.4909 -0.1839 -0.2682
 1973TIP3    H127334   0.128   6.663  11.862  1.7785  0.6427 -0.9263
 1973TIP3    H227335   0.100   6.717  11.723 -0.6412 -0.5976 -0.9489
 1974TIP3   OH227336   6.139   5.328   5.996 -0.0452  0.8721 -0.4526
 1974TIP3    H127337   6.109   5.345   6.085  2.1488  2.1854  0.0575
 1974TIP3    H227338   6.075   5.371   5.940 -0.2733  1.8305  0.5468
 1975TIP3   OH227339   0.149   4.079  14.722  0.7930  0.1297  0.6258
 1975TIP3    H127340   0.189   4.159  14.757 -0.5802  1.1650 -0.1565
 1975TIP3    H227341   0.056   4.089  14.739  0.3694 -0.4003 -1.2710
 1976TIP3   OH227342   4.106   3.036   2.708 -0.0246  0.0678  0.8045
 1976TIP3    H127343   4.195   3.071   2.706  0.0522 -0.1831 -1.0044
 1976TIP3    H227344   4.053   3.108   2.740  0.5377  0.9348 -0.1751
 1977TIP3   OH227345   2.136   5.542  12.649  0.0660 -0.4039  0.2173
 1977TIP3    H127346   2.042   5.546  12.630 -0.2630  2.1225  2.1199
 1977TIP3    H227347   2.176   5.597  12.582  0.2773 -1.7952 -0.8329
 1978TIP3   OH227348   0.046   1.199  13.967  0.4397  0.0509 -0.2539
 1978TIP3    H127349  -0.010   1.264  14.011  1.7914  0.8726  0.2776
 1978TIP3    H227350   0.066   1.135  14.035  0.7267  0.1465 -0.2461
 1979TIP3   OH227351   6.487   3.606   2.927  0.2935 -0.5883  0.0882
 1979TIP3    H127352   6.505   3.518   2.961 -0.5506  0.1085  2.4482
 1979TIP3    H227353   6.425   3.592   2.855 -0.9616 -1.8231  1.3851
 1980TIP3   OH227354   6.389   4.952  15.892 -0.4122  0.3653  0.2950
 1980TIP3    H127355   6.458   4.977  15.953 -0.6992  1.5884  0.1269
 1980TIP3    H227356   6.384   5.023  15.829 -0.9789 -0.2973 -0.4302
 1981TIP3   OH227357   2.446   5.341   1.639 -0.5573 -0.1288 -0.2026
 1981TIP3    H127358   2.462   5.258   1.593  1.0317  0.9348 -1.6264
 1981TIP3    H227359   2.356   5.363   1.617 -1.0217 -1.4982  0.2407
 1982TIP3   OH227360   0.441   4.581   5.325  0.8522  0.3914 -0.2902
 1982TIP3    H127361   0.378   4.548   5.389 -0.6899  1.2432 -1.3393
 1982TIP3    H227362   0.513   4.518   5.328 -0.1764 -0.7769  0.7011
 1983TIP3   OH227363   0.575   2.232   4.926  0.5701  0.4830 -0.2914
 1983TIP3    H127364   0.499   2.260   4.875 -0.7757  0.5362  1.6829
 1983TIP3    H227365   0.601   2.149   4.886 -1.4549 -0.2947 -0.0902
 1984TIP3   OH227366   3.560   3.704   2.612  0.2848  0.4235  0.0058
 1984TIP3    H127367   3.529   3.633   2.668  0.6520 -0.3687 -0.7900
 1984TIP3    H227368   3.575   3.663   2.527  1.0753  1.3283 -0.3011
 1985TIP3   OH227369   3.388   1.546  12.415 -0.0354  0.2767 -0.3050
 1985TIP3    H127370   3.391   1.465  12.365 -0.5385  0.8176 -1.2425
 1985TIP3    H227371   3.407   1.615  12.351 -0.1174  0.9391  0.3668
 1986TIP3   OH227372   4.531   4.347   4.711  0.3120 -0.2590  0.1886
 1986TIP3    H127373   4.512   4.319   4.621  1.3218  0.9905 -0.4207
 1986TIP3    H227374   4.447   4.379   4.744  0.3812  1.2099 -1.0220
 1987TIP3   OH227375   5.517   3.522  13.246  0.3035  0.4552  0.3768
 1987TIP3    H127376   5.612   3.523  13.236  0.1388 -1.4899 -1.8602
 1987TIP3    H227377   5.485   3.587  13.184  0.2702  3.3487  3.3082
 1988TIP3   OH227378   5.925   6.328   2.401 -0.2941  0.4488  0.1300
 1988TIP3    H127379   5.943   6.417   2.432 -1.8196  1.3557 -1.4481
 1988TIP3    H227380   5.892   6.282   2.477 -0.2136  1.4739  0.7973
 1989TIP3   OH227381   5.735   3.383   3.739 -0.1672 -0.2484  0.0652
 1989TIP3    H127382   5.752   3.446   3.810  1.4630  0.5694 -1.0072
 1989TIP3    H227383   5.813   3.389   3.684 -0.7711 -1.9712 -0.9915
 1990TIP3   OH227384   0.450   3.267   4.012 -0.1223  0.0500 -0.6569
 1990TIP3    H127385   0.541   3.279   4.036 -0.1852 -1.9395  0.6415
 1990TIP3    H227386   0.403   3.336   4.059  0.4739 -0.1539  0.2439
 1991TIP3   OH227387   3.353   4.016   0.368  0.0613 -0.1454  0.1433
 1991TIP3    H127388   3.374   4.071   0.443 -1.7317 -0.6000  1.0203
 1991TIP3    H227389   3.395   3.932   0.387  0.2785 -0.0081  0.2629
 1992TIP3   OH227390   6.484   6.115  14.739  0.1692 -0.1506 -0.0323
 1992TIP3    H127391   6.554   6.106  14.803 -0.6527 -1.2337  0.7321
 1992TIP3    H227392   6.453   6.026  14.725 -0.2350  0.1722 -1.3078
 1993TIP3   OH227393   1.013   3.837  14.131 -0.0357  0.1072  0.3700
 1993TIP3    H127394   0.998   3.746  14.104  2.5298 -0.2920  0.2384
 1993TIP3    H227395   0.987   3.890  14.055 -0.6038 -0.5417  0.1037
 1994TIP3   OH227396   1.611   1.822  16.605 -0.8489  0.0380 -0.3002
 1994TIP3    H127397   1.534   1.813  16.661 -2.0098  3.2941 -1.2549
 1994TIP3    H227398   1.579   1.801  16.517  0.2245 -1.9800 -0.2425
 1995TIP3   OH227399   1.094   3.997   0.063 -0.5543  0.5171  0.0975
 1995TIP3    H127400   1.153   4.009   0.138  2.9520 -2.8079 -1.9652
 1995TIP3    H227401   1.121   4.064   0.000 -0.7285  0.6495  0.1626
 1996TIP3   OH227402   0.078   0.149  17.080  0.0427  0.2844 -0.0661
 1996TIP3    H127403  -0.007   0.193  17.074 -0.2347 -0.4658 -2.0346
 1996TIP3    H227404   0.136   0.214  17.120 -0.9251  1.5930 -0.7593
 1997TIP3   OH227405   1.044   6.523  14.002 -0.2608 -0.1276  0.1310
 1997TIP3    H127406   1.102   6.598  13.989 -0.6194 -0.0662 -1.2013
 1997TIP3    H227407   1.094   6.448  13.970 -0.5649 -0.1964 -0.1918
 1998TIP3   OH227408   2.836   0.479  16.369 -0.4897  0.2431 -0.6821
 1998TIP3    H127409   2.837   0.500  16.463 -0.5583 -0.3085 -0.5600
 1998TIP3    H227410   2.771   0.410  16.360 -1.3471  1.1118 -1.3146
 1999TIP3   OH227411   4.072   4.096   2.297 -0.3726 -0.1263  0.2287
 1999TIP3    H127412   3.977   4.102   2.283 -0.4215 -0.9188  0.1629
 1999TIP3    H227413   4.081   4.047   2.378 -0.0210  0.1418  0.3497
 2000TIP3   OH227414   4.918   5.477   2.637  0.0195 -0.2455  0.3118
 2000TIP3    H127415   4.850   5.410   2.631  0.6185 -0.6480 -2.3027
 2000TIP3    H227416   5.000   5.429   2.642  0.2544  0.2696  1.6750
 2001TIP3   OH227417   4.988   5.151  15.098  0.5670 -0.1410 -0.5688
 2001TIP3    H127418   5.005   5.246  15.098  1.1805 -0.2455  0.7676
 2001TIP3    H227419   4.915   5.141  15.038  0.2791  1.2325 -0.4789
 2002TIP3   OH227420   2.447   6.078   3.253  0.1546 -0.2714  0.1651
 2002TIP3    H127421   2.517   6.039   3.306 -0.4286 -1.8330 -0.2050
 2002TIP3    H227422   2.375   6.015   3.257 -0.1535 -0.0950 -1.9190
 2003TIP3   OH227423   6.427   6.160   1.098  0.4629  0.3564 -0.0938
 2003TIP3    H127424   6.346   6.181   1.144  0.1785  1.4096 -1.0368
 2003TIP3    H227425   6.462   6.246   1.071  1.5412 -0.1309 -0.2576
 2004TIP3   OH227426   0.180   5.784  11.453 -0.1110 -0.4496  0.7396
 2004TIP3    H127427   0.179   5.740  11.368 -1.5674  0.0743  0.4720
 2004TIP3    H227428   0.253   5.744  11.500  2.6311  1.3308 -1.8228
 2005TIP3   OH227429   0.419   0.559   0.236  0.0323 -0.7007 -0.2546
 2005TIP3    H127430   0.440   0.611   0.313 -0.2288 -2.6163  1.1385
 2005TIP3    H227431   0.328   0.533   0.248  0.5328 -2.5422 -0.2924
 2006TIP3   OH227432   3.806   2.152  11.649 -0.3356 -0.0282 -0.1028
 2006TIP3    H127433   3.861   2.229  11.643  0.4920 -0.6442 -0.5653
 2006TIP3    H227434   3.802   2.132  11.742  0.8759 -0.4364 -0.1301
 2007TIP3   OH227435   4.986   2.367   3.450 -0.1257  0.0726  0.1122
 2007TIP3    H127436   5.072   2.330   3.427 -0.7418 -0.8624 -0.7298
 2007TIP3    H227437   4.998   2.462   3.444  0.8351 -0.0532 -0.0277
 2008TIP3   OH227438   0.414   1.733  11.839  0.5733  0.3588  0.1500
 2008TIP3    H127439   0.345   1.783  11.882  0.0611  0.3239 -0.6212
 2008TIP3    H227440   0.434   1.662  11.899  0.5026  0.8377  0.7382
 2009TIP3   OH227441   3.200   4.519  14.375 -0.1796  0.0380  0.1568
 2009TIP3    H127442   3.192   4.448  14.312  1.3044  0.4867 -0.5523
 2009TIP3    H227443   3.225   4.476  14.457 -1.5409 -0.4824  0.3129
 2010TIP3   OH227444   4.049   5.731  11.594 -0.3592  0.3331  0.2521
 2010TIP3    H127445   3.977   5.700  11.648 -1.8014  1.2448 -1.1191
 2010TIP3    H227446   4.023   5.711  11.505  0.9725  0.9216 -0.2813
 2011TIP3   OH227447   5.655   5.215  11.256 -0.4836 -0.7678 -0.1762
 2011TIP3    H127448   5.718   5.228  11.185 -0.3450 -0.8685 -0.0723
 2011TIP3    H227449   5.645   5.120  11.262 -0.9041 -0.7396 -0.4176
 2012TIP3   OH227450   5.915   3.231  12.746  0.1006  0.0850  0.6297
 2012TIP3    H127451   5.865   3.151  12.763  0.4857  0.0158  1.4356
 2012TIP3    H227452   5.964   3.212  12.666 -1.4332  0.2841 -0.3686
 2013TIP3   OH227453   0.098   2.482  14.344  0.0045 -0.2249  0.4025
 2013TIP3    H127454   0.036   2.459  14.275 -0.1629  0.3481  0.3617
 2013TIP3    H227455   0.046   2.532  14.408  0.0351 -1.2014  1.2046
 2014TIP3   OH227456   6.118   4.566  16.092  0.4551 -0.3468 -0.1703
 2014TIP3    H127457   6.157   4.611  16.017  0.7267 -1.5060 -0.7364
 2014TIP3    H227458   6.025   4.562  16.072  0.5657 -0.9050 -0.5855
 2015TIP3   OH227459   3.281   3.982  15.483 -0.0680  0.3237  0.7664
 2015TIP3    H127460   3.334   4.050  15.523  0.0617 -0.3990  1.8433
 2015TIP3    H227461   3.267   3.918  15.553  1.0650 -1.4842 -0.6093
 2016TIP3   OH227462   1.833   5.581   5.448 -0.0100  0.6293  0.1745
 2016TIP3    H127463   1.752   5.562   5.401 -0.8117 -0.4291  1.9309
 2016TIP3    H227464   1.901   5.578   5.381 -1.3630  1.0933 -1.2506
 2017TIP3   OH227465   4.336   4.710   2.368  0.8749  0.2361 -0.6341
 2017TIP3    H127466   4.414   4.728   2.316  0.9469  1.6134 -0.0756
 2017TIP3    H227467   4.311   4.795   2.404 -1.0226 -0.1430 -0.9876
 2018TIP3   OH227468   0.734   3.680  14.702 -0.2528 -0.0746  0.8412
 2018TIP3    H127469   0.687   3.729  14.770  2.0353  2.7053  0.5442
 2018TIP3    H227470   0.821   3.665  14.740 -0.2419 -2.0486  0.0651
 2019TIP3   OH227471   2.414   3.129   5.453 -0.0561  0.0469 -0.4761
 2019TIP3    H127472   2.357   3.077   5.508  0.5006 -0.6996 -0.5987
 2019TIP3    H227473   2.362   3.148   5.375 -0.0268 -0.9017 -0.7293
 2020TIP3   OH227474   6.137   3.348   2.570  0.0230  0.0324  0.0410
 2020TIP3    H127475   6.093   3.333   2.654  1.0857 -0.2580  0.5493
 2020TIP3    H227476   6.131   3.442   2.556 -0.5021  0.0321  0.2415
 2021TIP3   OH227477   3.328   1.196  12.594  0.2631 -0.2978 -0.7383
 2021TIP3    H127478   3.335   1.290  12.614 -0.0582 -0.3960 -0.1403
 2021TIP3    H227479   3.269   1.192  12.518 -1.1499 -0.1165  0.3199
 2022TIP3   OH227480   6.435   3.735   0.493 -0.3410  0.5145 -0.3900
 2022TIP3    H127481   6.476   3.775   0.569  1.3149  0.4106 -1.1968
 2022TIP3    H227482   6.448   3.799   0.423 -0.6442  0.0252 -0.8920
 2023TIP3   OH227483   3.258   2.966  11.727  0.3383  0.0022 -0.6370
 2023TIP3    H127484   3.349   2.993  11.717  0.2735  0.1665 -0.7961
 2023TIP3    H227485   3.241   2.912  11.650  0.2468  0.1207 -0.6988
 2024TIP3   OH227486   3.166   6.261  13.487  0.2475 -0.3114  0.1258
 2024TIP3    H127487   3.159   6.168  13.464  0.3666  0.0274 -1.3061
 2024TIP3    H227488   3.177   6.306  13.403  1.3638  0.8864  0.8895
 2025TIP3   OH227489   3.492   1.824   0.742 -0.0783  0.7014  0.2730
 2025TIP3    H127490   3.449   1.872   0.671  0.4206 -0.3381 -0.7399
 2025TIP3    H227491   3.459   1.735   0.735 -1.5966  1.0086  2.6274
 2026TIP3   OH227492   2.031   1.883   2.292  0.6071  0.1729 -0.1605
 2026TIP3    H127493   1.940   1.863   2.310  0.5456 -0.7570 -1.4475
 2026TIP3    H227494   2.032   1.912   2.201  1.6097  0.0550 -0.1948
 2027TIP3   OH227495   0.509   5.625  11.145 -0.6040  0.4800 -0.4664
 2027TIP3    H127496   0.468   5.555  11.196  0.3194  1.5244  1.7819
 2027TIP3    H227497   0.452   5.701  11.158 -0.7540  0.5559 -1.5858
 2028TIP3   OH227498   1.705   0.374  11.375 -0.1845  0.0691  0.1799
 2028TIP3    H127499   1.732   0.462  11.403 -0.2893  0.2901 -0.4101
 2028TIP3    H227500   1.708   0.378  11.279  0.4302 -0.7656  0.1591
 2029TIP3   OH227501   1.323   3.178  15.186 -0.5140  0.0263 -0.1459
 2029TIP3    H127502   1.259   3.226  15.133  0.3899  1.2613 -0.1619
 2029TIP3    H227503   1.383   3.139  15.123 -0.2832  0.2806 -0.0871
 2030TIP3   OH227504   1.428   5.554  13.903 -0.4575  0.2971 -0.5976
 2030TIP3    H127505   1.467   5.545  13.990 -0.0190  0.7288 -0.7468
 2030TIP3    H227506   1.378   5.474  13.891 -0.7711  0.3715  0.1796
 2031TIP3   OH227507   5.175   1.784  11.971  0.0233 -0.8215 -0.4718
 2031TIP3    H127508   5.103   1.765  12.031 -1.1298 -1.1769 -1.9307
 2031TIP3    H227509   5.202   1.699  11.938  0.5233 -0.6096 -0.6172
 2032TIP3   OH227510   0.582   0.126   5.771 -0.5550  0.1826 -0.7687
 2032TIP3    H127511   0.541   0.170   5.845 -1.9400  0.2390 -1.5553
 2032TIP3    H227512   0.623   0.196   5.720 -0.2706  0.2276 -0.4820
 2033TIP3   OH227513   1.417   0.527  12.960  0.1287 -0.8066  0.4111
 2033TIP3    H127514   1.333   0.546  13.003  0.2181 -0.5210  0.4605
 2033TIP3    H227515   1.475   0.501  13.032  0.3518 -0.0792  0.5052
 2034TIP3   OH227516   1.802   1.568  14.743 -0.1147  0.0126  0.5358
 2034TIP3    H127517   1.878   1.580  14.686  0.0416 -1.0167  0.5128
 2034TIP3    H227518   1.794   1.650  14.791 -0.1765  0.8558 -0.8869
 2035TIP3   OH227519   2.245   0.689  12.549 -0.5294 -0.2135  0.4913
 2035TIP3    H127520   2.249   0.675  12.644  0.5275  0.0518  0.4917
 2035TIP3    H227521   2.276   0.607  12.512  2.6609  0.9645  0.4438
 2036TIP3   OH227522   3.482   4.907   4.173 -0.0761  0.5752  0.3165
 2036TIP3    H127523   3.409   4.846   4.183  0.4309 -0.3369 -1.3226
 2036TIP3    H227524   3.559   4.856   4.198  0.5719 -0.0922 -2.8514
 2037TIP3   OH227525   1.902   4.856  14.167 -0.6620 -0.0177 -0.1793
 2037TIP3    H127526   1.869   4.904  14.243 -1.3473  0.0052 -0.4900
 2037TIP3    H227527   1.832   4.862  14.102 -1.3467 -2.5608  0.2525
 2038TIP3   OH227528   3.281   2.201  12.745 -0.4737 -0.0014  0.0924
 2038TIP3    H127529   3.325   2.151  12.815  1.2513 -0.3261 -1.1919
 2038TIP3    H227530   3.194   2.219  12.780  0.0141 -1.0450  1.9262
 2039TIP3   OH227531   5.439   5.621   0.057 -0.0006  0.1202  0.0712
 2039TIP3    H127532   5.511   5.681   0.040 -0.3799  0.4938 -0.2258
 2039TIP3    H227533   5.421   5.580  -0.027 -0.4389  0.3702  0.0400
 2040TIP3   OH227534   4.124   5.068  15.054 -0.0845  0.1060  0.1296
 2040TIP3    H127535   4.142   5.010  15.129  1.1679  0.1248 -0.1536
 2040TIP3    H227536   4.197   5.129  15.053 -1.2628  1.5457  0.2527
 2041TIP3   OH227537   5.249   3.197   3.476  0.0642 -0.0449  0.6462
 2041TIP3    H127538   5.208   3.189   3.390  0.2356  0.4127  0.5253
 2041TIP3    H227539   5.311   3.124   3.479 -1.7268 -1.5863  1.3714
 2042TIP3   OH227540   5.111   4.469  14.989  0.0109  0.3740  0.0204
 2042TIP3    H127541   5.116   4.551  15.038  0.7416  0.2398  0.1816
 2042TIP3    H227542   5.129   4.401  15.055  0.4499  0.1590 -0.3162
 2043TIP3   OH227543   0.184   2.928  15.526 -0.4017 -0.0368  0.0006
 2043TIP3    H127544   0.227   3.012  15.541 -0.4939  0.1064 -0.5248
 2043TIP3    H227545   0.124   2.918  15.600  0.4067 -0.1622  0.6530
 2044TIP3   OH227546   6.507   4.744   6.133 -0.2471 -0.3720  0.0525
 2044TIP3    H127547   6.537   4.692   6.208 -0.1412 -0.5788 -0.1347
 2044TIP3    H227548   6.588   4.773   6.090 -0.3271 -1.6021 -0.9187
 2045TIP3   OH227549   0.044   0.279  15.662 -0.2921  0.2769 -0.0318
 2045TIP3    H127550  -0.018   0.347  15.636  0.2727  1.3983  1.5244
 2045TIP3    H227551   0.107   0.324  15.718 -1.0026 -1.8803  2.6100
 2046TIP3   OH227552   6.078   5.013  14.434 -0.0191  0.5154 -0.2847
 2046TIP3    H127553   6.035   5.078  14.377  1.0590 -0.8700 -2.7421
 2046TIP3    H227554   6.079   4.933  14.382  1.6593 -0.5926  1.4106
 2047TIP3   OH227555   3.273   1.713   6.105  0.0019 -0.3491 -0.0447
 2047TIP3    H127556   3.292   1.779   6.037 -0.8831  0.9738  0.9764
 2047TIP3    H227557   3.181   1.692   6.093 -0.2812  0.2343  1.0210
 2048TIP3   OH227558   1.052   3.202   0.747 -0.0332  0.1725  0.0940
 2048TIP3    H127559   1.099   3.238   0.822  0.9445 -0.9761  0.0489
 2048TIP3    H227560   0.960   3.223   0.764  0.5322  3.1834 -0.2051
 2049TIP3   OH227561   4.442   6.490   4.666  0.4000  0.0283  0.0577
 2049TIP3    H127562   4.449   6.399   4.693 -1.3732  0.4377  2.1048
 2049TIP3    H227563   4.530   6.525   4.676  0.4269 -0.6333  2.5897
 2050TIP3   OH227564   3.954   0.599   5.131  0.0587 -0.2998 -0.0496
 2050TIP3    H127565   4.016   0.538   5.171 -0.4615 -0.0859  1.1111
 2050TIP3    H227566   3.870   0.554   5.136 -0.3177  0.4722  0.7493
 2051TIP3   OH227567   3.046   0.663   0.068  1.0626  0.1069  0.6632
 2051TIP3    H127568   3.105   0.737   0.052 -0.0812  0.6874 -1.0533
 2051TIP3    H227569   3.098   0.601   0.118  2.9401  0.8468 -0.3243
 2052TIP3   OH227570   3.955   2.779   3.197 -0.4857 -0.3525 -0.1872
 2052TIP3    H127571   4.009   2.706   3.167  0.5921  1.0516 -1.7357
 2052TIP3    H227572   4.002   2.813   3.274 -1.5348 -1.8980  1.1746
 2053TIP3   OH227573   6.396   0.714   0.080  0.0906  0.3829 -0.4439
 2053TIP3    H127574   6.490   0.732   0.087  0.0501  1.0158 -1.4424
 2053TIP3    H227575   6.376   0.661   0.157  0.6534  2.9469  1.5494
 2054TIP3   OH227576   4.645   2.265   6.183  0.4899  0.3136 -0.0957
 2054TIP3    H127577   4.553   2.251   6.205  0.2793  1.9591  0.1716
 2054TIP3    H227578   4.650   2.358   6.159  2.3802  0.6839  1.5748
 2055TIP3   OH227579   1.151   4.703  17.139 -0.3139  0.2326 -0.0165
 2055TIP3    H127580   1.233   4.699  17.189 -0.3504 -2.1887 -0.0876
 2055TIP3    H227581   1.082   4.703  17.206 -0.2978  1.7468  0.0262
 2056TIP3   OH227582   2.193   4.821   5.467  0.2818  0.1548  0.2207
 2056TIP3    H127583   2.224   4.735   5.440  0.7293  0.3983 -0.0542
 2056TIP3    H227584   2.240   4.840   5.548 -1.1811 -0.6443  1.2696
 2057TIP3   OH227585   6.471   5.078   1.228 -0.1344 -0.4466  0.1223
 2057TIP3    H127586   6.462   4.994   1.273 -1.4563  0.3644  1.4269
 2057TIP3    H227587   6.401   5.077   1.162 -2.0958  0.7894  2.0886
 2058TIP3   OH227588   2.193   6.684   2.116  0.6468  0.1620  0.2492
 2058TIP3    H127589   2.112   6.646   2.150  0.9793 -0.4100  0.4202
 2058TIP3    H227590   2.188   6.670   2.021  0.2613  0.6898  0.1901
 2059TIP3   OH227591   2.426   0.878  14.103 -0.3121  0.2032  0.5116
 2059TIP3    H127592   2.334   0.851  14.102  0.1227 -1.3640  0.5346
 2059TIP3    H227593   2.450   0.874  14.196 -0.3032  0.9478  0.5453
 2060TIP3   OH227594   4.796   5.962   5.373 -0.4716 -0.1817  0.4207
 2060TIP3    H127595   4.855   6.001   5.310 -1.2182 -1.2485 -0.9629
 2060TIP3    H227596   4.851   5.942   5.449  0.6674  0.0562 -0.3320
 2061TIP3   OH227597   5.016   3.171   6.336  0.1099 -0.1988  0.9937
 2061TIP3    H127598   4.976   3.204   6.416  0.6613 -0.4056  1.3637
 2061TIP3    H227599   5.086   3.113   6.367  0.6102  0.0618  0.3640
 2062TIP3   OH227600   1.777   5.046  13.732 -0.5947  0.0026  0.4686
 2062TIP3    H127601   1.719   4.976  13.761 -1.3358 -0.3830 -1.8542
 2062TIP3    H227602   1.718   5.118  13.710  0.0576  0.7976  1.2864
 2063TIP3   OH227603   4.602   6.288  13.572 -0.1829 -0.5009  0.0437
 2063TIP3    H127604   4.578   6.288  13.664  1.5838  0.9413  0.5293
 2063TIP3    H227605   4.546   6.355  13.533 -1.7363 -1.8906 -0.1905
 2064TIP3   OH227606   1.950   5.581  16.583 -0.2759  0.2976 -0.4986
 2064TIP3    H127607   1.956   5.612  16.492  0.0153 -0.3022 -0.6828
 2064TIP3    H227608   2.029   5.614  16.625 -0.2326  0.2607 -0.5526
 2065TIP3   OH227609   6.463   1.994  15.890 -0.6399  0.2146  0.4680
 2065TIP3    H127610   6.473   2.063  15.824  1.2323 -0.8070 -0.3742
 2065TIP3    H227611   6.484   1.913  15.843 -1.8660 -0.8416  1.6774
 2066TIP3   OH227612   5.834   0.519   3.371  0.0446 -0.3652 -0.0899
 2066TIP3    H127613   5.809   0.601   3.412  0.6639  0.8709 -2.1273
 2066TIP3    H227614   5.929   0.515   3.382  0.2425  0.0719 -1.5241
 2067TIP3   OH227615   3.664   1.223   4.951  0.0422  0.1355  0.0706
 2067TIP3    H127616   3.586   1.279   4.945 -0.2798 -0.3471 -0.2979
 2067TIP3    H227617   3.738   1.284   4.948 -0.3254  0.6083  0.5788
 2068TIP3   OH227618   1.424   4.485   2.415  0.5523  0.1730  0.0308
 2068TIP3    H127619   1.510   4.464   2.452 -0.2241 -0.5989  1.4680
 2068TIP3    H227620   1.416   4.428   2.338  1.9719  1.4006 -1.0444
 2069TIP3   OH227621   0.162   1.381   5.445 -0.1756  0.3907  0.1559
 2069TIP3    H127622   0.206   1.311   5.397  0.8508 -1.2913  3.4206
 2069TIP3    H227623   0.201   1.461   5.411  2.5157 -0.8646  0.1309
 2070TIP3   OH227624   0.575   4.140   1.644  0.0702  0.0847  0.0644
 2070TIP3    H127625   0.593   4.079   1.716 -1.0203  0.6587  0.8309
 2070TIP3    H227626   0.629   4.217   1.663 -0.1620  0.2069  0.2280
 2071TIP3   OH227627   2.182   6.259   4.456 -0.5175  0.1494  0.7316
 2071TIP3    H127628   2.240   6.199   4.409  1.7292  2.4164  0.5145
 2071TIP3    H227629   2.108   6.272   4.396  0.1557 -0.4878 -0.2537
 2072TIP3   OH227630   2.116   2.129  12.565  0.1947 -0.1535 -0.4691
 2072TIP3    H127631   2.198   2.121  12.517  1.6383 -3.0448  2.3195
 2072TIP3    H227632   2.062   2.057  12.532 -0.3668  0.3693 -0.6946
 2073TIP3   OH227633   6.111   3.078  12.579  0.4840  0.4021  0.2470
 2073TIP3    H127634   6.115   3.028  12.661 -1.3119 -0.6109 -0.2510
 2073TIP3    H227635   6.202   3.084  12.551  1.0527  0.1110  1.9269
 2074TIP3   OH227636   6.297   5.659   3.505  0.3341 -0.0952 -0.0407
 2074TIP3    H127637   6.212   5.622   3.482  0.9347 -0.3820 -1.8913
 2074TIP3    H227638   6.323   5.613   3.585 -1.0558 -0.2967  0.3066
 2075TIP3   OH227639   3.044   5.647   1.692  0.3213 -0.3145  0.6818
 2075TIP3    H127640   3.137   5.664   1.676 -0.4321  2.4791 -1.2031
 2075TIP3    H227641   3.022   5.575   1.634  1.0811 -0.2438  0.2979
 2076TIP3   OH227642   1.887   6.547   4.797 -0.1987 -0.0805 -0.0604
 2076TIP3    H127643   1.904   6.620   4.737 -0.5927 -0.5119 -0.7035
 2076TIP3    H227644   1.950   6.480   4.773  0.5986  0.2880  0.9646
 2077TIP3   OH227645   1.906   0.988  14.701  0.7736 -0.3089  0.1281
 2077TIP3    H127646   1.955   0.928  14.645  0.4296  0.2244 -0.7436
 2077TIP3    H227647   1.907   1.071  14.655 -0.5950 -0.1834  0.2879
 2078TIP3   OH227648   1.905   5.818  12.397 -0.3227 -0.6357  0.1628
 2078TIP3    H127649   1.949   5.903  12.399 -2.5272  0.5281  1.2600
 2078TIP3    H227650   1.853   5.820  12.317  0.6890 -1.5211 -0.5208
 2079TIP3   OH227651   3.422   5.466  11.727 -0.2558  0.4061 -0.2485
 2079TIP3    H127652   3.453   5.472  11.817  1.0699  0.1506 -0.6795
 2079TIP3    H227653   3.327   5.475  11.734 -0.2928 -0.9759  1.3150
 2080TIP3   OH227654   1.131   6.687  13.102  0.1096  0.6864  0.0411
 2080TIP3    H127655   1.121   6.605  13.053 -0.0156 -0.7833  2.4510
 2080TIP3    H227656   1.118   6.756  13.037  1.0398 -1.1984 -2.2036
 2081TIP3   OH227657   4.165   6.490  14.576  0.1175 -0.0598  0.4625
 2081TIP3    H127658   4.078   6.483  14.536  0.8522 -1.7622 -0.9288
 2081TIP3    H227659   4.194   6.579  14.556 -0.4701 -0.1486 -0.8775
 2082TIP3   OH227660   3.254   0.630   1.112 -0.0025 -0.7080  0.2073
 2082TIP3    H127661   3.277   0.639   1.020 -2.1703  0.4802 -0.2548
 2082TIP3    H227662   3.289   0.709   1.153 -2.2393  0.5951 -0.3090
 2083TIP3   OH227663   5.354   4.476   3.898  0.3183 -0.1636  0.3996
 2083TIP3    H127664   5.325   4.567   3.897  2.3848  0.5309  1.1469
 2083TIP3    H227665   5.369   4.454   3.806  1.8153  0.9451  0.3603
 2084TIP3   OH227666   3.968   3.227  13.480  0.3253  0.1689  0.1333
 2084TIP3    H127667   4.016   3.161  13.431 -0.9614 -1.4942  1.0611
 2084TIP3    H227668   3.878   3.217  13.451  0.2673  2.1916 -0.4271
 2085TIP3   OH227669   0.654   3.661   6.427  0.1247 -0.3805 -0.4529
 2085TIP3    H127670   0.619   3.581   6.465  1.1201 -0.1110  1.0634
 2085TIP3    H227671   0.579   3.719   6.420 -0.1267 -0.5419  0.8328
 2086TIP3   OH227672   2.349   2.370  14.496 -0.2247  0.4264  0.6589
 2086TIP3    H127673   2.445   2.376  14.502 -0.2794  1.4913  0.5620
 2086TIP3    H227674   2.323   2.335  14.581  0.1151  1.9408  1.4133
 2087TIP3   OH227675   1.538   3.165   2.451  0.5402  0.3098 -0.9135
 2087TIP3    H127676   1.489   3.115   2.516  1.9542  0.1635  0.0554
 2087TIP3    H227677   1.473   3.222   2.411 -0.8609 -1.4668 -1.2153
 2088TIP3   OH227678   5.447   6.631  14.867 -0.3415 -0.3943 -0.0976
 2088TIP3    H127679   5.486   6.616  14.781  0.1874 -0.1427  0.0918
 2088TIP3    H227680   5.410   6.719  14.862  2.7073  1.0538  0.9932
 2089TIP3   OH227681   0.166   5.129  10.617 -0.2038  0.2811 -0.2355
 2089TIP3    H127682   0.188   5.222  10.621 -4.3187  1.5025 -3.0431
 2089TIP3    H227683   0.187   5.104  10.527  2.0231 -1.9045  0.8392
 2090TIP3   OH227684   0.875   2.556  11.695 -0.5363 -0.6937 -0.4670
 2090TIP3    H127685   0.971   2.553  11.694 -0.4678  1.2802 -1.2756
 2090TIP3    H227686   0.850   2.499  11.768  1.2388 -1.4132 -0.4011
 2091TIP3   OH227687   4.849   3.897  11.708 -0.1209 -0.0266  0.1429
 2091TIP3    H127688   4.852   3.802  11.711  0.9165 -0.0290 -0.8545
 2091TIP3    H227689   4.839   3.923  11.800  0.6557 -1.0582  0.5291
 2092TIP3   OH227690   2.015   4.453  11.558  0.1549  0.1748 -0.3291
 2092TIP3    H127691   1.983   4.498  11.636  0.1159  1.0359 -0.8386
 2092TIP3    H227692   2.062   4.520  11.509  2.8910 -1.1003  0.4590
 2093TIP3   OH227693   0.700   3.606   2.852  0.1121 -0.6405  0.4427
 2093TIP3    H127694   0.625   3.657   2.820  0.3258 -1.6554 -1.7149
 2093TIP3    H227695   0.708   3.533   2.791  3.3749 -0.1169  0.1366
 2094TIP3   OH227696   3.003   2.024  11.188  0.0455  0.3290 -0.6282
 2094TIP3    H127697   2.980   2.089  11.121  3.5966  0.4928 -1.8340
 2094TIP3    H227698   3.051   2.074  11.254 -0.7358 -0.3989  0.5166
 2095TIP3   OH227699   1.594   3.875  15.235 -0.1925 -0.4206 -0.1720
 2095TIP3    H127700   1.502   3.859  15.214 -0.6985  0.0413  1.5737
 2095TIP3    H227701   1.594   3.895  15.329  1.7106 -0.5601 -0.1207
 2096TIP3   OH227702   0.237   5.368  15.872  0.8563  0.4466  0.1826
 2096TIP3    H127703   0.259   5.447  15.823 -1.0434  0.6132 -0.4685
 2096TIP3    H227704   0.157   5.392  15.920 -0.6138 -1.5382 -1.1961
 2097TIP3   OH227705   4.106   1.828  12.633 -0.5131 -0.2578 -0.0548
 2097TIP3    H127706   4.163   1.905  12.624 -2.2664  1.1812  0.8854
 2097TIP3    H227707   4.150   1.760  12.582  2.7044  0.4420  1.6363
 2098TIP3   OH227708   2.764   4.196   1.457  0.4472 -0.1739  0.5320
 2098TIP3    H127709   2.710   4.266   1.419  0.1281 -0.7273 -0.0469
 2098TIP3    H227710   2.817   4.164   1.384 -0.4817 -1.5347  0.4313
 2099TIP3   OH227711   5.983   3.064   2.846  0.0038  0.3098 -0.3639
 2099TIP3    H127712   5.926   3.139   2.860 -0.6700  0.0613 -1.6577
 2099TIP3    H227713   6.070   3.094   2.875 -0.4459  1.2497  0.0341
 2100TIP3   OH227714   1.238   0.054   2.656  0.4531  0.0117 -0.0137
 2100TIP3    H127715   1.281   0.103   2.586 -0.2424  2.1903  1.0513
 2100TIP3    H227716   1.295   0.067   2.733 -1.5111  2.0239  1.1341
 2101TIP3   OH227717   0.617   1.639  17.122  0.6998 -0.2834 -0.1624
 2101TIP3    H127718   0.536   1.648  17.072  1.2165 -0.1470 -1.0013
 2101TIP3    H227719   0.679   1.601  17.060  0.9131 -1.6269  0.8668
 2102TIP3   OH227720   4.484   2.458   3.384  0.6863 -0.6620  0.0505
 2102TIP3    H127721   4.511   2.542   3.347  0.9927 -1.8216 -2.4424
 2102TIP3    H227722   4.566   2.409   3.394  0.3637 -1.1999  0.0863
 2103TIP3   OH227723   1.233   6.564   4.318 -0.1378 -0.2171  0.0544
 2103TIP3    H127724   1.320   6.572   4.356 -0.2185 -2.3902  0.7918
 2103TIP3    H227725   1.175   6.604   4.383  0.0956 -0.6682  0.5438
 2104TIP3   OH227726   1.153   2.648   3.824  0.3696  0.2119  0.4620
 2104TIP3    H127727   1.110   2.591   3.759 -0.3284 -0.0368  1.1243
 2104TIP3    H227728   1.178   2.726   3.775  0.0017 -0.0468 -0.1442
 2105TIP3   OH227729   2.000   5.072   5.616  0.2584 -0.2284  0.4090
 2105TIP3    H127730   1.917   5.039   5.650  0.8926  0.1102  2.3700
 2105TIP3    H227731   1.976   5.130   5.544 -1.2515  0.3717  1.3784
 2106TIP3   OH227732   2.022   4.134   6.060 -0.4667  0.0657  0.6800
 2106TIP3    H127733   2.118   4.126   6.060 -0.6388 -2.2412 -0.4521
 2106TIP3    H227734   2.006   4.216   6.107  2.1326  1.3633 -0.5519
 2107TIP3   OH227735   5.516   2.161  16.308  0.2209  0.2407 -1.3593
 2107TIP3    H127736   5.594   2.126  16.349 -0.3469 -1.5928 -1.8218
 2107TIP3    H227737   5.521   2.131  16.217 -0.2355  1.4198 -1.7837
 2108TIP3   OH227738   2.614   2.766   0.793  0.1801  0.1600  0.1778
 2108TIP3    H127739   2.609   2.858   0.819  0.1565  0.0284  0.6431
 2108TIP3    H227740   2.596   2.717   0.873 -2.6874 -0.2321 -0.6234
 2109TIP3   OH227741   2.507   6.019  15.905 -0.1409 -0.2152  0.1707
 2109TIP3    H127742   2.568   6.067  15.848 -1.1730  0.6125 -0.2478
 2109TIP3    H227743   2.509   5.930  15.871 -2.0108  0.6150 -2.2821
 2110TIP3   OH227744   4.433   2.207  11.228 -0.5570  0.0869 -0.3930
 2110TIP3    H127745   4.428   2.178  11.319 -2.9607  1.0326 -0.1810
 2110TIP3    H227746   4.438   2.126  11.177 -1.3650 -0.5237  0.4764
 2111TIP3   OH227747   2.418   3.955   0.744 -0.5257  0.5037 -0.4687
 2111TIP3    H127748   2.470   3.892   0.694 -0.3820 -1.0916  1.5985
 2111TIP3    H227749   2.372   4.006   0.678  0.4710 -0.8158 -2.2389
 2112TIP3   OH227750   1.173   2.756   1.904  0.0341 -0.5544  0.1065
 2112TIP3    H127751   1.200   2.847   1.916  0.3474 -0.8276  1.5762
 2112TIP3    H227752   1.103   2.760   1.839 -0.9199  0.9082  1.1810
 2113TIP3   OH227753   1.506   4.772  12.347 -0.3294 -0.2678 -0.0224
 2113TIP3    H127754   1.447   4.839  12.313 -0.8393  0.0040  1.3606
 2113TIP3    H227755   1.581   4.821  12.382 -0.4472 -0.4558  0.4890
 2114TIP3   OH227756   0.823   2.652  17.209 -0.0067  0.3590  0.4093
 2114TIP3    H127757   0.857   2.728  17.161 -0.7704  0.6030  0.2597
 2114TIP3    H227758   0.828   2.580  17.146 -2.5254  1.0097 -0.5927
 2115TIP3   OH227759   5.043   0.156  11.956  0.2395 -0.0739  0.7156
 2115TIP3    H127760   5.029   0.217  11.884 -3.4173 -1.5264  0.0869
 2115TIP3    H227761   5.086   0.208  12.023  2.6170  1.6332 -2.0032
 2116TIP3   OH227762   1.021   3.951  12.711 -0.2115 -0.6124 -0.0092
 2116TIP3    H127763   1.003   3.868  12.667 -1.0342 -0.6170  0.3258
 2116TIP3    H227764   1.013   4.017  12.643  2.9930 -1.0381 -0.8481
 2117TIP3   OH227765   6.473   2.091  16.147  0.5122  0.0689 -0.3488
 2117TIP3    H127766   6.472   2.186  16.139  1.0547  0.0328 -0.9781
 2117TIP3    H227767   6.466   2.060  16.057  1.4318 -0.4678 -0.2397
 2118TIP3   OH227768   0.417   1.961   0.040  0.0278 -0.1888 -0.0301
 2118TIP3    H127769   0.353   2.003  -0.018  1.4985 -0.3535 -1.8109
 2118TIP3    H227770   0.384   1.872   0.051 -0.5969  0.0309 -0.0708
 2119TIP3   OH227771   0.660   2.220  11.531  0.0912 -0.3162  0.1796
 2119TIP3    H127772   0.673   2.135  11.573 -0.3079 -0.6674 -0.4110
 2119TIP3    H227773   0.727   2.276  11.571 -1.3289 -0.2176  2.4935
 2120TIP3   OH227774   6.452   2.316  14.073 -0.1674 -0.0678  0.6397
 2120TIP3    H127775   6.372   2.365  14.092 -0.0542  0.8667 -1.1773
 2120TIP3    H227776   6.430   2.225  14.097 -2.0431  0.0431 -0.4955
 2121TIP3   OH227777   4.149   2.864  13.708  0.3839 -0.4095 -0.8444
 2121TIP3    H127778   4.185   2.892  13.793 -2.3134 -0.2598  0.2973
 2121TIP3    H227779   4.226   2.858  13.651  2.1476  0.4431  1.3306
 2122TIP3   OH227780   0.128   5.778  15.765 -0.7634  0.0678 -0.4963
 2122TIP3    H127781   0.183   5.706  15.797  1.4573  1.3450 -1.3261
 2122TIP3    H227782   0.166   5.802  15.681 -1.7982  1.8524 -0.4817
 2123TIP3   OH227783   6.133   2.568  15.268 -0.4947  0.0385  0.7225
 2123TIP3    H127784   6.135   2.509  15.344  0.6599 -1.1556 -0.2175
 2123TIP3    H227785   6.074   2.524  15.206 -0.7560  0.5882  0.5815
 2124TIP3   OH227786   5.326   1.914   0.667  0.7794 -0.7565  0.1605
 2124TIP3    H127787   5.400   1.969   0.641 -0.3390  0.6817 -0.0804
 2124TIP3    H227788   5.322   1.922   0.762  0.5810 -0.3523  0.1208
 2125TIP3   OH227789   5.682   5.663   1.287 -0.2681  0.3913  0.0857
 2125TIP3    H127790   5.686   5.570   1.310  0.6937  0.8712  2.0022
 2125TIP3    H227791   5.608   5.697   1.339  1.3188  1.2986  1.8129
 2126TIP3   OH227792   6.463   6.499  14.528  0.5278  0.2532 -0.2454
 2126TIP3    H127793   6.538   6.507  14.469  1.2683 -2.4311  0.2332
 2126TIP3    H227794   6.391   6.471  14.471 -0.0018  2.3147 -0.6177
 2127TIP3   OH227795   3.386   2.552  12.862 -0.3760 -0.7605 -0.2498
 2127TIP3    H127796   3.459   2.499  12.832  1.1965  0.9959  0.3607
 2127TIP3    H227797   3.413   2.642  12.845 -2.4975 -0.0805 -0.2150
 2128TIP3   OH227798   5.798   6.433   5.152  0.2347  0.4485  0.1462
 2128TIP3    H127799   5.846   6.515   5.144 -1.2785  1.5548  1.9285
 2128TIP3    H227800   5.834   6.392   5.231 -0.6626  0.5808  0.6375
 2129TIP3   OH227801   2.917   4.564  16.636 -0.4294  0.0227  0.1009
 2129TIP3    H127802   2.837   4.525  16.600 -0.1389 -1.2198  0.7453
 2129TIP3    H227803   2.964   4.597  16.560 -1.3053  0.2580 -0.3396
 2130TIP3   OH227804   0.651   1.344  11.995 -0.0644 -0.6977  0.5157
 2130TIP3    H127805   0.692   1.394  11.924 -1.5856 -2.0552 -1.3905
 2130TIP3    H227806   0.724   1.300  12.038  0.7232 -1.4123 -1.4627
 2131TIP3   OH227807   1.250   1.481  10.318  0.1256 -0.0497  0.2658
 2131TIP3    H127808   1.323   1.497  10.377 -0.4055  0.1776  0.8682
 2131TIP3    H227809   1.287   1.430  10.246  1.1151  0.9901  0.0203
 2132TIP3   OH227810   4.897   5.464   6.394 -0.1010  0.4715 -0.0579
 2132TIP3    H127811   4.941   5.549   6.397 -2.1270  1.5745 -0.2710
 2132TIP3    H227812   4.835   5.467   6.467 -0.7311 -0.4941 -0.5426
 2133TIP3   OH227813   5.301   1.320   0.757  0.7827  0.2984  0.1851
 2133TIP3    H127814   5.382   1.272   0.773 -0.5110 -2.0528  0.0362
 2133TIP3    H227815   5.299   1.388   0.824  3.7631  1.6165 -0.9902
 2134TIP3   OH227816   2.276   2.407   4.372 -0.4608  1.1424  0.0891
 2134TIP3    H127817   2.290   2.381   4.463 -2.5589  0.1678  0.1787
 2134TIP3    H227818   2.181   2.408   4.362 -0.2661  0.7224 -2.2303
 2135TIP3   OH227819   5.562   2.866  14.443 -0.3246 -0.1591 -0.3185
 2135TIP3    H127820   5.590   2.791  14.496 -1.7851 -0.9785 -0.6785
 2135TIP3    H227821   5.544   2.935  14.506  1.1806 -0.0479  0.0100
 2136TIP3   OH227822   5.347   1.401   1.955 -0.5709 -0.2265  0.0785
 2136TIP3    H127823   5.259   1.437   1.967 -0.9664 -1.3178  0.5078
 2136TIP3    H227824   5.346   1.366   1.866 -0.9258 -1.2084  0.4650
 2137TIP3   OH227825   0.805   4.170   6.330  0.2506 -0.7059  0.1821
 2137TIP3    H127826   0.712   4.149   6.341 -0.1093  0.4029 -0.7137
 2137TIP3    H227827   0.808   4.232   6.257  1.7577 -1.1888 -0.1844
 2138TIP3   OH227828   2.376   3.983   0.355  0.1159 -0.3400 -0.2213
 2138TIP3    H127829   2.363   4.030   0.273  0.5018 -1.0380 -0.6874
 2138TIP3    H227830   2.469   3.996   0.375  0.0736 -0.3552 -0.0156
 2139TIP3   OH227831   3.541   2.086  16.948  0.0632 -0.5262  0.2764
 2139TIP3    H127832   3.535   2.133  17.031  0.7910 -2.9787  1.7802
 2139TIP3    H227833   3.475   2.127  16.892  0.2958  1.8634  1.6970
 2140TIP3   OH227834   6.024   0.138   4.522 -0.9022 -0.2336 -0.4684
 2140TIP3    H127835   6.096   0.186   4.482 -0.0305  0.1087  1.4623
 2140TIP3    H227836   5.957   0.134   4.454  1.4376 -1.7147 -2.7731
 2141TIP3   OH227837   1.150   4.585   2.351 -0.5301 -0.1694 -0.0652
 2141TIP3    H127838   1.185   4.646   2.286  0.7811  0.0344  0.8074
 2141TIP3    H227839   1.067   4.555   2.314 -0.6367  1.2668 -1.0281
 2142TIP3   OH227840   4.340   6.319   1.166  0.2449 -0.0498  0.2467
 2142TIP3    H127841   4.386   6.391   1.124  0.7049  0.4520  1.5870
 2142TIP3    H227842   4.255   6.316   1.122  0.4298  0.9608 -0.1787
 2143TIP3   OH227843   2.462   1.829   5.487 -0.0578 -0.2220 -0.1260
 2143TIP3    H127844   2.455   1.812   5.581 -0.4712  1.2002  0.1156
 2143TIP3    H227845   2.499   1.749   5.451  1.8854 -0.1109  1.5060
 2144TIP3   OH227846   2.792   3.804   0.203  0.0221  0.7572 -0.7262
 2144TIP3    H127847   2.883   3.780   0.185 -0.2662 -0.6407 -0.4491
 2144TIP3    H227848   2.773   3.761   0.287 -0.1355  3.1215  0.4695
 2145TIP3   OH227849   6.104   3.057   2.524 -0.0761 -0.2029 -0.8281
 2145TIP3    H127850   6.043   3.022   2.589 -0.7308 -0.2093 -1.4340
 2145TIP3    H227851   6.077   3.148   2.511  0.4030 -0.0367 -0.6840
 2146TIP3   OH227852   1.170   1.034  16.493  0.0458 -0.1218  0.9293
 2146TIP3    H127853   1.225   0.959  16.472  2.1754  1.3886  0.9922
 2146TIP3    H227854   1.092   1.023  16.438  1.9758 -0.4195 -1.8306
 2147TIP3   OH227855   2.094   2.189   1.105 -0.4302  0.3478 -0.4708
 2147TIP3    H127856   2.098   2.094   1.102  2.9410  0.4339 -0.5736
 2147TIP3    H227857   2.105   2.217   1.015  2.0331  0.8832 -0.0231
 2148TIP3   OH227858   4.521   6.365   0.369  0.5424 -0.9109 -0.2685
 2148TIP3    H127859   4.541   6.381   0.462 -0.4298  1.3414 -0.4268
 2148TIP3    H227860   4.597   6.399   0.322  0.0168  0.0854 -0.4118
 2149TIP3   OH227861   0.128   2.434   6.176  0.4857 -0.6446  0.4689
 2149TIP3    H127862   0.133   2.344   6.146  0.7027 -0.0142 -1.4735
 2149TIP3    H227863   0.213   2.472   6.155  0.1102  0.2395  0.4774
 2150TIP3   OH227864   6.508   4.690   2.309  0.5493 -0.3223  0.3459
 2150TIP3    H127865   6.480   4.604   2.340 -0.5414 -0.1623 -0.1698
 2150TIP3    H227866   6.464   4.752   2.366  0.0580 -0.0731 -0.3016
 2151TIP3   OH227867   2.878   6.705   4.534 -0.2456  0.2824  0.5190
 2151TIP3    H127868   2.799   6.733   4.580 -0.3414  1.8816 -0.5724
 2151TIP3    H227869   2.933   6.783   4.531  0.4230 -0.2177 -0.6821
 2152TIP3   OH227870   5.618   3.459   3.055 -0.5916 -0.1924  0.7997
 2152TIP3    H127871   5.654   3.520   3.120 -0.7157  3.1489 -2.0914
 2152TIP3    H227872   5.530   3.492   3.039 -0.7140 -1.2282 -0.7247
 2153TIP3   OH227873   1.778   0.330   4.163 -0.0867 -0.5025  0.1272
 2153TIP3    H127874   1.799   0.284   4.245 -0.7476  0.9789  1.1589
 2153TIP3    H227875   1.689   0.303   4.142  0.0325 -0.7750 -0.0311
 2154TIP3   OH227876   6.513   5.213  12.841  0.3847  0.1602 -0.0616
 2154TIP3    H127877   6.517   5.118  12.831 -0.5977  0.1768 -0.6800
 2154TIP3    H227878   6.604   5.242  12.839  0.8047 -0.9604  2.0594
 2155TIP3   OH227879   4.084   2.362  14.788  0.2792  0.0294 -0.7382
 2155TIP3    H127880   4.133   2.440  14.815 -0.4123  0.2769 -0.2091
 2155TIP3    H227881   3.993   2.381  14.811 -0.1184 -0.3100 -1.9871
 2156TIP3   OH227882   6.687   2.790   0.935  0.0189  0.2850 -0.0436
 2156TIP3    H127883   6.613   2.826   0.984 -0.5410 -1.3541  0.3495
 2156TIP3    H227884   6.699   2.702   0.972  1.5242  0.1684 -0.7920
 2157TIP3   OH227885   3.816   4.950  13.368 -0.3758  0.4023 -0.2004
 2157TIP3    H127886   3.722   4.932  13.365  0.0807 -2.1864 -0.3387
 2157TIP3    H227887   3.846   4.911  13.450  0.5883  1.2388 -0.1402
 2158TIP3   OH227888   0.479   3.674  11.774  0.8453 -0.1288 -0.0679
 2158TIP3    H127889   0.402   3.618  11.784  1.1311 -0.4385  0.4142
 2158TIP3    H227890   0.443   3.762  11.757  0.4097 -0.8102 -2.8105
 2159TIP3   OH227891   1.005   5.355  16.598 -0.2034 -0.2289 -0.2862
 2159TIP3    H127892   1.013   5.311  16.682 -1.2796  0.1760  0.0377
 2159TIP3    H227893   1.024   5.447  16.617 -0.0183 -0.2079 -0.5621
 2160TIP3   OH227894   3.371   0.640   0.860  0.5781  0.7466 -0.5174
 2160TIP3    H127895   3.439   0.682   0.807  0.6915 -0.2871 -1.1931
 2160TIP3    H227896   3.348   0.561   0.812 -1.0792  1.0591 -0.2702
 2161TIP3   OH227897   2.297   5.033   2.938  0.4899  0.6674 -0.2506
 2161TIP3    H127898   2.269   4.946   2.967  0.5616  0.7614  0.1028
 2161TIP3    H227899   2.279   5.090   3.013 -0.7466  1.1881 -0.9346
 2162TIP3   OH227900   5.484   3.552  10.382 -0.0168  0.4582  0.1292
 2162TIP3    H127901   5.538   3.510  10.449 -0.9198 -0.7676  0.0939
 2162TIP3    H227902   5.547   3.579  10.315  0.3750 -2.7914 -0.8878
 2163TIP3   OH227903   4.666   5.343  15.172 -0.2987 -0.0460 -0.3263
 2163TIP3    H127904   4.761   5.350  15.175 -0.1735 -1.0431 -1.5565
 2163TIP3    H227905   4.649   5.249  15.186 -0.9793 -0.2317 -2.2755
 2164TIP3   OH227906   5.021   3.365  13.293 -0.7575 -0.1271  0.1708
 2164TIP3    H127907   5.088   3.338  13.355 -1.2474 -0.4774  0.5522
 2164TIP3    H227908   5.046   3.454  13.267  0.1113 -0.4428 -0.0531
 2165TIP3   OH227909   5.256   1.467   4.435  0.6499  0.2336  0.3125
 2165TIP3    H127910   5.268   1.562   4.430 -1.6780  0.5074 -1.1388
 2165TIP3    H227911   5.331   1.431   4.387  0.7181  1.4059 -0.4877
 2166TIP3   OH227912   6.395   0.232  16.015 -0.2244 -0.3267 -0.2695
 2166TIP3    H127913   6.433   0.168  15.956 -1.6596 -1.0053 -0.4606
 2166TIP3    H227914   6.340   0.287  15.959  0.4072  0.6141  0.0147
 2167TIP3   OH227915   1.103   5.144  16.798  0.4525 -0.9944  0.8022
 2167TIP3    H127916   1.042   5.117  16.729 -0.2725  1.3865  0.4519
 2167TIP3    H227917   1.158   5.067  16.814 -1.4276 -2.5769 -0.2025
 2168TIP3   OH227918   2.438   3.964  16.647 -0.0728 -0.6860  0.1190
 2168TIP3    H127919   2.476   3.919  16.571  1.4165 -0.7190  0.8626
 2168TIP3    H227920   2.347   3.936  16.648 -0.8023  1.2909 -3.1575
 2169TIP3   OH227921   3.168   4.167  10.596 -0.3859  0.3635  0.1103
 2169TIP3    H127922   3.119   4.111  10.656 -0.5730  0.9883  0.5466
 2169TIP3    H227923   3.112   4.174  10.518 -0.0527 -0.6068 -0.2174
 2170TIP3   OH227924   3.764   4.802  12.675  0.3956 -0.1418  0.2457
 2170TIP3    H127925   3.757   4.867  12.605 -0.2312 -0.0250  0.4113
 2170TIP3    H227926   3.820   4.843  12.740 -0.1878  0.3237  0.4527
 2171TIP3   OH227927   6.671   5.264   1.381  0.1713 -0.0669 -0.1716
 2171TIP3    H127928   6.626   5.326   1.438  0.0953  0.3857 -0.7127
 2171TIP3    H227929   6.601   5.227   1.326  0.4629  0.6395 -1.0163
 2172TIP3   OH227930   1.331   0.028  11.889  0.4494 -0.4853 -0.4189
 2172TIP3    H127931   1.291   0.113  11.906 -0.0130 -0.6306 -0.7524
 2172TIP3    H227932   1.300   0.005  11.801  1.7039 -0.3511 -0.9055
 2173TIP3   OH227933   3.388   2.605   3.137  0.2759 -0.1976 -0.4108
 2173TIP3    H127934   3.432   2.547   3.199  0.4108  0.0437 -0.2789
 2173TIP3    H227935   3.363   2.549   3.064  2.5600  0.0281 -1.4027
 2174TIP3   OH227936   4.062   0.237  15.436  0.1602 -0.4962  0.1747
 2174TIP3    H127937   4.133   0.199  15.385  1.1769  0.4916  0.8331
 2174TIP3    H227938   3.986   0.181  15.418  0.6713 -0.5435 -1.8884
 2175TIP3   OH227939   4.856   1.212   1.145  0.3735 -0.0394 -0.4656
 2175TIP3    H127940   4.882   1.227   1.236  1.1091 -0.0646 -0.6669
 2175TIP3    H227941   4.935   1.175   1.104  0.3015  0.7494 -1.3094
 2176TIP3   OH227942   0.022   0.838  12.318  0.5601  0.2823 -0.4068
 2176TIP3    H127943   0.088   0.819  12.384  0.5530  0.5807 -0.3105
 2176TIP3    H227944  -0.061   0.820  12.361  0.5342  0.9063 -0.1801
 2177TIP3   OH227945   6.414   4.999  11.435  0.0437  0.2243  0.3656
 2177TIP3    H127946   6.369   4.997  11.351  0.3701  1.0151  0.1621
 2177TIP3    H227947   6.460   4.916  11.441  0.9570  0.6327 -0.7658
 2178TIP3   OH227948   1.059   5.287  10.801  0.3918  0.5189  0.5499
 2178TIP3    H127949   0.964   5.294  10.810  0.3719  0.6069  0.2766
 2178TIP3    H227950   1.080   5.342  10.725  0.4598 -0.8553 -0.4544
 2179TIP3   OH227951   4.652   3.064  17.079 -0.0511 -0.3770 -0.1119
 2179TIP3    H127952   4.574   3.108  17.115  0.6808  1.1150 -0.2830
 2179TIP3    H227953   4.650   2.977  17.117 -0.8914  0.2086  1.2399
 2180TIP3   OH227954   0.308   3.361   0.787 -0.1584  0.1808 -0.5333
 2180TIP3    H127955   0.371   3.379   0.717 -0.8969  0.0946 -1.2238
 2180TIP3    H227956   0.246   3.434   0.784  0.4583  0.7803  0.7934
 2181TIP3   OH227957   5.342   5.692   4.167  0.3400 -0.2440  0.2278
 2181TIP3    H127958   5.353   5.680   4.073 -0.6307 -1.0012  0.2109
 2181TIP3    H227959   5.431   5.680   4.202  0.9087  1.1424 -0.6884
 2182TIP3   OH227960   5.364   4.818  11.463  0.2237  0.6054  0.3382
 2182TIP3    H127961   5.441   4.875  11.451 -0.8420  1.6027 -2.0638
 2182TIP3    H227962   5.345   4.823  11.557  2.3180  1.3478  0.7535
 2183TIP3   OH227963   2.246   3.494   6.190  0.0875  0.3604 -0.1876
 2183TIP3    H127964   2.296   3.413   6.189  0.3063  0.4914  0.6234
 2183TIP3    H227965   2.175   3.478   6.127 -1.1796 -1.2848  1.5760
 2184TIP3   OH227966   2.790   2.708   2.847 -0.2348 -0.0019 -0.1747
 2184TIP3    H127967   2.747   2.662   2.919 -1.0850  0.4562 -0.3796
 2184TIP3    H227968   2.769   2.801   2.861 -0.0732  0.1331 -0.7808
 2185TIP3   OH227969   4.251   2.819   4.781 -0.3175  0.1307 -0.3914
 2185TIP3    H127970   4.266   2.889   4.845 -0.2705 -0.2767  0.0495
 2185TIP3    H227971   4.266   2.738   4.831 -1.3845 -0.2151 -0.6324
 2186TIP3   OH227972   5.853   5.124  15.482  0.2022  0.2523  0.0031
 2186TIP3    H127973   5.814   5.063  15.544  0.2252 -0.0441 -0.2702
 2186TIP3    H227974   5.940   5.143  15.517  0.1447  0.2331  0.1554
 2187TIP3   OH227975   6.045   2.603   4.040  0.2996  0.3554 -1.0369
 2187TIP3    H127976   6.138   2.609   4.022  0.4064 -1.7515 -1.3080
 2187TIP3    H227977   6.036   2.527   4.097 -1.1162  1.2950  0.0508
 2188TIP3   OH227978   1.031   2.173   2.910  0.0810 -0.0970  0.2640
 2188TIP3    H127979   1.090   2.129   2.849  0.1015  2.3700 -1.5721
 2188TIP3    H227980   0.944   2.143   2.885  0.0103  1.5301 -1.6058
 2189TIP3   OH227981   6.349   0.476  11.325  0.1096 -0.2512 -0.2808
 2189TIP3    H127982   6.325   0.384  11.321 -1.2860  0.0384  0.9172
 2189TIP3    H227983   6.410   0.489  11.252 -0.7111 -1.8056 -1.2603
 2190TIP3   OH227984   1.947   0.879   5.338 -0.4327  0.0176 -0.3925
 2190TIP3    H127985   1.963   0.877   5.244  0.3765 -0.3031 -0.2485
 2190TIP3    H227986   1.887   0.805   5.354 -0.3546 -0.0943 -0.6153
 2191TIP3   OH227987   2.205   6.280   1.486 -0.1782 -0.1749  0.4397
 2191TIP3    H127988   2.147   6.208   1.462  1.6610 -1.9989  1.2497
 2191TIP3    H227989   2.289   6.238   1.504  1.0777  2.2456  0.4742
 2192TIP3   OH227990   3.236   0.414   1.656  0.4339 -0.1869  0.1500
 2192TIP3    H127991   3.300   0.345   1.674  0.9396  0.7165  1.9492
 2192TIP3    H227992   3.288   0.489   1.629  0.0780  0.2805  0.7543
 2193TIP3   OH227993   1.599   0.427   5.335  0.6913  0.2533  0.0499
 2193TIP3    H127994   1.510   0.398   5.356  0.8221 -0.8320 -0.8425
 2193TIP3    H227995   1.598   0.440   5.240  1.5443  0.0078  0.0012
 2194TIP3   OH227996   6.435   6.679  11.414 -0.3272 -0.2056  0.3492
 2194TIP3    H127997   6.363   6.681  11.351 -0.1466  1.1553  0.1729
 2194TIP3    H227998   6.417   6.603  11.469 -0.3376 -1.5859 -1.5112
 2195TIP3   OH227999   0.791   1.127  15.217 -0.6504 -0.2569  0.1044
 2195TIP3    H128000   0.870   1.180  15.210  0.3572 -1.5669  1.2099
 2195TIP3    H228001   0.781   1.088  15.130  1.7979 -2.6326  0.8239
 2196TIP3   OH228002   0.071   5.892  11.964 -0.0618  0.2845  0.3202
 2196TIP3    H128003   0.160   5.926  11.962  0.2951 -0.6409  0.6006
 2196TIP3    H228004   0.074   5.811  11.914 -0.4255 -0.4785  1.5021
 2197TIP3   OH228005   6.277   3.144   2.153 -0.4294  0.0856 -0.4049
 2197TIP3    H128006   6.287   3.188   2.238  0.6213  2.2672 -1.5924
 2197TIP3    H228007   6.326   3.062   2.162 -0.7094  0.0932  1.2389
 2198TIP3   OH228008   6.247   0.438   5.706 -0.4120 -0.2875 -0.1200
 2198TIP3    H128009   6.270   0.504   5.772 -1.4333  0.5998 -0.6314
 2198TIP3    H228010   6.323   0.436   5.647 -0.7148  1.0386 -0.5724
 2199TIP3   OH228011   3.970   6.008  11.265 -0.1852 -0.1291 -0.1039
 2199TIP3    H128012   4.057   5.990  11.303 -0.0453  2.5365  0.9941
 2199TIP3    H228013   3.914   5.939  11.300  0.8610 -0.1169  1.6653
 2200TIP3   OH228014   5.001   1.368   4.515 -0.4829  0.1994  0.6478
 2200TIP3    H128015   5.081   1.414   4.489 -0.6608  0.2980  0.2655
 2200TIP3    H228016   5.031   1.301   4.576 -0.1703  0.5576  0.8971
 2201TIP3   OH228017   5.397   5.921  14.559 -0.2160 -0.5375  0.1495
 2201TIP3    H128018   5.344   5.949  14.484  1.0310  0.4440 -0.4022
 2201TIP3    H228019   5.370   5.831  14.576 -2.2363  0.0299  0.0611
 2202TIP3   OH228020   2.304   5.064   1.596 -0.5513  0.0130 -0.3413
 2202TIP3    H128021   2.292   5.024   1.510  0.3095  0.4914 -0.6849
 2202TIP3    H228022   2.384   5.023   1.630 -0.9398 -0.2449  0.2723
 2203TIP3   OH228023   0.291   5.548  14.365 -0.1121 -0.0344 -0.1027
 2203TIP3    H128024   0.320   5.498  14.441  0.8165 -1.3137 -1.2754
 2203TIP3    H228025   0.282   5.484  14.295  1.5095  1.4571 -1.7561
 2204TIP3   OH228026   5.044   6.376   3.098  0.3757 -0.0206 -0.0586
 2204TIP3    H128027   5.007   6.454   3.139  1.1360 -0.1900  0.9688
 2204TIP3    H228028   5.094   6.410   3.023  0.2553  0.4373  0.0649
 2205TIP3   OH228029   2.209   0.852  14.648  0.2416  0.0377 -0.2062
 2205TIP3    H128030   2.217   0.758  14.661  2.1995  0.4254  1.7190
 2205TIP3    H228031   2.265   0.871  14.574  0.5661 -0.1967 -0.0230
 2206TIP3   OH228032   1.818   3.365  14.360  0.2623  0.1861 -0.7823
 2206TIP3    H128033   1.839   3.273  14.344 -1.1898 -0.2207 -0.4658
 2206TIP3    H228034   1.900   3.404  14.389  1.0714 -0.8289 -1.6944
 2207TIP3   OH228035   3.887   2.125  16.779  0.4441  0.0479 -0.7951
 2207TIP3    H128036   3.795   2.148  16.787  0.6345  0.7574 -0.6075
 2207TIP3    H228037   3.892   2.072  16.700 -0.4497 -1.6971  0.2830
 2208TIP3   OH228038   3.981   0.308   1.987 -0.2482  0.4679  0.2891
 2208TIP3    H128039   3.920   0.352   1.927  1.0161  1.1322 -0.5354
 2208TIP3    H228040   4.028   0.246   1.932 -0.0148  0.1272  0.8721
 2209TIP3   OH228041   0.938   3.845   5.749 -0.0871 -0.9697  0.1859
 2209TIP3    H128042   0.867   3.790   5.783  0.0626 -1.0077  0.4386
 2209TIP3    H228043   1.006   3.783   5.724 -0.8785 -1.0604 -1.8256
 2210TIP3   OH228044   2.136   2.285  11.373  0.3038  0.1526  0.0425
 2210TIP3    H128045   2.089   2.323  11.447  0.6664 -0.6118  0.6695
 2210TIP3    H228046   2.227   2.282  11.402  0.5797  0.6274 -0.7573
 2211TIP3   OH228047   2.096   0.997   1.432  0.6870 -0.2400  0.1251
 2211TIP3    H128048   2.034   0.935   1.472 -0.7004  1.4712  0.6696
 2211TIP3    H228049   2.083   0.987   1.338  0.6914 -0.9884  0.2000
 2212TIP3   OH228050   6.009   0.129  10.574  0.6077 -0.3562  0.6631
 2212TIP3    H128051   5.993   0.036  10.556  0.0456 -0.2807  0.7405
 2212TIP3    H228052   6.037   0.165  10.490 -0.1340 -0.4008  0.3876
 2213TIP3   OH228053   0.749   2.650   3.733 -0.0372 -0.2165  0.6616
 2213TIP3    H128054   0.743   2.745   3.727  3.0918  0.0521  1.0242
 2213TIP3    H228055   0.707   2.618   3.653  1.3402  1.5945 -0.8264
 2214TIP3   OH228056   4.726   3.315  12.466 -0.3978 -0.1304 -0.9119
 2214TIP3    H128057   4.793   3.382  12.450 -0.1237  0.0023  0.6605
 2214TIP3    H228058   4.757   3.269  12.544 -1.1154 -1.4162 -1.3775
 2215TIP3   OH228059   1.670   0.750   0.683  0.1678  0.5023 -0.0147
 2215TIP3    H128060   1.650   0.802   0.760  1.4794  0.0962  0.6232
 2215TIP3    H228061   1.686   0.662   0.716  2.1227  0.6214 -0.5412
 2216TIP3   OH228062   0.084   3.978   4.580 -0.1834  0.6795 -0.6218
 2216TIP3    H128063   0.151   4.039   4.550 -1.9252  2.1632 -1.6547
 2216TIP3    H228064   0.073   3.916   4.509  1.1254 -0.4641  0.1600
 2217TIP3   OH228065   2.730   0.481   5.117  0.3116  0.0455 -0.0794
 2217TIP3    H128066   2.645   0.517   5.141  0.4436  0.6630 -0.5294
 2217TIP3    H228067   2.731   0.393   5.155 -1.6652 -1.0666 -2.4690
 2218TIP3   OH228068   1.956   4.301  14.572  0.4648 -0.3339  0.3084
 2218TIP3    H128069   2.005   4.228  14.609  3.0136  1.0565 -0.1822
 2218TIP3    H228070   1.953   4.366  14.642 -1.6261 -0.7902  0.6813
 2219TIP3   OH228071   4.081   6.019  14.982  0.3955 -0.6037 -0.0034
 2219TIP3    H128072   4.063   5.934  15.020  0.3050  0.0392  1.4217
 2219TIP3    H228073   4.146   6.059  15.040  1.4212 -0.2245 -1.3796
 2220TIP3   OH228074   3.152   1.215  11.789  0.1571 -0.3821 -0.0908
 2220TIP3    H128075   3.189   1.300  11.812 -0.2565 -0.4174  0.7297
 2220TIP3    H228076   3.073   1.237  11.739  0.6944 -0.2990 -0.9121
 2221TIP3   OH228077   4.346   4.367  14.912  0.1841  0.5598 -0.2437
 2221TIP3    H128078   4.435   4.332  14.916  0.9093  2.4093  0.4858
 2221TIP3    H228079   4.332   4.388  14.819  0.3378 -0.1232 -0.4232
 2222TIP3   OH228080   1.919   5.902   5.453  0.2259  0.0045 -0.1529
 2222TIP3    H128081   1.979   5.878   5.524 -0.3576 -0.6508  0.1217
 2222TIP3    H228082   1.899   5.819   5.409  2.0725  0.6266 -2.2867
 2223TIP3   OH228083   4.771   0.518   0.489 -0.1084  0.6327  0.3141
 2223TIP3    H128084   4.739   0.444   0.437 -0.0445  0.7335  0.1311
 2223TIP3    H228085   4.701   0.535   0.552 -0.0102  0.2415  0.5364
 2224TIP3   OH228086   0.506   2.072   1.870 -0.2353 -0.0311 -0.2345
 2224TIP3    H128087   0.463   2.119   1.942 -0.2008 -0.9175  0.3793
 2224TIP3    H228088   0.600   2.086   1.885 -0.1897 -0.9869  0.4467
 2225TIP3   OH228089   6.232   1.579   5.772  0.1799 -0.1143  0.1983
 2225TIP3    H128090   6.184   1.540   5.699  1.1903 -1.5872  0.2781
 2225TIP3    H228091   6.229   1.512   5.841  0.0221  0.8827  1.1790
 2226TIP3   OH228092   0.188   3.151  14.897 -0.6684  1.0637  0.6275
 2226TIP3    H128093   0.282   3.153  14.916 -0.7562 -0.8478  1.3996
 2226TIP3    H228094   0.150   3.100  14.969 -2.0901  0.4539 -0.5335
 2227TIP3   OH228095   3.114   1.672  10.440 -0.0785 -0.1081  0.2660
 2227TIP3    H128096   3.042   1.640  10.494  0.1170 -1.1698 -0.0953
 2227TIP3    H228097   3.160   1.593  10.412  0.7853  0.5245 -0.1187
 2228TIP3   OH228098   6.417   2.754   3.766 -0.2956  0.1639 -0.2881
 2228TIP3    H128099   6.385   2.759   3.676 -1.1257 -1.5533 -0.1063
 2228TIP3    H228100   6.498   2.704   3.760 -1.4643 -1.8677  0.1482
 2229TIP3   OH228101   6.631   2.162   1.866 -0.4098  0.1739  0.7140
 2229TIP3    H128102   6.640   2.248   1.825  0.0512 -0.6327 -0.8969
 2229TIP3    H228103   6.717   2.122   1.858 -0.5119 -0.2960  1.8203
 2230TIP3   OH228104   4.438   4.823  14.577 -0.3065 -0.5653 -0.2049
 2230TIP3    H128105   4.454   4.901  14.525  1.6591 -1.5764 -1.1800
 2230TIP3    H228106   4.359   4.784  14.539 -1.5263  1.1433  0.5567
 2231TIP3   OH228107   6.649   2.088   1.573 -0.2207  0.2929  0.3886
 2231TIP3    H128108   6.562   2.123   1.558 -1.0613 -0.6973  2.6523
 2231TIP3    H228109   6.697   2.160   1.615  0.1357  0.9227 -1.0922
 2232TIP3   OH228110   0.596   5.301  15.202  0.4014 -0.3429  0.4353
 2232TIP3    H128111   0.606   5.339  15.289 -2.5404  0.5484  0.4169
 2232TIP3    H228112   0.509   5.261  15.202 -0.2143  0.8108 -2.4939
 2233TIP3   OH228113   5.737   2.964  11.232 -0.4957 -0.5221  0.4874
 2233TIP3    H128114   5.741   2.921  11.318 -0.4859  1.3927  1.4676
 2233TIP3    H228115   5.760   3.055  11.250 -0.9516 -0.0020 -1.4918
 2234TIP3   OH228116   2.000   2.482  17.015 -0.2197  0.0768 -0.3976
 2234TIP3    H128117   1.929   2.488  16.951 -0.8880 -0.4416  0.2724
 2234TIP3    H228118   2.079   2.503  16.966 -1.0129  2.3299 -0.8088
 2235TIP3   OH228119   5.528   0.872   2.785 -0.2567 -0.4668  0.1000
 2235TIP3    H128120   5.470   0.829   2.723  0.9325  0.1132 -1.4516
 2235TIP3    H228121   5.489   0.959   2.797 -1.7095 -1.3177  1.9220
 2236TIP3   OH228122   6.295   4.622   4.416 -0.0987  0.9826 -0.2895
 2236TIP3    H128123   6.265   4.605   4.505 -2.7533 -1.0175 -1.4967
 2236TIP3    H228124   6.389   4.605   4.418 -0.6906 -2.5222  1.3487
 2237TIP3   OH228125   2.442   5.540  15.958 -0.0285  0.0171 -0.0695
 2237TIP3    H128126   2.497   5.618  15.962 -0.8121  0.5104  1.5276
 2237TIP3    H228127   2.504   5.467  15.955  0.7139  0.6050  0.7738
 2238TIP3   OH228128   4.140   1.860  16.191  0.4336 -0.1493 -0.0599
 2238TIP3    H128129   4.147   1.919  16.266  0.0336 -0.3545  0.1422
 2238TIP3    H228130   4.229   1.827  16.178  0.5179 -0.0625  0.2842
 2239TIP3   OH228131   5.979   5.363   6.249 -0.4244 -0.2682  0.1225
 2239TIP3    H128132   5.907   5.423   6.270 -1.5331 -1.4853 -0.1368
 2239TIP3    H228133   5.939   5.276   6.252  0.8352 -0.8925 -0.9343
 2240TIP3   OH228134   1.916   4.324   1.892  0.7547  0.6715  0.2467
 2240TIP3    H128135   1.924   4.255   1.826 -1.6192 -1.0113  1.6458
 2240TIP3    H228136   1.854   4.387   1.853  1.5015  1.0993 -0.2643
 2241TIP3   OH228137   3.432   1.282   0.809 -0.1680  0.7542 -0.0407
 2241TIP3    H128138   3.415   1.188   0.804  1.8781  0.1059  3.1549
 2241TIP3    H228139   3.528   1.289   0.806 -0.3293  2.8504 -1.4482
 2242TIP3   OH228140   0.932   4.151  12.551 -0.8311  0.6029 -0.8453
 2242TIP3    H128141   0.848   4.163  12.594 -0.1882  0.0929  0.5604
 2242TIP3    H228142   0.969   4.239  12.543 -2.0403  0.9808 -2.6249
 2243TIP3   OH228143   4.059   1.427   5.626 -0.2857  0.8131 -0.3960
 2243TIP3    H128144   4.016   1.347   5.594  0.8170  0.1581 -0.2636
 2243TIP3    H228145   4.004   1.457   5.698 -0.8471  0.3168 -0.6137
 2244TIP3   OH228146   4.011   1.297   3.265  0.1010 -0.6036 -0.2930
 2244TIP3    H128147   3.967   1.235   3.206 -1.7386 -0.1976  0.6141
 2244TIP3    H228148   3.984   1.383   3.233  0.6291 -0.3381 -0.0251
 2245TIP3   OH228149   3.240   1.931   2.890  0.3532 -0.1896  0.0379
 2245TIP3    H128150   3.197   2.011   2.859 -1.7925 -1.8500 -1.5138
 2245TIP3    H228151   3.320   1.925   2.838  0.9795  1.4041  0.8062
 2246TIP3   OH228152   5.484   0.068  17.091 -0.1997 -0.1677 -0.3129
 2246TIP3    H128153   5.474  -0.024  17.065 -0.0722 -0.4855  0.7177
 2246TIP3    H228154   5.574   0.075  17.123 -0.2414  0.2927 -0.2926
 2247TIP3   OH228155   6.517   1.472   5.819 -0.2863  0.0247 -0.2858
 2247TIP3    H128156   6.556   1.556   5.846  0.2932 -0.1877 -0.4839
 2247TIP3    H228157   6.450   1.497   5.755 -0.0162  0.3263 -0.4546
 2248TIP3   OH228158   3.707   0.776   3.112 -0.2216  0.1917 -0.2903
 2248TIP3    H128159   3.760   0.703   3.144  0.6322  1.4425  1.2082
 2248TIP3    H228160   3.624   0.736   3.085  1.2212 -1.6904 -2.0281
 2249TIP3   OH228161   0.164   1.827  16.727 -0.3590  0.0427  0.2384
 2249TIP3    H128162   0.185   1.920  16.715 -0.1724 -0.1695 -1.1615
 2249TIP3    H228163   0.069   1.825  16.741 -0.4870  0.3616 -0.5978
 2250TIP3   OH228164   3.196   6.780   4.674 -0.3166  0.5004 -0.3868
 2250TIP3    H128165   3.237   6.708   4.722  1.1151  1.7942  0.3561
 2250TIP3    H228166   3.177   6.743   4.588  2.3366 -0.1791 -0.7333
 2251TIP3   OH228167   1.725   3.436   5.052 -0.3155  1.0513 -0.5888
 2251TIP3    H128168   1.789   3.379   5.009  2.0600  2.9575  0.2820
 2251TIP3    H228169   1.749   3.524   5.022 -1.1528  2.0002  1.4740
 2252TIP3   OH228170   0.906   3.991  13.940 -0.4018  0.1356  0.1939
 2252TIP3    H128171   0.830   4.002  13.883 -1.4805 -1.8115  1.1946
 2252TIP3    H228172   0.970   3.944  13.886 -1.3116 -1.4387  0.4359
 2253TIP3   OH228173   0.156   5.993   4.416  0.4983 -0.5226  0.0273
 2253TIP3    H128174   0.207   6.068   4.386 -0.5121  0.1224 -0.0911
 2253TIP3    H228175   0.130   5.948   4.336  1.0761 -0.9982  0.0967
 2254TIP3   OH228176   2.963   5.768  13.648 -0.1622  0.0304  0.3499
 2254TIP3    H128177   2.906   5.703  13.606  0.5147 -0.1289 -0.3232
 2254TIP3    H228178   2.907   5.808  13.715 -0.4426 -1.5612  1.1004
 2255TIP3   OH228179   0.386   6.403   4.327  0.1580 -0.1754 -0.1424
 2255TIP3    H128180   0.365   6.478   4.272  2.3057  1.6971  1.5115
 2255TIP3    H228181   0.468   6.426   4.370 -0.6644 -2.2069  2.6862
 2256TIP3   OH228182   3.966   0.651   4.523  0.1598  0.1232  0.4212
 2256TIP3    H128183   3.967   0.556   4.509 -0.4634 -0.1231  1.9370
 2256TIP3    H228184   3.920   0.663   4.606 -0.2263  1.8004 -0.0106
 2257TIP3   OH228185   2.016   0.399   1.524  0.1783 -0.4113 -0.9384
 2257TIP3    H128186   1.949   0.456   1.563  0.4802 -0.1346 -0.8245
 2257TIP3    H228187   1.994   0.397   1.431  0.1767 -0.0938 -0.9449
 2258TIP3   OH228188   2.121   1.126  14.557 -0.2227  0.0997 -0.5256
 2258TIP3    H128189   2.196   1.183  14.572 -0.0760  0.3972 -2.2883
 2258TIP3    H228190   2.158   1.038  14.547 -0.0565  0.2988 -1.7509
 2259TIP3   OH228191   2.399   5.593  13.271  0.0999  0.7863 -0.0370
 2259TIP3    H128192   2.451   5.653  13.326  0.7316  0.6176 -0.4431
 2259TIP3    H228193   2.308   5.612  13.294  0.3391  1.1644  0.6059
 2260TIP3   OH228194   0.818   3.441  13.435 -0.8584 -0.8159 -0.4476
 2260TIP3    H128195   0.840   3.513  13.376  0.8536  0.7108  1.9311
 2260TIP3    H228196   0.728   3.417  13.411 -1.0541  1.3765 -2.0458
 2261TIP3   OH228197   0.760   3.505   1.608  0.4714 -0.1885  0.3897
 2261TIP3    H128198   0.741   3.540   1.695 -0.9035 -1.7716  0.7473
 2261TIP3    H228199   0.678   3.464   1.580  0.6088  1.1430 -2.0711
 2262TIP3   OH228200   2.823   6.606   1.192  0.4061  0.3950 -0.4430
 2262TIP3    H128201   2.803   6.524   1.237  2.0972  0.0907 -0.1813
 2262TIP3    H228202   2.753   6.618   1.129 -0.6273 -0.5052  0.5248
 2263TIP3   OH228203   4.449   2.266   2.296  0.4527  0.2079 -0.5095
 2263TIP3    H128204   4.498   2.242   2.375  1.7091 -1.3881 -1.7219
 2263TIP3    H228205   4.364   2.296   2.327  1.3404  0.6714  1.5051
 2264TIP3   OH228206   6.459   4.992  15.077 -0.2536 -0.0860 -0.5842
 2264TIP3    H128207   6.503   4.976  15.161  0.6027  0.9484 -0.8256
 2264TIP3    H228208   6.369   5.016  15.101  0.2423  1.1253  0.0924
 2265TIP3   OH228209   3.871   3.857   2.009 -0.4323  0.1327  0.0290
 2265TIP3    H128210   3.817   3.846   2.087 -1.3818  1.8417 -0.3590
 2265TIP3    H228211   3.832   3.931   1.963  2.8772  2.1607  0.2917
 2266TIP3   OH228212   1.402   0.939   6.058  0.6196  0.2301  0.0598
 2266TIP3    H128213   1.483   0.966   6.014  0.4716  1.5391  0.5813
 2266TIP3    H228214   1.414   0.965   6.149 -0.4614  0.5822  0.1084
 2267TIP3   OH228215   1.442   3.296   3.149  0.6920  0.3161 -0.1492
 2267TIP3    H128216   1.478   3.379   3.121  1.4753  1.2820  3.4152
 2267TIP3    H228217   1.517   3.247   3.184 -0.2491 -0.5684  0.6954
 2268TIP3   OH228218   5.712   3.748   0.845  0.4102  0.4484 -0.3713
 2268TIP3    H128219   5.769   3.702   0.783 -0.2759  1.4337 -1.7684
 2268TIP3    H228220   5.626   3.706   0.834  0.5244 -0.0624  0.6723
 2269TIP3   OH228221   2.113   0.236  16.788 -0.3256 -0.2710 -0.7019
 2269TIP3    H128222   2.126   0.156  16.839  1.8851  0.4950  0.0208
 2269TIP3    H228223   2.107   0.305  16.853  1.1369  0.5533 -1.4202
 2270TIP3   OH228224   0.328   2.285  16.554  0.2825 -0.0993  0.2649
 2270TIP3    H128225   0.247   2.244  16.521 -1.0446  1.2329  1.7726
 2270TIP3    H228226   0.349   2.352  16.488 -0.0694 -0.1709  0.0780
 2271TIP3   OH228227   3.397   3.780  14.913  0.2050  1.1418  0.0733
 2271TIP3    H128228   3.304   3.803  14.911 -0.7417 -2.2257  1.9918
 2271TIP3    H228229   3.422   3.772  14.821 -1.9627  0.0251 -0.4512
 2272TIP3   OH228230   3.800   0.943  11.572 -0.4701  0.1351  0.2568
 2272TIP3    H128231   3.734   0.984  11.516  0.1519  2.8131  1.4265
 2272TIP3    H228232   3.749   0.892  11.636 -1.2589 -0.7442 -1.0446
 2273TIP3   OH228233   5.247   1.622   4.775  0.0560  0.2970 -0.1585
 2273TIP3    H128234   5.297   1.627   4.855  1.2747  2.7264 -1.0128
 2273TIP3    H228235   5.306   1.582   4.711 -0.5603 -0.6984 -0.1197
 2274TIP3   OH228236   6.034   1.849  12.411  0.5862 -0.0459  0.0215
 2274TIP3    H128237   6.079   1.861  12.495  0.4769  0.6352 -0.0168
 2274TIP3    H228238   6.096   1.799  12.358  0.5547 -0.6957  0.5926
 2275TIP3   OH228239   3.065   4.112   4.275  0.2523  0.1970 -0.3913
 2275TIP3    H128240   3.141   4.105   4.217  0.7698  1.5528  0.0982
 2275TIP3    H228241   3.020   4.191   4.245  0.5712  0.9494  1.0973
 2276TIP3   OH228242   5.618   0.074   2.430 -0.2716 -0.0730 -0.7048
 2276TIP3    H128243   5.535   0.121   2.433  0.2392  0.8086 -0.0533
 2276TIP3    H228244   5.681   0.134   2.470  0.3070 -1.5062  0.5577
 2277TIP3   OH228245   4.527   1.929  12.184  0.3468 -0.4325 -0.2140
 2277TIP3    H128246   4.579   1.938  12.103  0.2071 -1.0477 -0.3767
 2277TIP3    H228247   4.481   1.846  12.173 -0.6850  0.1219 -0.0722
 2278TIP3   OH228248   0.587   5.720  14.504 -0.4616 -0.4626 -0.3214
 2278TIP3    H128249   0.593   5.759  14.591 -0.3219  0.4255 -0.7203
 2278TIP3    H228250   0.580   5.626  14.520  0.8010 -0.4118  0.6093
 2279TIP3   OH228251   3.542   5.328   0.599  0.0864  0.2635  0.1611
 2279TIP3    H128252   3.519   5.235   0.606  0.9700 -0.0175 -0.6178
 2279TIP3    H228253   3.512   5.366   0.682 -0.5652 -0.6542  0.3518
 2280TIP3   OH228254   4.968   5.787   6.132 -0.1711 -0.1967  0.4874
 2280TIP3    H128255   4.911   5.864   6.139  1.2305  0.8550  0.5976
 2280TIP3    H228256   5.013   5.784   6.216  1.0023 -0.1473 -0.1327
 2281TIP3   OH228257   6.051   5.316  16.982  0.6084 -1.2037 -0.1032
 2281TIP3    H128258   5.969   5.281  16.946 -0.7789  1.1117  0.6634
 2281TIP3    H228259   6.105   5.334  16.905  0.1616 -2.2158 -0.6573
 2282TIP3   OH228260   0.312   4.557  11.795 -0.5624  0.3696  0.4642
 2282TIP3    H128261   0.399   4.573  11.761 -0.6708 -1.1331 -0.5869
 2282TIP3    H228262   0.323   4.555  11.890  0.6601 -0.3808  0.3180
 2283TIP3   OH228263   6.451   1.193   4.512  0.0550  0.5388  0.8715
 2283TIP3    H128264   6.475   1.202   4.604 -1.9940  0.0750  1.4734
 2283TIP3    H228265   6.411   1.106   4.507 -1.1918  1.1701 -0.1506
 2284TIP3   OH228266   3.969   2.085   1.730  0.1488 -0.1164  0.0120
 2284TIP3    H128267   3.922   2.163   1.703 -1.3140 -0.9964 -0.0736
 2284TIP3    H228268   4.060   2.112   1.738 -0.2311  1.3922 -0.7551
 2285TIP3   OH228269   3.976   4.938  14.502  0.6372 -0.2244 -0.1348
 2285TIP3    H128270   4.032   4.904  14.432  1.1217  1.1592 -0.4282
 2285TIP3    H228271   3.905   4.982  14.456 -0.0113 -0.8559  0.2486
 2286TIP3   OH228272   3.601   3.189   0.436 -0.1013 -0.0576 -0.3723
 2286TIP3    H128273   3.663   3.259   0.459 -1.8371  1.1939  0.6288
 2286TIP3    H228274   3.657   3.112   0.422  1.6858  1.0153  0.5466
 2287TIP3   OH228275   3.479   3.858   3.312 -0.2644  0.2442  0.2234
 2287TIP3    H128276   3.502   3.829   3.224 -0.4424 -0.3502  0.3699
 2287TIP3    H228277   3.480   3.954   3.307  1.7668  0.2418  0.1069
 2288TIP3   OH228278   3.653   2.876   4.623 -0.4905 -0.3122  0.0730
 2288TIP3    H128279   3.565   2.912   4.607 -0.8299 -0.4508  1.5215
 2288TIP3    H228280   3.704   2.949   4.656  0.5876  0.3000 -2.8486
 2289TIP3   OH228281   4.077   0.150   3.601  0.0424 -0.1507 -0.6114
 2289TIP3    H128282   4.035   0.078   3.553 -0.6720  1.0371 -1.8385
 2289TIP3    H228283   4.056   0.134   3.693 -0.5008 -1.2541 -0.9244
 2290TIP3   OH228284   3.178   0.815  14.365  0.0015 -0.2972  0.0494
 2290TIP3    H128285   3.217   0.839  14.281 -1.0330  3.3031  0.5382
 2290TIP3    H228286   3.108   0.754  14.342 -0.7408  1.2071 -1.8080
 2291TIP3   OH228287   3.479   0.080  12.829  0.3073 -0.0847 -0.2724
 2291TIP3    H128288   3.523   0.034  12.900 -0.5188 -0.2648  0.1335
 2291TIP3    H228289   3.549   0.119  12.777  0.9616 -0.9094 -0.0058
 2292TIP3   OH228290   3.095   5.586   5.612  0.5393 -0.1461  0.4091
 2292TIP3    H128291   3.152   5.577   5.688  0.1519 -1.7582  0.5234
 2292TIP3    H228292   3.007   5.570   5.646 -0.0089  2.3327  0.2418
 2293TIP3   OH228293   5.692   3.862   4.551  0.4661  0.4798 -0.1582
 2293TIP3    H128294   5.777   3.858   4.507  0.7553  1.1242  0.3280
 2293TIP3    H228295   5.669   3.771   4.567  1.4602  0.3244  0.4505
 2294TIP3   OH228296   6.027   5.627   6.398  0.1833 -0.4695  0.2185
 2294TIP3    H128297   6.121   5.641   6.388 -0.0573  1.2959  0.3554
 2294TIP3    H228298   5.996   5.702   6.449 -1.2290 -1.2511  0.5434
 2295TIP3   OH228299   2.709   1.607   6.296  0.1597 -0.5743  0.2931
 2295TIP3    H128300   2.727   1.652   6.213  1.1337  2.0888  1.9143
 2295TIP3    H228301   2.619   1.632   6.318  0.4354 -0.0368  0.8102
 2296TIP3   OH228302   5.857   0.935   4.944  0.7927  0.3598  0.1350
 2296TIP3    H128303   5.815   0.849   4.945  0.4675  0.5194  0.1444
 2296TIP3    H228304   5.862   0.957   4.851 -1.0991  1.2976  0.2333
 2297TIP3   OH228305   3.734   5.059   1.958  0.7611  0.0478 -0.2929
 2297TIP3    H128306   3.823   5.093   1.958  1.1041 -0.8377 -1.0626
 2297TIP3    H228307   3.706   5.065   2.050  1.8839 -0.3666  0.0887
 2298TIP3   OH228308   5.827   5.580   5.702  0.3245 -0.1754 -0.0546
 2298TIP3    H128309   5.774   5.658   5.687 -0.3960 -0.5569  0.5221
 2298TIP3    H228310   5.897   5.610   5.760  0.0082  0.0296  0.2229
 2299TIP3   OH228311   5.185   3.673   1.184  0.7280 -0.4820 -0.2734
 2299TIP3    H128312   5.185   3.748   1.124  0.7086 -1.1660 -1.1353
 2299TIP3    H228313   5.118   3.695   1.248  1.0841  0.4794 -0.2152
 2300TIP3   OH228314   1.266   1.169  12.325  0.0083  0.0050  0.1036
 2300TIP3    H128315   1.226   1.082  12.319 -0.2751  0.0804  0.7973
 2300TIP3    H228316   1.204   1.228  12.283  0.9081 -0.3379 -1.7514
 2301TIP3   OH228317   4.725   5.852   3.811  0.3310  0.0206  0.3375
 2301TIP3    H128318   4.767   5.804   3.740 -1.9749 -0.0532 -1.0493
 2301TIP3    H228319   4.715   5.941   3.777 -2.9983 -0.5953 -0.4641
 2302TIP3   OH228320   3.258   1.399   3.960  0.1261 -0.0173  0.6455
 2302TIP3    H128321   3.207   1.418   4.039 -0.3601 -0.9083  0.5465
 2302TIP3    H228322   3.209   1.440   3.889  0.2251  0.2329  0.7216
 2303TIP3   OH228323   3.874   2.630   2.483 -0.0539  0.0433 -0.1424
 2303TIP3    H128324   3.921   2.710   2.463 -0.8262  0.5805  0.1626
 2303TIP3    H228325   3.808   2.656   2.548  1.0799 -1.2548  1.5822
 2304TIP3   OH228326   1.859   2.513   2.269 -0.1070 -0.1254 -0.3616
 2304TIP3    H128327   1.846   2.500   2.174  0.7365  0.0032 -0.4952
 2304TIP3    H228328   1.930   2.577   2.275 -0.4897  0.2286  0.3613
 2305TIP3   OH228329   5.081   4.493  13.427 -0.3005  0.3724  0.1233
 2305TIP3    H128330   5.044   4.581  13.417 -2.3794 -0.5332 -0.6356
 2305TIP3    H228331   5.022   4.449  13.489  0.4387 -0.6273  0.1317
 2306TIP3   OH228332   2.174   3.085  14.795  0.2015  0.6906  0.1654
 2306TIP3    H128333   2.110   3.095  14.725 -0.8534 -2.4476  0.6084
 2306TIP3    H228334   2.259   3.097  14.752 -0.5536  2.7804 -0.8240
 2307TIP3   OH228335   6.616   1.491  16.871  0.6847  0.8157  0.7627
 2307TIP3    H128336   6.523   1.483  16.890  0.3235  2.2359 -0.3422
 2307TIP3    H228337   6.623   1.572  16.820  2.3400 -0.0127 -0.3401
 2308TIP3   OH228338   3.813   6.129   5.596  0.2497 -0.2253  0.1796
 2308TIP3    H128339   3.762   6.056   5.562  2.1457 -1.3103 -0.3665
 2308TIP3    H228340   3.754   6.204   5.590 -1.9637 -1.8205  1.4093
 2309TIP3   OH228341   6.246   0.086   3.316  0.0322  0.7385 -0.0029
 2309TIP3    H128342   6.324   0.040   3.287 -0.5742 -0.9560  0.9802
 2309TIP3    H228343   6.260   0.102   3.409 -0.6616  0.7083  0.1100
 2310TIP3   OH228344   3.501   0.698   0.609  0.2274 -0.2029  0.3708
 2310TIP3    H128345   3.461   0.614   0.586  1.0817 -0.5224  0.0297
 2310TIP3    H228346   3.591   0.691   0.576  0.7984  0.2141  1.8210
 2311TIP3   OH228347   1.446   3.185  13.102 -0.2870  0.1397  0.0027
 2311TIP3    H128348   1.410   3.102  13.070 -3.6777  1.3008  0.6157
 2311TIP3    H228349   1.406   3.251  13.045 -2.3620  1.8063  3.2543
 2312TIP3   OH228350   4.504   1.654   3.354 -0.1576 -0.0473 -0.5111
 2312TIP3    H128351   4.477   1.743   3.378  0.2639  0.1869 -0.8795
 2312TIP3    H228352   4.537   1.663   3.265  1.2260 -0.3015 -0.0354
 2313TIP3   OH228353   3.582   3.443  15.172  0.5299  0.2207  0.0190
 2313TIP3    H128354   3.605   3.429  15.264 -2.3736 -1.4409  0.5556
 2313TIP3    H228355   3.544   3.531  15.170 -0.5236 -0.2002  0.6814
 2314TIP3   OH228356   0.173   2.399  12.990 -0.7921 -0.9251  0.3395
 2314TIP3    H128357   0.114   2.473  12.972 -0.5706 -0.1010  2.7105
 2314TIP3    H228358   0.136   2.326  12.941 -2.8686 -0.0122  0.4788
 2315TIP3   OH228359   3.801   2.974   2.726  0.3673  0.0641 -0.1463
 2315TIP3    H128360   3.851   2.920   2.664  0.7823  0.2407  0.0331
 2315TIP3    H228361   3.856   2.978   2.804  0.4787  0.9834 -0.2606
 2316TIP3   OH228362   0.194   5.150  11.462  0.4689 -0.2325  0.2470
 2316TIP3    H128363   0.199   5.177  11.370  1.9450 -0.2099  0.3169
 2316TIP3    H228364   0.118   5.197  11.497 -0.5345 -0.7901 -1.1358
 2317TIP3   OH228365   5.386   5.771  11.867 -0.5658  0.0573  0.4852
 2317TIP3    H128366   5.349   5.687  11.841  1.1164 -0.5655  0.0338
 2317TIP3    H228367   5.478   5.752  11.887 -0.6582  1.4017  2.3800
 2318TIP3   OH228368   0.485   1.387   3.040 -0.0146 -0.1479  0.0451
 2318TIP3    H128369   0.525   1.459   3.089 -0.2808  0.4858 -0.6664
 2318TIP3    H228370   0.559   1.331   3.015  0.1960 -0.0977  0.5441
 2319TIP3   OH228371   4.316   2.683   1.762 -0.2870 -0.5307  0.0234
 2319TIP3    H128372   4.396   2.641   1.795 -0.0461 -2.1161 -2.4995
 2319TIP3    H228373   4.250   2.615   1.765 -0.6038 -0.2914 -1.4738
 2320TIP3   OH228374   6.493   4.395  12.916  0.3027 -0.6171 -0.1611
 2320TIP3    H128375   6.541   4.324  12.874  2.3785 -0.2944  1.6068
 2320TIP3    H228376   6.401   4.369  12.910  0.8681 -2.3610 -1.5243
 2321TIP3   OH228377   1.886   6.323  14.489  0.8013  0.6889  0.1496
 2321TIP3    H128378   1.909   6.230  14.483 -0.4033  0.3544  0.4485
 2321TIP3    H228379   1.968   6.369  14.472  1.4017 -0.4273 -0.0745
 2322TIP3   OH228380   6.384   0.597   5.301  0.3123 -0.3680  0.4289
 2322TIP3    H128381   6.462   0.653   5.293  1.0004 -1.6339 -2.0594
 2322TIP3    H228382   6.311   0.658   5.300  1.0126  0.5037 -3.0060
 2323TIP3   OH228383   2.728   4.277  13.797 -0.1791 -0.0342 -1.1976
 2323TIP3    H128384   2.707   4.312  13.710 -0.0177  1.6870 -0.5595
 2323TIP3    H228385   2.689   4.339  13.858 -0.6889 -1.4800 -0.0226
 2324TIP3   OH228386   1.299   3.972   4.876  0.5594  0.2006 -0.2081
 2324TIP3    H128387   1.216   3.925   4.879 -0.4593  2.0071  0.1625
 2324TIP3    H228388   1.334   3.967   4.965  1.1029 -0.9871 -0.4804
 2325TIP3   OH228389   1.664   6.007  16.915 -0.3519  0.1046 -0.0563
 2325TIP3    H128390   1.632   5.917  16.917 -0.7226  0.2379 -0.0383
 2325TIP3    H228391   1.739   6.006  16.975  0.8393 -0.6477 -1.5293
 2326TIP3   OH228392   1.863   2.353  16.754 -0.3066 -0.0307 -0.0249
 2326TIP3    H128393   1.814   2.407  16.692  1.2566  0.0675 -1.2088
 2326TIP3    H228394   1.934   2.315  16.702  1.0421  0.0588  1.6958
 2327TIP3   OH228395   2.580   0.002  16.587  0.3544  0.2764 -0.2722
 2327TIP3    H128396   2.625   0.081  16.617  0.8696  0.2057 -0.8369
 2327TIP3    H228397   2.557   0.020  16.496 -3.6188  1.5407  0.9047
 2328TIP3   OH228398   4.081   6.509  16.728 -0.0295  0.7982  0.2465
 2328TIP3    H128399   4.173   6.530  16.714 -0.1810  1.0641 -0.3673
 2328TIP3    H228400   4.079   6.461  16.811  0.7537  0.1714 -0.0935
 2329TIP3   OH228401   5.009   1.463  17.083 -0.0446  0.1859 -0.1350
 2329TIP3    H128402   5.080   1.464  17.147  0.1464 -1.0609 -0.3312
 2329TIP3    H228403   4.951   1.533  17.112  0.8132  0.6387  0.5255
 2330TIP3   OH228404   1.069   6.629  12.572 -0.2360  0.5502 -0.5041
 2330TIP3    H128405   1.138   6.695  12.570 -1.2923  1.7346  0.8889
 2330TIP3    H228406   1.101   6.563  12.634 -0.5662  1.3564  0.5349
 2331TIP3   OH228407   6.395   2.937   4.017  0.0887 -0.7332 -0.1789
 2331TIP3    H128408   6.358   3.020   4.049  2.5945 -0.0266  0.9759
 2331TIP3    H228409   6.382   2.941   3.922  0.0757  0.9258 -0.1367
 2332TIP3   OH228410   0.359   3.586  16.242  0.4771  0.6637 -0.1962
 2332TIP3    H128411   0.329   3.676  16.230 -1.9761  0.1120  1.4138
 2332TIP3    H228412   0.325   3.539  16.166 -1.7485  0.3015  0.9921
 2333TIP3   OH228413   0.726   0.979   5.491  0.7112 -0.0708  0.2655
 2333TIP3    H128414   0.690   0.944   5.409  1.6066  0.2722 -0.2934
 2333TIP3    H228415   0.665   1.049   5.516  0.3284 -0.3036 -0.0076
 2334TIP3   OH228416   4.360   3.156   2.722 -0.4146  0.1555  0.4669
 2334TIP3    H128417   4.428   3.095   2.752 -2.7113 -0.7953  4.0015
 2334TIP3    H228418   4.389   3.242   2.755  0.0945  0.1105  0.1524
 2335TIP3   OH228419   5.864   6.189  17.146  0.1514 -0.3125 -0.0772
 2335TIP3    H128420   5.920   6.216  17.074 -0.5044 -0.2786 -0.5817
 2335TIP3    H228421   5.892   6.100  17.167 -0.0535 -0.5381 -0.7668
 2336TIP3   OH228422   1.365   4.026  11.841  0.0052  0.2889 -0.2794
 2336TIP3    H128423   1.404   3.977  11.768 -1.3769  0.9467 -1.4639
 2336TIP3    H228424   1.383   3.971  11.918  0.7490 -0.8097 -1.2181
 2337TIP3   OH228425   4.107   2.963  16.037 -0.5681 -0.5494 -0.4224
 2337TIP3    H128426   4.130   3.037  15.981 -1.4749 -0.5706 -0.8408
 2337TIP3    H228427   4.147   2.983  16.122  0.0418 -0.0754 -0.8241
 2338TIP3   OH228428   3.901   6.506  14.792  0.1841  0.1066  0.4840
 2338TIP3    H128429   3.916   6.449  14.717 -0.2150 -0.3451  0.7456
 2338TIP3    H228430   3.833   6.567  14.763 -0.3045 -0.3646  0.6339
 2339TIP3   OH228431   5.113   0.291   2.398 -0.0788  0.6861 -0.4193
 2339TIP3    H128432   5.123   0.380   2.363 -0.9975  0.2644 -1.7919
 2339TIP3    H228433   5.022   0.269   2.380  0.2118 -0.6413 -0.2871
 2340TIP3   OH228434   2.747   6.608  11.181 -0.1892 -0.1792 -0.2912
 2340TIP3    H128435   2.739   6.518  11.148  2.9984 -0.5708 -0.1598
 2340TIP3    H228436   2.785   6.598  11.268 -0.0798  1.2849 -0.1636
 2341TIP3   OH228437   3.695   2.932  13.600  0.1712  0.2647  0.3610
 2341TIP3    H128438   3.778   2.885  13.592  0.5226  0.3328  3.2860
 2341TIP3    H228439   3.633   2.866  13.632 -0.8989  0.2569 -1.6273
 2342TIP3   OH228440   6.179   1.275  14.948 -0.8310 -0.1650 -0.5953
 2342TIP3    H128441   6.150   1.292  14.858 -0.9228 -2.0107 -0.9300
 2342TIP3    H228442   6.112   1.317  15.002 -1.0651  0.4910 -1.3725
 2343TIP3   OH228443   0.724   4.303   3.549 -0.2560 -0.2535  0.5444
 2343TIP3    H128444   0.811   4.333   3.576 -0.9251  1.6417  0.6828
 2343TIP3    H228445   0.727   4.305   3.453 -0.2861  0.2550  0.5511
 2344TIP3   OH228446   4.917   1.700  13.469 -0.0691 -0.2918 -0.4877
 2344TIP3    H128447   4.913   1.722  13.376 -1.4020 -1.5415 -0.7494
 2344TIP3    H228448   4.835   1.654  13.486 -0.3194  0.8591  1.5598
 2345TIP3   OH228449   2.801   6.266   2.812  0.5526  0.1880 -0.0698
 2345TIP3    H128450   2.868   6.325   2.848  0.5681  0.8359 -1.1310
 2345TIP3    H228451   2.812   6.184   2.860  2.3523  0.1773 -0.4894
 2346TIP3   OH228452   5.139   4.828   2.197  0.0021  0.3920  0.0771
 2346TIP3    H128453   5.105   4.915   2.176 -3.6934 -0.2992  2.5379
 2346TIP3    H228454   5.207   4.844   2.262  1.4261  1.5819 -1.6648
 2347TIP3   OH228455   3.455   2.322   1.679 -0.0890  0.0236  0.1223
 2347TIP3    H128456   3.478   2.380   1.752 -0.0667 -0.1297  0.2383
 2347TIP3    H228457   3.422   2.243   1.722  1.9330 -0.9065  0.0030
 2348TIP3   OH228458   5.904   5.538  16.237 -0.6319 -0.3047 -0.6188
 2348TIP3    H128459   5.986   5.534  16.189 -2.2925  0.5406 -3.6524
 2348TIP3    H228460   5.860   5.455  16.219 -0.4466 -0.7860  1.0422
 2349TIP3   OH228461   1.387   2.237   2.881 -0.3852 -0.4640 -0.2948
 2349TIP3    H128462   1.426   2.324   2.871 -2.3827  0.7356  1.9098
 2349TIP3    H228463   1.442   2.194   2.946 -1.6242  0.5689  1.4632
 2350TIP3   OH228464   3.687   2.117   3.486 -0.2328  0.1924  0.5119
 2350TIP3    H128465   3.768   2.118   3.435 -0.7898 -0.6128 -0.4090
 2350TIP3    H228466   3.715   2.139   3.575  1.0427 -0.3308  0.2647
 2351TIP3   OH228467   6.446   5.826  13.400 -0.6065 -0.4140  0.4497
 2351TIP3    H128468   6.427   5.915  13.429  0.9816 -0.5677  2.0485
 2351TIP3    H228469   6.514   5.836  13.332 -0.1333 -0.4220  0.9175
 2352TIP3   OH228470   6.228   6.132  16.205 -0.2926  0.4952  0.1200
 2352TIP3    H128471   6.192   6.090  16.126 -0.4413 -2.0330  1.4867
 2352TIP3    H228472   6.151   6.169  16.249 -0.3914  0.6534 -0.1809
 2353TIP3   OH228473   6.409   3.420   4.380  0.4881  0.4796  0.6767
 2353TIP3    H128474   6.434   3.456   4.295  0.8178 -0.9654  0.1571
 2353TIP3    H228475   6.352   3.346   4.360  0.9198 -0.1410  1.6855
 2354TIP3   OH228476   6.343   3.822   3.009 -0.0513 -0.1440  0.1089
 2354TIP3    H128477   6.392   3.759   2.955 -0.6101 -0.0431 -0.5286
 2354TIP3    H228478   6.252   3.792   3.003 -0.0434 -0.4789  1.4852
 2355TIP3   OH228479   1.546   4.790  13.277 -0.6304  0.1954  0.4416
 2355TIP3    H128480   1.484   4.742  13.222  1.5943 -0.0823 -1.9700
 2355TIP3    H228481   1.629   4.744  13.265  0.6290  2.1469  1.4034
 2356TIP3   OH228482   6.578   0.535   3.121  0.7333  0.1635 -0.0863
 2356TIP3    H128483   6.616   0.449   3.104 -2.3036 -1.3631  0.4925
 2356TIP3    H228484   6.557   0.570   3.034 -0.1595 -0.7269 -0.2422
 2357TIP3   OH228485   3.760   1.492   5.969  0.7860 -0.3247  0.4859
 2357TIP3    H128486   3.712   1.417   5.933  0.4302  0.6124 -1.0096
 2357TIP3    H228487   3.833   1.452   6.017  0.1030 -1.6599  0.4522
 2358TIP3   OH228488   5.797   4.840  16.721 -0.1460 -0.6872  0.0412
 2358TIP3    H128489   5.848   4.890  16.784 -0.6718  0.6136 -0.5457
 2358TIP3    H228490   5.722   4.808  16.770 -1.6886  2.1328 -0.3895
 2359TIP3   OH228491   0.012   2.739  14.510  1.0942  0.1244 -0.4420
 2359TIP3    H128492   0.098   2.776  14.527  0.9083  1.0623 -1.4765
 2359TIP3    H228493  -0.050   2.808  14.535  0.6627 -0.3082 -0.2948
 2360TIP3   OH228494   0.103   3.613  13.093 -0.0537 -0.1875 -0.2363
 2360TIP3    H128495   0.118   3.615  12.998  2.2220  1.1517  0.1062
 2360TIP3    H228496   0.127   3.524  13.119 -0.9352 -0.6401 -0.9430
 2361TIP3   OH228497   4.153   4.665  11.002  0.0147 -0.2446  0.4313
 2361TIP3    H128498   4.065   4.703  11.010 -0.2563 -0.4029 -1.6420
 2361TIP3    H228499   4.198   4.723  10.941  0.7861 -1.1727  0.1204
 2362TIP3   OH228500   2.193   5.941   4.181 -0.5773  0.1721 -0.3330
 2362TIP3    H128501   2.174   5.964   4.090  0.7298  1.6066 -0.2526
 2362TIP3    H228502   2.250   6.011   4.212 -1.1807 -0.2105  1.6633
 2363TIP3   OH228503   3.497   2.095  16.082 -0.0121  0.3616  0.2532
 2363TIP3    H128504   3.503   2.049  16.165  0.3131  0.2289  0.1559
 2363TIP3    H228505   3.548   2.175  16.095  0.3032  0.1919  0.0828
 2364TIP3   OH228506   0.453   2.776  10.735 -0.1753 -0.2180  0.2494
 2364TIP3    H128507   0.547   2.788  10.748  0.0020 -1.5840  0.3660
 2364TIP3    H228508   0.418   2.864  10.725  1.2977  0.2483 -1.0474
 2365TIP3   OH228509   3.854   6.635  12.190  0.3975  0.4198  0.2491
 2365TIP3    H128510   3.909   6.689  12.246 -1.3608  0.5311  1.9061
 2365TIP3    H228511   3.879   6.545  12.211 -0.7430  0.4458  1.7040
 2366TIP3   OH228512   5.116   6.452  14.606 -0.1223 -0.0927  0.5143
 2366TIP3    H128513   5.095   6.445  14.513 -1.3208  2.4954  0.5271
 2366TIP3    H228514   5.065   6.382  14.647 -2.0614  0.7051 -0.4493
 2367TIP3   OH228515   3.094   3.080  12.487 -0.2795 -0.4898  0.4638
 2367TIP3    H128516   3.181   3.064  12.523  0.1717 -0.2508 -0.4905
 2367TIP3    H228517   3.040   3.008  12.521  0.5527 -1.2591  0.1975
 2368TIP3   OH228518   5.987   6.785  13.493 -0.2473 -0.6016  0.1990
 2368TIP3    H128519   6.032   6.804  13.411 -1.0598  1.2498  0.1734
 2368TIP3    H228520   5.917   6.850  13.498  0.9333  0.5217  3.2371
 2369TIP3   OH228521   5.530   6.311   0.607  0.3332 -0.3309  0.0971
 2369TIP3    H128522   5.589   6.337   0.678 -0.8337  1.1389  0.5335
 2369TIP3    H228523   5.540   6.216   0.602  1.8259 -0.2335  0.9743
 2370TIP3   OH228524   2.348   1.774  15.047 -0.5153  0.3851 -0.3147
 2370TIP3    H128525   2.380   1.789  15.135  0.1198  0.2684 -0.5199
 2370TIP3    H228526   2.383   1.687  15.024 -0.4475  0.5353 -0.7788
 2371TIP3   OH228527   2.980   4.661   0.276  0.0011 -0.1358  0.0951
 2371TIP3    H128528   2.956   4.576   0.315 -0.6745  0.0369  0.0704
 2371TIP3    H228529   2.980   4.645   0.182  0.3488 -0.2274  0.1100
 2372TIP3   OH228530   0.962   6.133  16.330  0.2201  0.0316  0.3264
 2372TIP3    H128531   1.013   6.111  16.409  1.4111  0.1966 -0.3843
 2372TIP3    H228532   0.914   6.212  16.354 -0.2478 -0.5123  1.2386
 2373TIP3   OH228533   5.884   0.767   4.252 -0.2406 -0.4647  0.3324
 2373TIP3    H128534   5.810   0.828   4.248 -1.4350 -1.9283  0.0309
 2373TIP3    H228535   5.845   0.683   4.275  1.5008 -0.9716  1.4603
 2374TIP3   OH228536   2.608   5.278  11.092  0.4745 -0.3279  0.2475
 2374TIP3    H128537   2.643   5.359  11.056  1.0563 -1.2794 -1.3953
 2374TIP3    H228538   2.514   5.284  11.077  0.5555 -0.1027 -0.1654
 2375TIP3   OH228539   6.091   2.959   1.032  0.0555 -0.6345  0.7327
 2375TIP3    H128540   6.173   2.983   1.073  0.1957 -0.9750  0.6534
 2375TIP3    H228541   6.093   2.863   1.027 -0.0243 -0.6056  0.0714
 2376TIP3   OH228542   6.516   3.873   0.721  0.2323  0.2637  0.6803
 2376TIP3    H128543   6.513   3.963   0.691  1.3933  0.0520 -0.0905
 2376TIP3    H228544   6.587   3.871   0.786  0.9956 -0.3310 -0.1501
 2377TIP3   OH228545   2.459   2.076   2.447  0.1408 -0.0759  0.0564
 2377TIP3    H128546   2.430   2.011   2.384 -2.8620 -0.1335  1.4161
 2377TIP3    H228547   2.485   2.025   2.524 -1.7358  0.2609  0.9406
 2378TIP3   OH228548   1.538   5.046   4.933  0.0029  0.1347  0.2640
 2378TIP3    H128549   1.461   5.062   4.878  0.5128 -1.0971 -0.8397
 2378TIP3    H228550   1.504   5.003   5.011 -0.5052  0.2216  0.0912
 2379TIP3   OH228551   3.188   0.290  17.078  0.1466 -0.2142  0.2059
 2379TIP3    H128552   3.103   0.329  17.059 -0.4574 -1.3736  0.4895
 2379TIP3    H228553   3.178   0.252  17.165  0.6775 -1.1357 -0.1317
 2380TIP3   OH228554   6.281   3.164   0.152 -0.2343  0.3881 -0.3188
 2380TIP3    H128555   6.348   3.221   0.189  0.8543 -1.2229  0.2216
 2380TIP3    H228556   6.208   3.170   0.213 -0.0488  1.0544 -0.1615
 2381TIP3   OH228557   6.593   6.000   5.090 -0.1211 -0.0060  0.0001
 2381TIP3    H128558   6.620   6.084   5.126 -0.0830  1.4709 -3.3414
 2381TIP3    H228559   6.504   6.014   5.058 -0.9194 -1.8501  1.3248
 2382TIP3   OH228560   2.024   1.373   2.590 -0.3272  0.1283 -0.2201
 2382TIP3    H128561   1.973   1.313   2.645  0.0594 -0.6761 -0.7329
 2382TIP3    H228562   1.960   1.436   2.557 -1.1319 -1.3074 -1.4401
 2383TIP3   OH228563   2.708   2.094  17.128  0.2831 -0.1009 -0.4389
 2383TIP3    H128564   2.722   2.053  17.042  0.4307 -1.5359  0.2455
 2383TIP3    H228565   2.793   2.086  17.171 -0.0092 -0.1100  0.1342
 2384TIP3   OH228566   6.524   1.714  15.844 -0.2226  0.0398 -0.0875
 2384TIP3    H128567   6.514   1.650  15.774  1.4348 -0.2334 -0.1082
 2384TIP3    H228568   6.489   1.670  15.922  1.6850 -1.2477  0.0700
 2385TIP3   OH228569   5.685   6.412   6.317  0.1355 -0.2066 -0.8271
 2385TIP3    H128570   5.615   6.377   6.262  0.2561  0.4604 -1.4067
 2385TIP3    H228571   5.708   6.339   6.375 -0.3045 -0.7681 -1.3490
 2386TIP3   OH228572   4.234   3.766  14.644 -0.3570  0.3070  0.5119
 2386TIP3    H128573   4.294   3.784  14.716  1.6652 -0.6762 -0.8682
 2386TIP3    H228574   4.285   3.711  14.584 -2.3237  0.2661 -1.1737
 2387TIP3   OH228575   2.509   1.979  16.761 -0.3801 -0.0890  0.1197
 2387TIP3    H128576   2.421   1.962  16.729  0.6100 -0.6858 -2.4420
 2387TIP3    H228577   2.543   1.893  16.786 -0.2864  0.0451  0.4617
 2388TIP3   OH228578   6.694   3.334   1.932  0.3556  0.0442 -0.8005
 2388TIP3    H128579   6.773   3.351   1.881 -0.8934 -0.1644 -2.8214
 2388TIP3    H228580   6.645   3.417   1.930  0.0345 -0.1301 -0.3986
 2389TIP3   OH228581   2.670   6.401  16.283  0.1214 -0.0846  0.4797
 2389TIP3    H128582   2.717   6.318  16.278  0.2203 -0.0486  0.8313
 2389TIP3    H228583   2.600   6.386  16.346 -0.8071 -0.3632 -0.5969
 2390TIP3   OH228584   1.833   2.173  11.151 -0.3913 -0.5859  0.0248
 2390TIP3    H128585   1.908   2.118  11.177  0.0866 -0.5129 -1.1690
 2390TIP3    H228586   1.820   2.153  11.058 -2.3521 -1.1643  0.4110
 2391TIP3   OH228587   2.367   0.839   2.698 -0.5155 -0.0927 -0.7036
 2391TIP3    H128588   2.286   0.855   2.747 -1.1406 -1.4475 -1.2640
 2391TIP3    H228589   2.361   0.747   2.671  1.6442 -0.4794  0.0281
 2392TIP3   OH228590   2.452   4.607   2.557 -0.5184  0.2728  0.3336
 2392TIP3    H128591   2.455   4.686   2.503 -0.7713  0.5570  0.7259
 2392TIP3    H228592   2.533   4.561   2.538  0.8868  1.9370  2.0543
 2393TIP3   OH228593   1.280   5.950   1.273  0.1409  0.3664 -0.1020
 2393TIP3    H128594   1.197   5.971   1.230  1.2213  3.0310 -0.9760
 2393TIP3    H228595   1.332   5.907   1.204  0.0299  0.0753 -0.0022
 2394TIP3   OH228596   5.900   6.463   1.959 -0.0955 -0.0495 -0.7804
 2394TIP3    H128597   5.940   6.511   2.032  2.6978 -0.9094 -1.6786
 2394TIP3    H228598   5.857   6.388   2.001 -1.2557  1.1634  0.2535
 2395TIP3   OH228599   6.127   0.813  13.086  0.1243  0.2186  0.2524
 2395TIP3    H128600   6.116   0.878  13.016 -1.9087 -0.6155 -0.2096
 2395TIP3    H228601   6.088   0.854  13.163  0.0257  0.0802  0.2767
 2396TIP3   OH228602   4.739   5.884  11.721 -0.2393  1.0619 -0.2575
 2396TIP3    H128603   4.670   5.838  11.769  1.7517  0.6840  2.3880
 2396TIP3    H228604   4.757   5.828  11.645 -2.4727  0.9305 -0.6980
 2397TIP3   OH228605   1.905   1.882   5.007 -0.2295 -0.4122  0.2054
 2397TIP3    H128606   1.810   1.878   4.995 -0.2459  2.4952 -1.2353
 2397TIP3    H228607   1.920   1.968   5.048  1.7846 -0.7973  0.3284
 2398TIP3   OH228608   4.354   6.139  12.721  0.2492  0.4637  0.0935
 2398TIP3    H128609   4.444   6.106  12.721  0.3576  0.7399  0.9268
 2398TIP3    H228610   4.349   6.195  12.644  0.8905  0.7170  0.2309
 2399TIP3   OH228611   3.967   2.094   3.510 -0.3226  0.0531 -0.5332
 2399TIP3    H128612   4.007   2.065   3.592 -0.8378 -1.5729 -0.8319
 2399TIP3    H228613   4.008   2.039   3.443 -0.5906  0.7237 -1.2539
 2400TIP3   OH228614   1.213   3.411   0.324 -0.5995 -0.2757  0.3071
 2400TIP3    H128615   1.259   3.338   0.366  0.9930  0.9381  0.6820
 2400TIP3    H228616   1.163   3.370   0.254  1.7802 -1.4975 -0.7235
 2401TIP3   OH228617   3.468   4.943   1.379 -0.1226  0.5215 -0.0966
 2401TIP3    H128618   3.426   4.869   1.422  1.0116  1.2054  2.2656
 2401TIP3    H228619   3.419   5.019   1.409  0.1686  0.9384 -0.6587
 2402TIP3   OH228620   5.098   0.667   6.294  0.4164 -0.2087  0.0144
 2402TIP3    H128621   5.164   0.601   6.316  1.1420 -0.0088 -1.4612
 2402TIP3    H228622   5.052   0.684   6.376  1.3120 -1.3465  0.7662
 2403TIP3   OH228623   2.421   3.860   2.524 -0.3754 -0.2567  0.0361
 2403TIP3    H128624   2.436   3.777   2.569  1.0843  0.4623  0.8963
 2403TIP3    H228625   2.353   3.903   2.576 -2.0943 -1.4702 -1.1702
 2404TIP3   OH228626   1.495   3.519  11.618 -0.4260  0.2860 -0.1808
 2404TIP3    H128627   1.411   3.489  11.652 -0.8490  2.4230  0.7367
 2404TIP3    H228628   1.492   3.615  11.628  1.9752  0.4137 -0.4338
 2405TIP3   OH228629   3.351   0.907  11.427 -0.2362  0.0515  0.0193
 2405TIP3    H128630   3.367   0.860  11.509 -1.7497 -1.2121 -0.3911
 2405TIP3    H228631   3.316   0.992  11.454  1.2889  0.4759  0.7216
 2406TIP3   OH228632   4.780   1.408  13.626 -0.9107 -0.4842 -0.2713
 2406TIP3    H128633   4.806   1.436  13.539 -1.6940 -0.0686 -0.3773
 2406TIP3    H228634   4.694   1.368  13.614 -1.9434  1.3752  0.5971
 2407TIP3   OH228635   5.641   3.974   5.768  0.5693  0.0001 -0.0615
 2407TIP3    H128636   5.578   3.996   5.700  0.0570  0.8573  0.6761
 2407TIP3    H228637   5.723   4.015   5.739 -0.0406  1.7542  0.6108
 2408TIP3   OH228638   2.577   2.059   2.709 -0.0468  0.5092 -0.2335
 2408TIP3    H128639   2.526   2.111   2.771 -0.1054 -0.8293  0.8418
 2408TIP3    H228640   2.581   1.972   2.747  2.3814  0.3931 -0.6857
 2409TIP3   OH228641   4.958   2.104  14.022 -0.0705 -0.6857 -0.1596
 2409TIP3    H128642   4.899   2.144  13.958 -0.2816 -0.0575  0.4209
 2409TIP3    H228643   5.000   2.178  14.066 -0.2256 -1.0969  0.7069
 2410TIP3   OH228644   0.856   3.078  16.415  0.1423 -0.0925 -0.1835
 2410TIP3    H128645   0.830   3.132  16.490  1.4204  0.6390 -0.2577
 2410TIP3    H228646   0.776   3.071  16.363 -0.5623  0.0304  0.8458
 2411TIP3   OH228647   6.753   4.386   2.089  0.3117 -0.6595  0.7186
 2411TIP3    H128648   6.659   4.384   2.071  0.3718 -0.0504  0.3238
 2411TIP3    H228649   6.777   4.295   2.103 -0.3944 -0.7929  1.0987
 2412TIP3   OH228650   6.127   2.742  14.236 -0.6858 -0.0483  0.0318
 2412TIP3    H128651   6.097   2.833  14.232 -2.7232 -0.7245 -0.8023
 2412TIP3    H228652   6.192   2.742  14.306 -1.1367  1.9253  0.4978
 2413TIP3   OH228653   3.391   5.945  12.700 -0.0204 -0.0848 -0.3380
 2413TIP3    H128654   3.428   5.966  12.786 -2.9660  1.6893  0.5861
 2413TIP3    H228655   3.313   5.893  12.720  0.0659 -0.8621 -2.0198
 2414TIP3   OH228656   1.460   3.128  17.007  0.0159 -0.2836 -0.4038
 2414TIP3    H128657   1.508   3.189  16.951  0.7557 -0.1802  0.3480
 2414TIP3    H228658   1.430   3.180  17.081 -0.7476 -0.4825 -0.5580
 2415TIP3   OH228659   3.554   4.587   1.562  0.0360  0.1942  0.0314
 2415TIP3    H128660   3.472   4.628   1.534 -0.4001 -0.6333  0.0677
 2415TIP3    H228661   3.532   4.546   1.646  0.4091 -0.2750 -0.0994
 2416TIP3   OH228662   3.968   4.404  11.941  0.3539 -0.1108 -0.0124
 2416TIP3    H128663   3.970   4.362  11.855  1.2720  0.5745 -0.3271
 2416TIP3    H228664   3.966   4.497  11.922 -1.2391  0.0208  0.6985
 2417TIP3   OH228665   6.448   4.414  15.951 -0.1917 -0.2827 -0.2640
 2417TIP3    H128666   6.353   4.411  15.943 -0.3862 -1.6389  2.1577
 2417TIP3    H228667   6.466   4.495  16.000 -0.3649 -1.6955  2.2006
 2418TIP3   OH228668   5.928   5.927   2.980 -0.7352 -0.4915 -0.4855
 2418TIP3    H128669   5.867   5.998   3.001  1.1060  1.0825 -0.3630
 2418TIP3    H228670   5.898   5.894   2.896 -1.0687  1.0498 -0.9879
 2419TIP3   OH228671   1.614   5.964  14.960 -0.0097 -0.4950  0.5379
 2419TIP3    H128672   1.651   5.877  14.950  0.5241 -0.4294  1.8262
 2419TIP3    H228673   1.609   5.977  15.055 -1.1453  0.4228  0.3637
 2420TIP3   OH228674   4.301   1.721   4.877  0.2805 -0.0859  0.3457
 2420TIP3    H128675   4.299   1.814   4.902 -0.3037  0.3514 -1.3252
 2420TIP3    H228676   4.354   1.680   4.946  1.4289  1.6516  0.5357
 2421TIP3   OH228677   2.083   2.051  11.217  0.3958 -0.6528 -0.1274
 2421TIP3    H128678   2.080   1.980  11.282 -2.2648 -0.4956 -0.0202
 2421TIP3    H228679   2.105   2.129  11.268  1.5491 -1.0724  0.0379
 2422TIP3   OH228680   3.688   3.149   3.451 -0.6244  0.8397 -0.4686
 2422TIP3    H128681   3.709   3.071   3.502  2.0146 -0.1389 -2.9259
 2422TIP3    H228682   3.642   3.115   3.374  0.5734  1.6852 -1.5665
 2423TIP3   OH228683   0.115   6.354   2.161  0.1966  0.0842  0.2477
 2423TIP3    H128684   0.157   6.388   2.240  1.0635 -0.2413 -0.0618
 2423TIP3    H228685   0.144   6.263   2.156 -0.9992 -0.3080  0.3212
 2424TIP3   OH228686   1.166   0.292   2.396 -0.7371 -0.2385 -0.0747
 2424TIP3    H128687   1.247   0.318   2.441 -1.1507  0.1302  0.4572
 2424TIP3    H228688   1.127   0.374   2.366 -0.5325 -0.4741 -0.9959
 2425TIP3   OH228689   1.478   3.695  14.867 -0.4282  0.2140  0.5888
 2425TIP3    H128690   1.510   3.761  14.807  1.8298 -0.9906  0.4062
 2425TIP3    H228691   1.541   3.696  14.939 -2.5607  0.9818  2.5090
 2426TIP3   OH228692   2.956   5.569   0.909  0.2208  0.1747 -0.2938
 2426TIP3    H128693   2.913   5.647   0.874 -0.2448  0.0845  0.0755
 2426TIP3    H228694   3.020   5.603   0.972  0.3232  0.2780 -0.4527
 2427TIP3   OH228695   3.887   0.297   0.323 -0.1977  0.4173  0.0180
 2427TIP3    H128696   3.826   0.224   0.316  1.1150 -0.9421  2.3406
 2427TIP3    H228697   3.971   0.262   0.293  0.5665  0.7822  1.6721
 2428TIP3   OH228698   2.166   4.772  14.837  0.2162 -0.4084  0.0399
 2428TIP3    H128699   2.213   4.786  14.919  0.6667  3.1399 -0.7220
 2428TIP3    H228700   2.234   4.753  14.773  0.4628  2.2011 -0.5439
 2429TIP3   OH228701   2.987   0.177  15.649 -0.3450 -0.1043 -0.0039
 2429TIP3    H128702   2.899   0.174  15.611 -0.6054  1.3068  0.4447
 2429TIP3    H228703   3.000   0.091  15.687 -0.9211 -0.8334 -1.4287
 2430TIP3   OH228704   3.180   6.547  15.408 -0.1581  0.1995  0.2560
 2430TIP3    H128705   3.180   6.583  15.320 -0.4504 -0.2069  0.0873
 2430TIP3    H228706   3.268   6.566  15.441 -0.9833  3.0240  0.9923
 2431TIP3   OH228707   4.035   5.181  14.273 -0.6345  0.1667  0.4191
 2431TIP3    H128708   4.096   5.194  14.346  0.2160 -0.0164 -0.2573
 2431TIP3    H228709   4.085   5.132  14.208 -0.3037  3.1886 -1.7211
 2432TIP3   OH228710   3.543   0.642   2.443 -0.3274  0.3920  0.4719
 2432TIP3    H128711   3.538   0.608   2.354 -0.6817 -0.4076  0.7873
 2432TIP3    H228712   3.599   0.579   2.489  2.1774  2.3011  0.1337
 2433TIP3   OH228713   2.046   1.707  14.676 -0.0312 -0.0485  0.2660
 2433TIP3    H128714   2.046   1.753  14.592  2.4007 -0.0761  0.2007
 2433TIP3    H228715   2.046   1.777  14.742 -1.6666 -0.0244  0.2488
 2434TIP3   OH228716   4.700   6.023   4.773  0.0533 -0.1754 -0.1651
 2434TIP3    H128717   4.778   6.005   4.826  0.3647  0.9942 -0.1916
 2434TIP3    H228718   4.736   6.051   4.688 -0.3848  0.3550 -0.1790
 2435TIP3   OH228719   6.578   4.635   5.635  0.2501 -0.3951 -0.0657
 2435TIP3    H128720   6.645   4.611   5.571 -0.2006 -0.1001 -0.6459
 2435TIP3    H228721   6.499   4.651   5.583 -0.1811 -0.4012  0.5846
 2436TIP3   OH228722   3.474   0.049  16.905  0.2514 -0.7122  0.2128
 2436TIP3    H128723   3.497   0.072  16.815  1.2353  0.5806  0.7804
 2436TIP3    H228724   3.379   0.059  16.908  0.2076 -0.7991 -0.6983
 2437TIP3   OH228725   6.464   4.281   0.604 -0.1551  0.3767 -1.0448
 2437TIP3    H128726   6.441   4.241   0.688 -0.0051 -2.4315 -2.2633
 2437TIP3    H228727   6.381   4.283   0.556  0.3930 -1.5003 -2.1504
 2438TIP3   OH228728   5.133   1.203  13.556 -0.3062 -0.2860  0.8467
 2438TIP3    H128729   5.077   1.155  13.617  1.2098 -1.8539  1.0236
 2438TIP3    H228730   5.142   1.145  13.480 -0.2077  0.6375  0.1315
 2439TIP3   OH228731   3.511   3.443   3.663 -0.0962  0.0766  0.2032
 2439TIP3    H128732   3.453   3.376   3.627  0.1331  0.8158 -1.5668
 2439TIP3    H228733   3.505   3.516   3.602  1.4477  0.7884  0.8661
 2440TIP3   OH228734   5.626   3.961   1.212 -0.8952  0.7375  0.3390
 2440TIP3    H128735   5.714   3.935   1.238 -0.8793  0.6252  0.1733
 2440TIP3    H228736   5.632   3.980   1.119 -0.8706  1.5192  0.4974
 2441TIP3   OH228737   6.523   3.098  12.275  0.0756  0.0755 -0.2906
 2441TIP3    H128738   6.433   3.126  12.295  0.3009  1.0507 -0.6177
 2441TIP3    H228739   6.549   3.152  12.200  1.5978  1.1495  0.9638
 2442TIP3   OH228740   6.459   3.159   1.215 -0.9518 -0.0243 -0.6936
 2442TIP3    H128741   6.463   3.167   1.310 -3.2880  1.5484 -0.6481
 2442TIP3    H228742   6.391   3.094   1.199  0.3386 -1.2419 -1.2961
 2443TIP3   OH228743   1.057   0.650   2.728 -0.0833 -0.1438  0.1304
 2443TIP3    H128744   1.089   0.692   2.648 -0.3769  0.4910  0.3399
 2443TIP3    H228745   1.088   0.707   2.799 -1.3370  0.2722  0.3601
 2444TIP3   OH228746   1.952   0.611   4.975 -0.3104 -0.1074 -0.5817
 2444TIP3    H128747   1.899   0.614   4.896 -1.7260  1.5533  0.3981
 2444TIP3    H228748   1.927   0.529   5.018 -0.5138 -0.3532 -1.1670
 2445TIP3   OH228749   6.151   3.358   1.317 -0.6070 -0.0020  0.6043
 2445TIP3    H128750   6.129   3.274   1.276 -0.4263 -0.7206  1.9349
 2445TIP3    H228751   6.119   3.349   1.407 -0.0230  1.1267  0.9264
 2446TIP3   OH228752   5.292   1.564   5.651  0.2517 -0.0297 -0.0527
 2446TIP3    H128753   5.298   1.634   5.717 -0.3395 -0.0125 -0.0170
 2446TIP3    H228754   5.216   1.513   5.678  2.2122 -2.2706  1.4433
 2447TIP3   OH228755   3.631   0.840  12.152  0.4625 -0.1234  0.5285
 2447TIP3    H128756   3.570   0.771  12.175 -0.4310  0.2718 -0.5782
 2447TIP3    H228757   3.636   0.837  12.056 -0.1020  1.7464  0.4128
 2448TIP3   OH228758   6.620   0.041   2.690  0.0989  0.6614 -0.4501
 2448TIP3    H128759   6.554   0.060   2.757  0.0291 -2.0592  0.3312
 2448TIP3    H228760   6.704   0.049   2.737  0.1697  1.0883 -0.6488
 2449TIP3   OH228761   3.155   4.904  13.244 -0.3769 -0.2132 -0.0313
 2449TIP3    H128762   3.192   4.817  13.229  0.3755  0.1856 -0.5153
 2449TIP3    H228763   3.164   4.918  13.338  1.1798  0.0834 -0.2084
 2450TIP3   OH228764   3.752   2.062   0.807 -0.2899 -0.3799 -0.2503
 2450TIP3    H128765   3.817   2.111   0.857 -1.1727  1.3327 -0.7531
 2450TIP3    H228766   3.677   2.054   0.866 -0.4116 -0.4977 -0.4185
 2451TIP3   OH228767   2.178   0.688  14.954  0.4166  0.1706 -0.3511
 2451TIP3    H128768   2.142   0.776  14.944 -1.4323 -0.5983 -0.7318
 2451TIP3    H228769   2.172   0.649  14.866 -0.0197 -0.7808  0.0921
 2452TIP3   OH228770   4.190   5.867  12.660  0.4260  0.8225 -0.7069
 2452TIP3    H128771   4.136   5.947  12.665 -0.0674  0.5588 -1.6174
 2452TIP3    H228772   4.270   5.895  12.616 -0.8615  0.2726 -3.5170
 2453TIP3   OH228773   3.067   5.459   1.336  0.4216 -0.1643  1.1359
 2453TIP3    H128774   3.162   5.461   1.333  0.4282 -0.1988  1.2930
 2453TIP3    H228775   3.040   5.442   1.246  0.6078 -1.6782  1.3523
 2454TIP3   OH228776   3.908   4.134   5.991  0.0114 -0.4943 -0.4445
 2454TIP3    H128777   3.918   4.121   6.085 -0.2912  0.3391 -0.2926
 2454TIP3    H228778   3.986   4.185   5.966 -0.9190  1.0399 -0.2758
 2455TIP3   OH228779   0.580   6.076  14.745  0.1947 -0.4403  0.5082
 2455TIP3    H128780   0.552   6.138  14.677  0.8534 -0.9838 -0.2754
 2455TIP3    H228781   0.512   6.009  14.746  1.6588 -2.0296 -1.7516
 2456TIP3   OH228782   0.168   5.751  14.911  0.8114 -0.0116  0.6479
 2456TIP3    H128783   0.125   5.743  14.825 -0.1576 -1.6846  1.2628
 2456TIP3    H228784   0.096   5.748  14.974  1.6170 -0.0276  1.5756
 2457TIP3   OH228785   0.569   5.412   6.470 -0.6346 -0.5007 -0.2659
 2457TIP3    H128786   0.623   5.489   6.451 -0.9551 -0.4425 -0.9521
 2457TIP3    H228787   0.631   5.347   6.502 -0.4762  0.3359  1.2237
 2458TIP3   OH228788   5.662   0.582   6.294 -0.0473 -0.1287 -0.2135
 2458TIP3    H128789   5.607   0.604   6.369  1.2297  0.1208  0.6669
 2458TIP3    H228790   5.605   0.531   6.236 -1.3076  0.4552  0.4932
 2459TIP3   OH228791   4.461   4.921   4.603 -0.5187 -0.3110  0.0239
 2459TIP3    H128792   4.384   4.965   4.567 -1.0331 -1.0088  0.2575
 2459TIP3    H228793   4.521   4.914   4.529 -1.0650 -0.6090 -0.4032
 2460TIP3   OH228794   4.925   1.749  13.197  0.5619  0.2108  0.6949
 2460TIP3    H128795   4.975   1.803  13.136  0.1408  0.3412  0.4608
 2460TIP3    H228796   4.835   1.755  13.166  0.3042  0.4709  1.4633
 2461TIP3   OH228797   2.972   6.425  14.471  0.3983 -0.1096  0.0156
 2461TIP3    H128798   3.004   6.372  14.544 -2.4960 -0.0875  1.3496
 2461TIP3    H228799   2.978   6.515  14.502  2.9260  0.2167 -1.3089
 2462TIP3   OH228800   3.859   6.422   2.195  0.7038  0.5396  0.9074
 2462TIP3    H128801   3.832   6.510   2.167  3.4284  1.3421  0.6834
 2462TIP3    H228802   3.789   6.365   2.164  0.0427  2.3522 -1.0551
 2463TIP3   OH228803   3.655   5.134   5.896  0.0370  0.5086  0.3470
 2463TIP3    H128804   3.570   5.105   5.927  0.4605 -2.4563 -1.0962
 2463TIP3    H228805   3.708   5.143   5.976 -0.8148 -0.4122  1.0268
 2464TIP3   OH228806   0.032   1.318   3.172 -0.6988  0.3707  0.4043
 2464TIP3    H128807   0.114   1.318   3.223  0.3427 -0.5464 -1.2240
 2464TIP3    H228808   0.040   1.395   3.115 -0.9661  0.2894  0.2582
 2465TIP3   OH228809   5.654   3.462   5.803 -0.2461 -0.6691 -0.0572
 2465TIP3    H128810   5.685   3.542   5.759  0.4770 -1.5372 -1.1514
 2465TIP3    H228811   5.644   3.398   5.732 -2.2316 -1.1357  0.6049
 2466TIP3   OH228812   2.064   2.369   5.305  0.3105 -0.2548 -0.1999
 2466TIP3    H128813   2.046   2.407   5.219  1.4805  2.1400  0.5863
 2466TIP3    H228814   2.150   2.403   5.330 -0.1634 -0.6118  2.0785
 2467TIP3   OH228815   0.861   5.304   0.056 -0.1553 -0.2792 -0.2707
 2467TIP3    H128816   0.914   5.236   0.014 -1.4207  1.1013 -4.2571
 2467TIP3    H228817   0.904   5.386   0.034 -1.6482  0.5763 -0.0761
 2468TIP3   OH228818   4.950   3.714  16.913  0.4762 -0.6587 -0.2914
 2468TIP3    H128819   4.887   3.689  16.980 -1.1289 -0.4886 -1.7024
 2468TIP3    H228820   4.955   3.637  16.855 -0.9593  0.5220 -2.0328
 2469TIP3   OH228821   2.625   5.348  11.368  0.3673  0.4262 -0.2093
 2469TIP3    H128822   2.585   5.434  11.361 -2.3719 -0.8467 -0.6580
 2469TIP3    H228823   2.627   5.315  11.278  0.5356 -0.3709  0.0818
 2470TIP3   OH228824   6.008   6.755  11.524 -0.1821  0.2200  0.3670
 2470TIP3    H128825   5.973   6.710  11.447 -0.6474 -0.0530  0.7376
 2470TIP3    H228826   5.992   6.695  11.597  1.0151  0.1072  0.5588
 2471TIP3   OH228827   1.950   3.142   1.683  0.0985 -0.1517 -0.8433
 2471TIP3    H128828   2.035   3.172   1.715  0.0120 -1.5723  0.7623
 2471TIP3    H228829   1.915   3.217   1.634  1.1731  1.3127  0.6055
 2472TIP3   OH228830   4.652   0.866  12.101  0.3116  0.2874 -0.6746
 2472TIP3    H128831   4.678   0.846  12.191  0.5276 -0.6502 -0.9324
 2472TIP3    H228832   4.565   0.827  12.093  0.2428  0.4759 -0.8363
 2473TIP3   OH228833   0.596   1.951   3.308 -0.0956  0.4298 -0.3201
 2473TIP3    H128834   0.591   1.860   3.278  0.1229 -0.5478  2.5026
 2473TIP3    H228835   0.670   1.988   3.258  1.0260 -1.4792 -0.1150
 2474TIP3   OH228836   2.129   1.377   4.176  0.2597  0.0894 -0.0137
 2474TIP3    H128837   2.188   1.422   4.236  0.7890  0.2030 -0.6150
 2474TIP3    H228838   2.061   1.340   4.233  1.7472 -1.3645  0.8767
 2475TIP3   OH228839   6.023   3.348   1.986  0.1627  0.2036 -0.2287
 2475TIP3    H128840   6.108   3.310   1.965  0.1752  0.4851 -0.6779
 2475TIP3    H228841   5.964   3.272   1.994  0.5035 -0.0047  0.3042
 2476TIP3   OH228842   6.618   5.235   0.684 -0.5614  0.3532 -0.3441
 2476TIP3    H128843   6.553   5.304   0.670 -1.5692 -0.4108  0.4091
 2476TIP3    H228844   6.676   5.240   0.609 -0.3783  2.2927 -0.0809
 2477TIP3   OH228845   5.235   2.116   6.262 -0.6008  0.3199  0.4319
 2477TIP3    H128846   5.283   2.172   6.324 -1.2494 -0.5175  1.7074
 2477TIP3    H228847   5.147   2.155   6.258 -0.2013  1.1327 -0.9742
 2478TIP3   OH228848   4.810   1.731   4.637  0.6974 -0.1188 -0.1898
 2478TIP3    H128849   4.860   1.812   4.631 -0.4939  0.5918 -0.5876
 2478TIP3    H228850   4.722   1.754   4.608  0.4800 -1.6709 -0.8161
 2479TIP3   OH228851   4.224   0.332   2.108 -1.2339  0.0842  0.6208
 2479TIP3    H128852   4.130   0.326   2.089 -1.2629 -1.8785  1.2373
 2479TIP3    H228853   4.261   0.375   2.031 -2.4451 -0.4976 -0.3102
 2480TIP3   OH228854   6.395   4.445   3.504 -0.3684 -0.4475  0.1098
 2480TIP3    H128855   6.457   4.437   3.431 -0.9203 -1.2438 -0.2692
 2480TIP3    H228856   6.325   4.383   3.483 -0.1923 -1.1685  1.6584
 2481TIP3   OH228857   2.077   2.727   3.004  0.1495 -0.4441 -0.4100
 2481TIP3    H128858   2.009   2.671   2.964 -1.1891  2.2683 -2.0730
 2481TIP3    H228859   2.032   2.769   3.077  0.6431 -0.2313 -0.2321
 2482TIP3   OH228860   0.672   6.298   3.583 -0.2491  0.5105  0.2882
 2482TIP3    H128861   0.587   6.317   3.622  0.0566 -0.0465  1.2288
 2482TIP3    H228862   0.659   6.217   3.533  0.5130 -1.4021  3.0823
 2483TIP3   OH228863   5.783   5.665  13.487  1.0376 -0.0532 -0.2000
 2483TIP3    H128864   5.783   5.621  13.402 -1.1001  0.4442 -0.4818
 2483TIP3    H228865   5.777   5.593  13.550 -1.3675 -0.2740 -0.6267
 2484TIP3   OH228866   2.473   2.356   5.071 -0.6032 -0.5446  0.2160
 2484TIP3    H128867   2.401   2.322   5.123  0.4160 -1.3383  1.1509
 2484TIP3    H228868   2.447   2.342   4.980 -1.2282 -1.6643  0.5631
 2485TIP3   OH228869   0.442   1.247  11.487 -0.5122  0.3713  0.2283
 2485TIP3    H128870   0.402   1.279  11.406 -1.0517  0.1840  0.4234
 2485TIP3    H228871   0.471   1.327  11.532  0.9690  0.4104 -0.7529
 2486TIP3   OH228872   3.821   6.381  13.752 -0.0354  0.0141 -0.0462
 2486TIP3    H128873   3.764   6.386  13.675 -1.2695  0.3992  0.8589
 2486TIP3    H228874   3.762   6.400  13.826  0.9746 -1.0610  1.0509
 2487TIP3   OH228875   2.340   2.771  14.574  0.5926 -0.5022  0.1512
 2487TIP3    H128876   2.312   2.849  14.525 -1.0002 -1.5856 -0.7160
 2487TIP3    H228877   2.267   2.710  14.565  1.4050 -1.7289  1.6686
 2488TIP3   OH228878   6.341   6.617   3.595  0.6715 -0.5273 -0.2159
 2488TIP3    H128879   6.434   6.594   3.598  0.5327 -1.1224 -0.5150
 2488TIP3    H228880   6.333   6.692   3.655  1.2978 -0.6324  0.0004
 2489TIP3   OH228881   1.435   0.065   1.330  0.3099 -0.6330 -0.0165
 2489TIP3    H128882   1.383   0.011   1.391  0.8743  0.6441  1.6500
 2489TIP3    H228883   1.371   0.098   1.268 -1.0346  1.3798  2.3496
 2490TIP3   OH228884   2.989   4.531   1.161  0.6325  0.4079 -0.5481
 2490TIP3    H128885   2.965   4.531   1.253  0.3112  0.6659 -0.6303
 2490TIP3    H228886   3.009   4.440   1.141  3.3116  0.7416  0.4431
 2491TIP3   OH228887   2.885   5.605  13.045 -0.3232 -0.3057 -0.1681
 2491TIP3    H128888   2.938   5.593  13.124 -1.2833  0.9858  0.6967
 2491TIP3    H228889   2.878   5.700  13.035  2.7596 -0.3597 -3.8735
 2492TIP3   OH228890   1.233   0.579   0.671  0.5841  0.1814 -0.1676
 2492TIP3    H128891   1.322   0.552   0.646  0.5327 -0.8791  0.7813
 2492TIP3    H228892   1.244   0.619   0.757 -0.3349 -3.2350  1.6411
 2493TIP3   OH228893   1.782   3.258  15.748  0.0027  0.0443 -0.0074
 2493TIP3    H128894   1.740   3.199  15.685  0.5147 -1.2514  0.8486
 2493TIP3    H228895   1.871   3.268  15.716 -0.1322  0.5088 -0.2465
 2494TIP3   OH228896   6.784   5.606   0.768 -0.0879 -0.1592 -0.3277
 2494TIP3    H128897   6.731   5.683   0.788  0.4537  0.4382 -1.1723
 2494TIP3    H228898   6.757   5.581   0.680 -0.4530 -1.1082  0.0380
 2495TIP3   OH228899   2.461   4.122  16.332 -0.1628  0.3123  0.1468
 2495TIP3    H128900   2.445   4.216  16.339  0.5594  0.4502  0.0571
 2495TIP3    H228901   2.555   4.115  16.315 -0.3547 -0.3902 -0.6723
 2496TIP3   OH228902   6.011   4.130  11.991 -0.5292 -0.3985  0.5540
 2496TIP3    H128903   6.068   4.179  12.050  1.2351 -0.8282 -0.7650
 2496TIP3    H228904   5.998   4.046  12.035  0.7570 -0.7098  0.3720
 2497TIP3   OH228905   4.853   0.171  15.400  0.0818 -0.0250  0.0109
 2497TIP3    H128906   4.811   0.159  15.315 -0.3015 -0.6601  0.2875
 2497TIP3    H228907   4.855   0.265  15.413 -0.8823  0.0205 -0.1903
 2498TIP3   OH228908   0.504   1.809   1.956  0.2677  0.2243 -0.5785
 2498TIP3    H128909   0.528   1.898   1.927 -0.5479  0.5808 -0.1729
 2498TIP3    H228910   0.435   1.782   1.896 -0.1218  0.2275 -0.1355
 2499TIP3   OH228911   1.589   1.978  15.108 -0.2936 -0.1194 -0.3920
 2499TIP3    H128912   1.597   1.957  15.201  1.9743  1.2725 -0.2349
 2499TIP3    H228913   1.517   2.041  15.103 -0.3596 -0.1317  0.4394
 2500TIP3   OH228914   3.217   0.955   3.081  0.7375  0.1161 -0.3420
 2500TIP3    H128915   3.284   1.023   3.089  0.9473 -0.0581 -0.5951
 2500TIP3    H228916   3.251   0.883   3.135 -0.9861  1.3594  2.5368
 2501TIP3   OH228917   2.581   2.801  11.349 -0.3280  0.3831 -0.0094
 2501TIP3    H128918   2.538   2.718  11.327 -0.3782  0.3612  0.1693
 2501TIP3    H228919   2.672   2.788  11.322  0.3703 -0.8522  2.8034
 2502TIP3   OH228920   4.676   1.864  12.456  0.1498  0.2139  0.4681
 2502TIP3    H128921   4.592   1.826  12.483 -0.3502 -0.4107 -1.8246
 2502TIP3    H228922   4.710   1.802  12.392  0.7969  2.1131 -1.0558
 2503TIP3   OH228923   3.995   4.956   0.704  0.5659  0.2740  1.0639
 2503TIP3    H128924   4.022   4.965   0.612  3.6000 -0.2870  1.8487
 2503TIP3    H228925   3.995   5.046   0.737 -0.3365  0.4586  0.5825
 2504TIP3   OH228926   4.685   3.395  13.243  0.4782  0.3711  0.3665
 2504TIP3    H128927   4.702   3.442  13.325  0.5731  0.4075  0.3266
 2504TIP3    H228928   4.772   3.380  13.206  0.3905  1.2642 -0.2375
 2505TIP3   OH228929   1.443   6.184   2.284 -0.4044 -0.1007 -0.4300
 2505TIP3    H128930   1.438   6.241   2.207 -0.8233 -0.0096 -0.3369
 2505TIP3    H228931   1.375   6.118   2.271 -0.3810 -0.1715 -0.2097
 2506TIP3   OH228932   1.825   3.646   3.468  0.0076  0.1524 -0.1089
 2506TIP3    H128933   1.789   3.688   3.546  0.5454  1.4015 -0.5072
 2506TIP3    H228934   1.865   3.565   3.499 -1.9648 -0.5995  0.5318
 2507TIP3   OH228935   4.427   2.890   1.520 -0.3032 -0.0183 -0.4443
 2507TIP3    H128936   4.486   2.927   1.455  1.4705 -2.3504 -0.2036
 2507TIP3    H228937   4.365   2.838   1.469  0.7733 -1.4269 -0.3420
 2508TIP3   OH228938   0.288   1.939  14.355  0.5648 -0.2539  0.0539
 2508TIP3    H128939   0.325   2.026  14.340 -1.3001  0.2294 -2.0529
 2508TIP3    H228940   0.195   1.954  14.368  0.2713 -1.8974  0.0137
 2509TIP3   OH228941   0.593   0.428  15.895  0.5579 -0.1078  0.2797
 2509TIP3    H128942   0.681   0.391  15.907  0.4748 -0.4067 -0.0600
 2509TIP3    H228943   0.548   0.409  15.978  0.2395 -1.5034 -0.1974
 2510TIP3   OH228944   4.403   1.207   5.671 -0.8721 -0.4910  0.1786
 2510TIP3    H128945   4.465   1.220   5.599 -1.8023  1.2210 -0.3256
 2510TIP3    H228946   4.374   1.295   5.695 -1.6367 -1.1412  1.7282
 2511TIP3   OH228947   5.615   0.907  10.951 -0.0821 -0.3300  0.3889
 2511TIP3    H128948   5.544   0.866  10.901 -0.0588  0.9410 -0.7154
 2511TIP3    H228949   5.671   0.947  10.884  0.0995  1.1495  1.4159
 2512TIP3   OH228950   2.231   4.680  16.635 -0.3103 -0.5746 -0.5138
 2512TIP3    H128951   2.231   4.769  16.670  0.9750 -0.1687 -1.5072
 2512TIP3    H228952   2.308   4.638  16.674  0.2297 -0.6151 -1.6020
 2513TIP3   OH228953   3.080   4.658  14.767 -0.5112 -0.5002  0.4891
 2513TIP3    H128954   3.033   4.638  14.685 -0.5112  0.5679  0.2120
 2513TIP3    H228955   3.046   4.595  14.830 -0.7010 -1.1752 -0.2765
 2514TIP3   OH228956   4.757   1.038   3.836 -0.3586  0.5464 -0.1266
 2514TIP3    H128957   4.836   0.992   3.810 -0.5241 -0.6509  1.4490
 2514TIP3    H228958   4.697   1.026   3.762 -0.2971 -1.5206  0.1562
 2515TIP3   OH228959   6.379   0.328   2.510 -0.5340  0.4740  0.5040
 2515TIP3    H128960   6.355   0.409   2.464 -0.4291  0.3690  0.2663
 2515TIP3    H228961   6.364   0.259   2.446 -2.4435  0.1099  1.3159
 2516TIP3   OH228962   1.521   5.042   0.021 -0.4865 -0.7292 -0.2729
 2516TIP3    H128963   1.583   5.041   0.094  0.3667  0.8972 -0.9741
 2516TIP3    H228964   1.573   5.016  -0.055 -1.0169 -0.8158 -0.6093
 2517TIP3   OH228965   6.757   1.589   0.680 -0.5235 -0.3450 -0.4015
 2517TIP3    H128966   6.848   1.617   0.675  0.0998 -1.6435  2.5979
 2517TIP3    H228967   6.727   1.587   0.588  2.0302  1.3723 -1.3152
 2518TIP3   OH228968   4.279   2.089   6.629 -0.4691  0.5579  0.4291
 2518TIP3    H128969   4.312   2.006   6.663 -0.6804  0.3872  0.2161
 2518TIP3    H228970   4.184   2.084   6.640 -0.6469  0.0093 -1.3038
 2519TIP3   OH228971   1.179   1.378  16.984 -0.1293  0.0051 -0.0195
 2519TIP3    H128972   1.091   1.386  17.020 -0.8059 -2.3978 -1.0671
 2519TIP3    H228973   1.198   1.464  16.947 -2.6542  0.0840 -1.2123
 2520TIP3   OH228974   5.152   4.826   2.707 -0.0274  0.5141  0.0626
 2520TIP3    H128975   5.090   4.814   2.779 -0.1315  1.3956  0.1267
 2520TIP3    H228976   5.229   4.865   2.749 -0.1662  1.2227 -0.3263
 2521TIP3   OH228977   0.698   2.034  14.190 -0.6816 -0.3211  0.0293
 2521TIP3    H128978   0.778   1.983  14.202  0.7312  2.0778  1.1431
 2521TIP3    H228979   0.663   2.004  14.106  2.4536 -0.0318 -1.4433
 2522TIP3   OH228980   4.099   1.125  12.593  1.0955  0.1410  0.3599
 2522TIP3    H128981   4.095   1.056  12.527  1.4587  0.2796  0.1889
 2522TIP3    H228982   4.036   1.098  12.660  1.0489 -0.2251  0.1720
 2523TIP3   OH228983   5.585   4.896  11.010  0.0911  0.5144 -0.0936
 2523TIP3    H128984   5.547   4.980  10.983  0.1577  1.0941  1.5157
 2523TIP3    H228985   5.628   4.916  11.093 -0.8401 -1.3574  0.8627
 2524TIP3   OH228986   5.374   0.691   4.336 -0.2066  0.3080  0.0459
 2524TIP3    H128987   5.440   0.731   4.280 -1.0887  0.0007 -1.2374
 2524TIP3    H228988   5.422   0.628   4.390  0.8832  1.6887  0.7139
 2525TIP3   OH228989   0.966   3.541  11.573 -0.3158  0.0524  0.0693
 2525TIP3    H128990   1.038   3.574  11.520 -0.4331  0.0943 -0.0649
 2525TIP3    H228991   1.002   3.534  11.661 -0.4857  1.2021  0.2381
 2526TIP3   OH228992   4.505   1.458  16.415  0.0256  0.1330 -0.0304
 2526TIP3    H128993   4.462   1.489  16.335 -1.4636 -0.2099  0.6207
 2526TIP3    H228994   4.595   1.441  16.388 -0.1147  1.2965 -1.3211
 2527TIP3   OH228995   5.816   5.241   2.874  0.0469  0.4223 -0.1162
 2527TIP3    H128996   5.747   5.227   2.939  0.4856  0.2395  0.3093
 2527TIP3    H228997   5.891   5.192   2.907  0.5235  0.9925 -0.3522
 2528TIP3   OH228998   2.247   5.522  14.090  0.1614 -0.1358  0.0622
 2528TIP3    H128999   2.236   5.562  14.176  1.8129  1.1407 -0.3070
 2528TIP3    H229000   2.282   5.592  14.035 -1.5841 -0.7399 -1.8441
 2529TIP3   OH229001   4.597   6.007  12.737 -0.4833  0.2431 -0.2703
 2529TIP3    H129002   4.616   5.938  12.800 -1.1651 -0.3798 -0.7362
 2529TIP3    H229003   4.682   6.045  12.715 -0.0555 -0.8006 -0.4134
 2530TIP3   OH229004   0.231   3.740  12.662 -0.6540 -0.6557  0.2858
 2530TIP3    H129005   0.313   3.690  12.666 -0.3801 -0.2433 -0.1343
 2530TIP3    H229006   0.170   3.690  12.716 -0.2098 -1.1267  0.3555
 2531TIP3   OH229007   4.397   2.165  11.506 -0.2451 -0.0516  0.0235
 2531TIP3    H129008   4.308   2.132  11.520  0.0767 -0.5036  1.0788
 2531TIP3    H229009   4.426   2.193  11.592 -0.6885  3.5184 -0.9302
 2532TIP3   OH229010   4.681   2.682   5.652  0.0962  0.6709  0.2986
 2532TIP3    H129011   4.626   2.631   5.712  2.0430 -1.3048  0.4476
 2532TIP3    H229012   4.767   2.641   5.657  1.0068  2.2398 -1.7304
 2533TIP3   OH229013   1.661   6.166   1.445  0.3976  0.1464 -0.1531
 2533TIP3    H129014   1.565   6.160   1.451  0.5147 -2.4705 -0.2391
 2533TIP3    H229015   1.680   6.152   1.353  0.8299  1.4545 -0.2678
 2534TIP3   OH229016   0.811   5.262   6.489 -0.2373  0.0508  0.5937
 2534TIP3    H129017   0.876   5.228   6.428 -0.8771 -2.6343  1.3553
 2534TIP3    H229018   0.856   5.333   6.535  0.7299  1.1015 -1.9072
 2535TIP3   OH229019   6.498   3.403  13.235  0.1687 -0.2555  0.1157
 2535TIP3    H129020   6.552   3.340  13.188 -0.5934 -0.6820 -0.2061
 2535TIP3    H229021   6.507   3.484  13.185 -0.2782 -0.5876 -0.5064
 2536TIP3   OH229022   6.389   5.603   5.698  0.4951  0.1055  1.1317
 2536TIP3    H129023   6.302   5.641   5.712 -0.6520 -2.0971  0.1732
 2536TIP3    H229024   6.400   5.603   5.603  0.7376 -1.4103  1.1606
 2537TIP3   OH229025   6.272   1.030   4.858 -0.6756  0.3949  0.1974
 2537TIP3    H129026   6.361   1.043   4.827 -0.7424 -0.7678 -0.5120
 2537TIP3    H229027   6.231   1.116   4.851  0.8955  1.3275  2.2160
 2538TIP3   OH229028   5.044   5.745   3.837  0.5837 -0.5724 -0.1928
 2538TIP3    H129029   5.014   5.715   3.752  2.0189 -1.1884 -0.5024
 2538TIP3    H229030   5.047   5.666   3.891  0.2404 -0.2822  0.2533
 2539TIP3   OH229031   2.653   4.727   4.928 -0.1049 -0.3511  0.1375
 2539TIP3    H129032   2.621   4.650   4.882 -0.6348  0.0800 -0.2227
 2539TIP3    H229033   2.695   4.692   5.007 -0.5379 -0.9921  0.0888
 2540TIP3   OH229034   1.608   5.435   2.159 -0.0135  0.1662  0.0609
 2540TIP3    H129035   1.575   5.516   2.198 -0.1170 -0.0372  0.4091
 2540TIP3    H229036   1.703   5.441   2.166 -0.0321  0.1313  0.3528
 2541TIP3   OH229037   0.665   0.332   0.149  0.4443 -0.1533  0.5263
 2541TIP3    H129038   0.663   0.401   0.215 -0.4630 -0.2488  0.6029
 2541TIP3    H229039   0.588   0.348   0.095  0.2411 -1.0853  0.5328
 2542TIP3   OH229040   3.897   3.995  16.538  0.3139 -1.4338  0.0019
 2542TIP3    H129041   3.878   3.951  16.455 -0.5902 -2.1597  0.5824
 2542TIP3    H229042   3.826   4.059  16.548  0.3653 -1.4178  0.2642
 2543TIP3   OH229043   4.794   0.726  12.604  0.1612  0.0674 -0.5521
 2543TIP3    H129044   4.868   0.669  12.623 -0.8370 -1.3261 -0.8049
 2543TIP3    H229045   4.791   0.788  12.678  2.5288  1.1466 -1.3359
 2544TIP3   OH229046   4.213   0.577  12.992 -0.2595  0.5681 -0.0118
 2544TIP3    H129047   4.172   0.663  12.980  2.1009  2.0587  1.9968
 2544TIP3    H229048   4.266   0.565  12.913  0.3531  1.5354  0.2436
 2545TIP3   OH229049   2.508   1.092  17.041  0.3523  1.0078 -0.0860
 2545TIP3    H129050   2.582   1.052  17.087 -0.4844 -0.0322  0.3981
 2545TIP3    H229051   2.495   1.176  17.085  0.6467  0.7758  0.4553
 2546TIP3   OH229052   5.225   3.626   6.079  0.1318 -0.3230 -0.2547
 2546TIP3    H129053   5.232   3.560   6.148  0.1249 -1.8511 -1.6709
 2546TIP3    H229054   5.309   3.622   6.033 -0.7550 -1.1176 -1.8733
 2547TIP3   OH229055   5.464   1.536   3.482  0.0690  0.0208  0.5270
 2547TIP3    H129056   5.435   1.591   3.410 -0.3992  0.3460  0.9600
 2547TIP3    H229057   5.465   1.448   3.446 -2.5835 -0.1621  0.8265
 2548TIP3   OH229058   1.203   4.753   2.986 -0.5398  0.5439 -0.1531
 2548TIP3    H129059   1.202   4.721   3.076  1.4576 -0.1733 -0.3733
 2548TIP3    H229060   1.238   4.681   2.935  0.0559  1.5891 -1.2498
 2549TIP3   OH229061   5.022   1.358   0.877 -0.2827 -0.2595  0.1609
 2549TIP3    H129062   5.113   1.331   0.862 -0.7890 -1.9148 -0.0245
 2549TIP3    H229063   5.009   1.433   0.820  0.4531 -1.0829 -1.1015
 2550TIP3   OH229064   3.277   5.107   0.223 -0.2443 -0.4809  0.0735
 2550TIP3    H129065   3.349   5.137   0.278  1.3756 -2.1645 -1.0446
 2550TIP3    H229066   3.226   5.049   0.280 -0.5002  0.4048  0.7563
 2551TIP3   OH229067   5.699   5.708  14.284 -0.3202  0.2556  0.2839
 2551TIP3    H129068   5.675   5.787  14.332 -0.0443 -0.5676  1.7798
 2551TIP3    H229069   5.786   5.727  14.248 -0.0467  0.4642  1.0412
 2552TIP3   OH229070   5.684   3.876   3.857  0.2339  0.1587  0.3286
 2552TIP3    H129071   5.642   3.895   3.773 -1.5632 -1.0004  0.9311
 2552TIP3    H229072   5.631   3.924   3.921  1.2387  0.5615  0.8628
 2553TIP3   OH229073   6.289   5.471   5.184 -0.0733 -0.1029  0.0355
 2553TIP3    H129074   6.272   5.530   5.110  0.5308  0.4724  0.3567
 2553TIP3    H229075   6.351   5.408   5.149 -0.7638 -0.5990 -0.3269
 2554TIP3   OH229076   2.366   2.032   5.090 -0.2515 -0.2228 -0.5014
 2554TIP3    H129077   2.297   1.973   5.118 -0.1253 -0.5677 -0.9025
 2554TIP3    H229078   2.374   2.096   5.160  0.8409 -1.7250  0.7830
 2555TIP3   OH229079   2.945   3.481   1.824 -0.6072  0.4799 -0.2422
 2555TIP3    H129080   2.981   3.426   1.755 -0.6948 -0.8965  0.7917
 2555TIP3    H229081   2.935   3.567   1.784  0.6572  0.0367 -1.5254
 2556TIP3   OH229082   4.115   5.809  10.121  0.5336  0.2070 -0.3497
 2556TIP3    H129083   4.062   5.782  10.196 -0.0356  1.4555 -0.2907
 2556TIP3    H229084   4.110   5.905  10.122  2.7111  0.3529 -0.3902
 2557TIP3   OH229085   3.073   0.003  12.004 -0.4478 -0.0865 -0.2889
 2557TIP3    H129086   3.059  -0.089  11.979  0.3534 -0.7852  1.6869
 2557TIP3    H229087   3.083  -0.000  12.100 -4.8813  2.6067  0.3913
 2558TIP3   OH229088   4.343   5.465   1.152  0.4085  0.3338  0.4059
 2558TIP3    H129089   4.296   5.382   1.153  0.7557  0.1356  1.8434
 2558TIP3    H229090   4.314   5.509   1.072 -0.4764 -0.7676  0.1183
 2559TIP3   OH229091   6.274   5.706   6.310  0.0570  0.0065  0.2634
 2559TIP3    H129092   6.266   5.774   6.377 -0.6048  0.5007 -0.3094
 2559TIP3    H229093   6.299   5.754   6.230 -0.5974 -0.4007 -0.1887
 2560TIP3   OH229094   2.231   3.766   4.074 -0.0579  0.1083 -0.0188
 2560TIP3    H129095   2.213   3.809   3.991  0.4357 -0.3833 -0.3841
 2560TIP3    H229096   2.159   3.792   4.131 -0.9641 -0.4337 -0.9199
 2561TIP3   OH229097   2.223   4.768   2.362  0.2468  0.6890  0.5823
 2561TIP3    H129098   2.253   4.781   2.272 -0.3714 -0.6044  0.1843
 2561TIP3    H229099   2.146   4.712   2.354 -0.8597  2.0005  1.7879
 2562TIP3   OH229100   0.430   3.105   6.573  0.2395  0.9300 -0.1478
 2562TIP3    H129101   0.475   3.054   6.506 -0.3307 -1.0117  0.9070
 2562TIP3    H229102   0.495   3.167   6.605  2.0584 -1.5211  1.0245
 2563TIP3   OH229103   2.856   4.023   1.239  0.2841 -0.2857  0.2188
 2563TIP3    H129104   2.918   3.977   1.295 -0.2730  0.8250  1.7559
 2563TIP3    H229105   2.795   3.955   1.211  0.0929 -0.6892  1.6006
 2564TIP3   OH229106   5.414   2.129  12.029  0.0795  0.3996 -0.4554
 2564TIP3    H129107   5.465   2.193  12.078  0.0695  0.0162  0.0589
 2564TIP3    H229108   5.390   2.062  12.093  2.1482 -1.3834 -1.4937
 2565TIP3   OH229109   3.252   0.228  13.630 -0.4194 -0.0288  0.1995
 2565TIP3    H129110   3.215   0.315  13.639  0.4980  0.2705  1.0948
 2565TIP3    H229111   3.253   0.192  13.719  1.1272 -0.1566  0.1385
 2566TIP3   OH229112   1.799   4.849  17.002  0.1435  0.2102  0.2923
 2566TIP3    H129113   1.769   4.938  17.021 -1.6379 -0.7600  2.2644
 2566TIP3    H229114   1.796   4.843  16.906  0.0426  2.1855  0.1452
 2567TIP3   OH229115   1.775   4.219  16.911 -0.4667  0.9209  0.1610
 2567TIP3    H129116   1.743   4.224  16.821  1.8207 -0.7065 -0.7770
 2567TIP3    H229117   1.844   4.284  16.916  0.3566  0.0509  0.3121
 2568TIP3   OH229118   4.118   4.098  11.333  1.0287 -0.5151  0.5470
 2568TIP3    H129119   4.089   4.021  11.282  0.7918 -0.0557 -0.0189
 2568TIP3    H229120   4.063   4.169  11.301  0.9184 -0.2081  1.4168
 2569TIP3   OH229121   5.784   2.667  12.048 -0.4539  0.6709 -0.6686
 2569TIP3    H129122   5.744   2.697  12.130  3.2587  0.6624  1.2138
 2569TIP3    H229123   5.829   2.586  12.071  0.7384  0.7179 -2.6871
 2570TIP3   OH229124   4.067   3.075   3.260  0.0218 -0.2435 -0.4328
 2570TIP3    H129125   4.087   3.047   3.350 -0.1526 -1.3246 -0.7194
 2570TIP3    H229126   4.148   3.058   3.212  0.1200  0.3522 -0.4786
 2571TIP3   OH229127   1.835   5.164  15.003 -0.1660  0.1233  0.1548
 2571TIP3    H129128   1.803   5.213  15.079  1.4645  1.3030  0.1049
 2571TIP3    H229129   1.835   5.073  15.031  0.9884  0.6085  1.7930
 2572TIP3   OH229130   0.100   6.704  14.773 -0.8732 -0.5417  0.6126
 2572TIP3    H129131   0.026   6.653  14.742 -0.3999 -0.4666 -0.6776
 2572TIP3    H229132   0.090   6.790  14.731  0.4106 -0.8082 -0.2747
 2573TIP3   OH229133   1.575   2.641   3.584  0.5607 -1.0728 -0.1594
 2573TIP3    H129134   1.548   2.660   3.674 -1.2195  3.4598 -1.5070
 2573TIP3    H229135   1.666   2.673   3.579  0.6004 -1.1633 -0.0234
 2574TIP3   OH229136   0.261   4.347  12.641  0.4321 -0.2693 -0.3159
 2574TIP3    H129137   0.324   4.346  12.569  1.8969  1.1711  0.9166
 2574TIP3    H229138   0.305   4.300  12.712 -0.9987 -1.6746 -0.3224
 2575TIP3   OH229139   6.639   4.416   5.403 -0.3129 -0.3426 -0.4101
 2575TIP3    H129140   6.610   4.486   5.345  0.0413 -0.6122 -0.9148
 2575TIP3    H229141   6.562   4.361   5.415 -0.4743 -0.1097 -0.3558
 2576TIP3   OH229142   3.358   0.647  13.987  0.5388  0.1843  0.0025
 2576TIP3    H129143   3.314   0.570  13.950 -1.1648  1.8333 -1.4902
 2576TIP3    H229144   3.449   0.619  13.999  0.2271 -1.6765 -1.7004
 2577TIP3   OH229145   1.932   2.400  12.856  0.0103  0.7744  0.5248
 2577TIP3    H129146   1.999   2.450  12.810 -1.3612  1.3066 -0.9425
 2577TIP3    H229147   1.852   2.417  12.807 -0.7180 -1.8709  0.7624
 2578TIP3   OH229148   2.782   1.961  11.817  0.4426  0.1230  0.4631
 2578TIP3    H129149   2.789   1.985  11.909  0.6420 -0.9469  0.7278
 2578TIP3    H229150   2.847   2.016  11.772 -1.0547  2.1218  0.6670
 2579TIP3   OH229151   2.755   5.319  12.641 -0.2208  0.3407 -0.0267
 2579TIP3    H129152   2.785   5.281  12.723  1.7982 -0.5773 -1.1665
 2579TIP3    H229153   2.693   5.255  12.606  0.9454 -0.5281 -0.5147
 2580TIP3   OH229154   2.418   5.253   5.718  0.2570 -0.1406  0.8557
 2580TIP3    H129155   2.435   5.329   5.774 -1.0749  0.4562  0.4991
 2580TIP3    H229156   2.504   5.226   5.686  0.6332  2.0024 -0.0037
 2581TIP3   OH229157   4.145   4.500   0.070  0.4038 -0.1425 -0.0203
 2581TIP3    H129158   4.104   4.531  -0.010 -0.1815  0.1218  0.3800
 2581TIP3    H229159   4.120   4.564   0.137  1.7419  0.2192  0.1592
 2582TIP3   OH229160   6.485   2.145  12.552 -0.3527  0.5836 -0.2510
 2582TIP3    H129161   6.518   2.059  12.581 -0.7005  0.5629  0.0778
 2582TIP3    H229162   6.431   2.125  12.476 -0.2236  0.5384 -0.3317
 2583TIP3   OH229163   0.183   4.320   4.511  0.2515  0.3377  0.2148
 2583TIP3    H129164   0.160   4.363   4.429  2.3704 -0.8253 -1.0249
 2583TIP3    H229165   0.208   4.231   4.486  1.7289  0.2058  1.9923
 2584TIP3   OH229166   2.767   3.039  11.406  0.3776 -0.5509 -0.0381
 2584TIP3    H129167   2.675   3.013  11.414 -0.5480  1.8632 -2.1696
 2584TIP3    H229168   2.814   2.956  11.398 -1.8954 -1.7861 -1.3050
 2585TIP3   OH229169   5.062   2.244  12.823  0.3510 -0.1045  0.5935
 2585TIP3    H129170   5.023   2.329  12.840  1.5308  0.8944 -1.5707
 2585TIP3    H229171   5.087   2.212  12.910  1.5571  2.5753  1.2936
 2586TIP3   OH229172   5.124   0.202   6.671  0.1691 -0.3439  0.0439
 2586TIP3    H129173   5.078   0.135   6.620  1.3318 -0.5970 -0.6976
 2586TIP3    H229174   5.203   0.158   6.703 -0.3897 -0.0879  1.8095
 2587TIP3   OH229175   1.282   0.635  16.700 -0.5047 -0.0768  0.5077
 2587TIP3    H129176   1.291   0.729  16.716 -0.7321  0.5326 -2.5525
 2587TIP3    H229177   1.196   0.626  16.658 -0.0836 -1.5281 -0.0660
 2588TIP3   OH229178   0.516   1.825   2.771  0.3152  0.5551 -0.5473
 2588TIP3    H129179   0.463   1.862   2.842  1.8729  2.0843 -0.1462
 2588TIP3    H229180   0.514   1.730   2.786 -2.4168  0.5719 -0.6458
 2589TIP3   OH229181   0.414   6.159   0.635  0.1520  0.0733 -0.2677
 2589TIP3    H129182   0.330   6.119   0.657 -0.4374  1.1312 -0.5658
 2589TIP3    H229183   0.468   6.086   0.605 -0.3391 -0.7686  0.8345
 2590TIP3   OH229184   3.567   5.421   1.988  0.3388  0.7214  0.0422
 2590TIP3    H129185   3.511   5.367   2.043  0.6981  0.1289 -0.1731
 2590TIP3    H229186   3.508   5.458   1.922  0.2910 -0.3149 -0.4943
 2591TIP3   OH229187   5.975   5.617   5.483 -0.1181 -0.5406 -0.2773
 2591TIP3    H129188   6.058   5.661   5.502 -1.1040  1.6099 -0.7996
 2591TIP3    H229189   5.923   5.630   5.563 -1.3244  1.4765 -1.3507
 2592TIP3   OH229190   1.856   1.536   5.722 -0.3210  0.5550  1.1136
 2592TIP3    H129191   1.790   1.481   5.764  0.1976 -0.6579  0.3524
 2592TIP3    H229192   1.917   1.559   5.792  0.1386 -0.8544  1.1937
 2593TIP3   OH229193   3.831   2.230  12.080  0.1608 -0.0086 -0.1322
 2593TIP3    H129194   3.784   2.280  12.013  2.2235  2.2542  0.0396
 2593TIP3    H229195   3.904   2.190  12.033  0.1961 -0.4692  0.3078
 2594TIP3   OH229196   3.653   4.781   1.083  0.1381 -0.3048 -0.9499
 2594TIP3    H129197   3.723   4.846   1.094 -0.6163  0.3246  0.1566
 2594TIP3    H229198   3.596   4.818   1.017  0.2049 -0.2639 -0.9849
 2595TIP3   OH229199   4.132   4.889   4.185 -0.4224  0.3237  0.2777
 2595TIP3    H129200   4.054   4.919   4.139  0.0265  0.7935 -0.1835
 2595TIP3    H229201   4.102   4.815   4.239 -0.6584 -1.2253 -1.9115
 2596TIP3   OH229202   1.028   4.146  13.665 -0.0789  0.1038  0.8706
 2596TIP3    H129203   1.006   4.054  13.682  0.1691  0.1624  1.5048
 2596TIP3    H229204   1.100   4.165  13.725 -0.8979  1.0600  1.5588
 2597TIP3   OH229205   2.943   0.165  12.787  0.6434  0.3335 -0.4089
 2597TIP3    H129206   2.917   0.116  12.865 -0.1199  0.7774 -0.3798
 2597TIP3    H229207   3.030   0.200  12.809  0.3432  0.6381  0.3251
 2598TIP3   OH229208   3.122   6.287   3.431  0.1832  0.2760 -0.6736
 2598TIP3    H129209   3.169   6.342   3.495 -0.2337 -1.7401  1.4523
 2598TIP3    H229210   3.170   6.299   3.349  1.1770  2.3922  0.1796
 2599TIP3   OH229211   6.174   2.217  15.957  0.2706  0.4527  0.4241
 2599TIP3    H129212   6.190   2.137  16.007 -0.5911  1.3424  2.1792
 2599TIP3    H229213   6.239   2.279  15.990  0.1124  0.8503 -0.0170
 2600TIP3   OH229214   0.455   2.973   2.828 -0.3462  0.1521  0.2933
 2600TIP3    H129215   0.470   3.063   2.800  0.9221  0.2633  1.3077
 2600TIP3    H229216   0.541   2.931   2.823 -0.8263 -0.8574  0.3553
 2601TIP3   OH229217   4.859   4.372   1.518  0.5157  0.0963  0.6043
 2601TIP3    H129218   4.882   4.376   1.611  3.1165 -0.7231  0.0488
 2601TIP3    H229219   4.827   4.284   1.505 -1.1430  0.6309  0.9820
 2602TIP3   OH229220   0.805   1.736  15.670 -0.1536 -0.3178 -0.0339
 2602TIP3    H129221   0.712   1.727  15.692 -0.2773 -0.6190 -0.6628
 2602TIP3    H229222   0.815   1.686  15.589  0.9457 -1.8704  1.0219
 2603TIP3   OH229223   1.518   0.198  12.812 -0.2401 -0.2408  0.2369
 2603TIP3    H129224   1.448   0.230  12.868  0.7814  1.7274  0.4519
 2603TIP3    H229225   1.545   0.275  12.762 -0.2641 -1.6726 -2.0348
 2604TIP3   OH229226   1.824   5.496  15.244  0.0301 -0.1317  0.7061
 2604TIP3    H129227   1.759   5.565  15.255  1.5683  1.1560  2.1118
 2604TIP3    H229228   1.883   5.507  15.319  1.2097 -1.9737  0.0862
 2605TIP3   OH229229   3.702   4.464  10.790 -1.0727  0.1229  0.5451
 2605TIP3    H129230   3.685   4.545  10.839  1.4598  0.2556  1.2720
 2605TIP3    H229231   3.782   4.482  10.741 -0.3530 -2.0231  0.9072
 2606TIP3   OH229232   5.922   3.761  14.669 -0.7567 -0.5622 -0.3510
 2606TIP3    H129233   5.919   3.727  14.759 -0.0796 -0.9056 -0.4536
 2606TIP3    H229234   5.964   3.691  14.619 -0.7074 -0.1761 -0.8470
 2607TIP3   OH229235   4.383   0.641  16.233  0.6232 -0.2542  0.7097
 2607TIP3    H129236   4.361   0.654  16.326 -2.9459 -0.8476  0.0411
 2607TIP3    H229237   4.319   0.577  16.203  0.4695  1.4032 -2.6363
 2608TIP3   OH229238   6.093   5.491   3.751  0.0332  0.5605  0.4404
 2608TIP3    H129239   6.075   5.582   3.727  0.3509  1.0605  2.0059
 2608TIP3    H229240   6.041   5.477   3.831  0.4141 -0.4572  0.5213
 2609TIP3   OH229241   2.422   4.332   4.839 -0.2298 -0.3503  0.0637
 2609TIP3    H129242   2.350   4.274   4.813 -0.1931 -0.7516  0.8490
 2609TIP3    H229243   2.442   4.306   4.929  0.8062 -0.1384 -0.1080
 2610TIP3   OH229244   2.012   0.069  17.185  0.2475  0.6414  0.4948
 2610TIP3    H129245   2.014   0.153  17.139  1.7527 -0.0144 -0.7013
 2610TIP3    H229246   2.103   0.055  17.212 -0.3259  0.2358  2.2636
 2611TIP3   OH229247   3.893   1.845  16.701 -0.5081 -0.1980 -0.3684
 2611TIP3    H129248   3.963   1.850  16.767 -1.3181 -0.4257  0.5183
 2611TIP3    H229249   3.895   1.754  16.671 -2.1155 -0.8979  1.5458
 2612TIP3   OH229250   2.632   6.710   0.877  0.0142  0.6256 -0.3989
 2612TIP3    H129251   2.614   6.638   0.816  0.3416  0.6163 -0.4875
 2612TIP3    H229252   2.728   6.720   0.874  0.1623 -0.1752  1.0260
 2613TIP3   OH229253   6.373   5.200   4.655 -0.2009  0.1761  0.0645
 2613TIP3    H129254   6.466   5.177   4.656 -0.0279  0.8671  0.3897
 2613TIP3    H229255   6.342   5.167   4.571  0.2011 -0.5906  0.2161
 2614TIP3   OH229256   4.984   4.998   4.178  0.1591 -0.3210 -0.6861
 2614TIP3    H129257   4.917   5.044   4.128  0.3513 -0.0850 -0.7254
 2614TIP3    H229258   5.006   5.058   4.249  0.1851 -0.4827 -0.5570
 2615TIP3   OH229259   5.069   6.459  17.187  0.2075  0.6179 -0.4999
 2615TIP3    H129260   5.014   6.396  17.141  1.3748 -0.6821 -0.1676
 2615TIP3    H229261   5.157   6.441  17.156  0.5526  2.1623 -0.4546
 2616TIP3   OH229262   5.623   3.103   0.730 -0.5880 -0.0770  0.2625
 2616TIP3    H129263   5.676   3.120   0.652  0.2286  0.1976  0.8718
 2616TIP3    H229264   5.681   3.053   0.788 -1.4393 -0.9466  0.3915
 2617TIP3   OH229265   0.362   2.079   2.867  0.0994  0.6685 -0.6043
 2617TIP3    H129266   0.400   2.145   2.924 -0.2900  1.2125 -0.9773
 2617TIP3    H229267   0.335   2.009   2.926 -0.2854  1.2212 -0.1265
 2618TIP3   OH229268   1.004   1.737   5.970  0.3581  0.0491  0.8145
 2618TIP3    H129269   1.064   1.697   5.908  1.3215  0.2836  1.5719
 2618TIP3    H229270   1.018   1.689   6.052  0.8046  1.2425  1.4637
 2619TIP3   OH229271   5.535   1.495  13.336  0.6961  0.2377 -0.6116
 2619TIP3    H129272   5.592   1.426  13.370 -0.7902 -0.1292  1.2645
 2619TIP3    H229273   5.531   1.560  13.407 -1.7158 -0.0778 -0.4167
 2620TIP3   OH229274   4.617   6.635  16.540  0.0730  0.0579  0.1463
 2620TIP3    H129275   4.568   6.553  16.536  1.4758 -0.7995  0.2995
 2620TIP3    H229276   4.625   6.655  16.633  2.5888 -1.3881  0.2647
 2621TIP3   OH229277   6.523   1.566   3.616 -0.0638 -0.2856 -0.1286
 2621TIP3    H129278   6.587   1.506   3.576 -0.3753  0.5335 -1.9283
 2621TIP3    H229279   6.577   1.628   3.665  0.6559  0.9268 -2.3425
 2622TIP3   OH229280   3.017   1.831  11.370  0.0628  0.6350 -0.0603
 2622TIP3    H129281   2.933   1.804  11.408 -0.8979  2.2193 -0.9716
 2622TIP3    H229282   2.995   1.906  11.315  2.1733  1.3929  0.0825
 2623TIP3   OH229283   5.779   3.248  12.459 -0.6153 -0.4560  0.5878
 2623TIP3    H129284   5.819   3.164  12.438 -1.6292 -1.2197  1.5920
 2623TIP3    H229285   5.848   3.297  12.503 -0.2091 -1.0302  0.5979
 2624TIP3   OH229286   3.159   3.654  11.903  0.0804  0.0617 -0.0943
 2624TIP3    H129287   3.233   3.596  11.923 -0.6373 -0.9900 -0.4261
 2624TIP3    H229288   3.101   3.600  11.849 -0.6332  1.0811 -0.3502
 2625TIP3   OH229289   2.774   3.647   2.142 -0.5423 -0.6497  0.1781
 2625TIP3    H129290   2.788   3.566   2.192 -1.3061 -0.2717  1.0095
 2625TIP3    H229291   2.716   3.699   2.197  1.4569  1.2838  0.5226
 2626TIP3   OH229292   1.278   2.528   2.977 -0.7829 -0.3110 -0.5404
 2626TIP3    H129293   1.295   2.500   3.067  0.4571  2.8761  0.2593
 2626TIP3    H229294   1.353   2.495   2.927 -0.8887 -1.0615 -0.2168
 2627TIP3   OH229295   4.408   3.976   6.502 -0.3246 -0.6875 -0.3479
 2627TIP3    H129296   4.474   4.020   6.448  0.1869 -0.9553  0.0527
 2627TIP3    H229297   4.384   4.040   6.568 -0.0226 -0.8022 -0.1282
 2628TIP3   OH229298   5.981   3.400  13.434  0.4024 -0.1313 -0.2127
 2628TIP3    H129299   6.052   3.381  13.372 -0.5287 -0.2207 -1.2691
 2628TIP3    H229300   5.907   3.424  13.378 -0.7807 -1.3023  0.8156
 2629TIP3   OH229301   0.340   5.992  14.156  0.4477 -0.0462  0.7288
 2629TIP3    H129302   0.281   5.966  14.085 -0.5968  0.1562  1.5063
 2629TIP3    H229303   0.362   5.910  14.200  1.4388 -0.2213 -0.0879
 2630TIP3   OH229304   4.154   5.875   1.347  0.4461  0.1612 -0.5992
 2630TIP3    H129305   4.079   5.865   1.288  0.6940  0.0392 -0.9006
 2630TIP3    H229306   4.182   5.785   1.366  0.1000  0.1939  0.0529
 2631TIP3   OH229307   0.228   3.025  13.888  0.0561 -0.0325  0.0800
 2631TIP3    H129308   0.251   2.952  13.830  0.8824 -0.4319  0.8951
 2631TIP3    H229309   0.240   2.989  13.976  0.8009  1.2074  0.4878
 2632TIP3   OH229310   1.117   5.645   1.472  0.5997  0.6382 -0.2583
 2632TIP3    H129311   1.082   5.628   1.384 -0.6083 -0.4169  0.4193
 2632TIP3    H229312   1.097   5.737   1.489 -0.2221  0.5278 -0.6113
 2633TIP3   OH229313   5.061   1.577   3.002  0.5626  0.0146  0.2503
 2633TIP3    H129314   5.098   1.554   3.088 -1.0434 -0.5711  0.8043
 2633TIP3    H229315   5.035   1.669   3.011 -0.7926 -0.4048  0.8491
 2634TIP3   OH229316   2.608   4.870  12.295 -0.6727  0.4883 -0.6855
 2634TIP3    H129317   2.670   4.911  12.355  0.1132  1.0404 -1.8711
 2634TIP3    H229318   2.633   4.778  12.293  2.7887  1.3831 -4.3367
 2635TIP3   OH229319   0.683   4.071  13.833  0.3150 -0.0079  0.7269
 2635TIP3    H129320   0.651   4.091  13.921 -1.6939  0.1879 -0.0366
 2635TIP3    H229321   0.604   4.057  13.781  1.4650  0.4526 -1.1833
 2636TIP3   OH229322   3.133   3.040   5.969  0.1941  0.3161 -0.3668
 2636TIP3    H129323   3.221   3.061   6.000  0.4787 -0.6368 -0.5156
 2636TIP3    H229324   3.117   2.951   6.001 -0.7495  0.5235 -0.2667
 2637TIP3   OH229325   2.778   2.840  14.542  0.8407  0.8456 -0.3126
 2637TIP3    H129326   2.745   2.752  14.561  1.3101  1.0176  1.3618
 2637TIP3    H229327   2.701   2.896  14.544  0.3095  0.2588 -2.9114
 2638TIP3   OH229328   0.683   4.394   3.055 -0.0634 -0.0931  0.0086
 2638TIP3    H129329   0.688   4.474   3.002 -0.5268 -0.4135 -0.5279
 2638TIP3    H229330   0.688   4.323   2.992 -2.5568 -0.4797  0.1840
 2639TIP3   OH229331   6.417   6.469   6.115 -0.2148 -0.3455  0.2774
 2639TIP3    H129332   6.359   6.436   6.185  1.2124 -1.1527  1.1026
 2639TIP3    H229333   6.504   6.439   6.141  0.5832  0.9218 -0.9237
 2640TIP3   OH229334   1.765   5.185   0.714 -0.0722 -0.3687 -0.6043
 2640TIP3    H129335   1.833   5.120   0.694  1.0499 -0.0369  1.9102
 2640TIP3    H229336   1.702   5.137   0.769  0.7394  0.5867  1.2230
 2641TIP3   OH229337   5.097   1.310   4.905 -0.4926 -0.5751 -0.2426
 2641TIP3    H129338   5.137   1.277   4.985 -1.3036 -0.8225  0.0632
 2641TIP3    H229339   5.152   1.384   4.879 -0.0030 -0.7376  0.3235
 2642TIP3   OH229340   4.934   3.635  14.558 -0.1239 -0.5567  0.0082
 2642TIP3    H129341   4.859   3.575  14.554 -0.1164 -0.4530 -2.7651
 2642TIP3    H229342   4.920   3.696  14.485  1.9411  0.3171  0.3060
 2643TIP3   OH229343   1.442   2.016   2.577 -0.2627 -0.3645 -0.6465
 2643TIP3    H129344   1.439   2.109   2.556 -2.0844 -0.1368  0.5922
 2643TIP3    H229345   1.387   1.974   2.510  1.2980 -0.6896 -1.7688
 2644TIP3   OH229346   0.729   3.773  15.094 -0.2533  0.1705  0.0354
 2644TIP3    H129347   0.707   3.864  15.075 -0.8247  0.4028  1.7103
 2644TIP3    H229348   0.815   3.761  15.053 -0.2073  1.4291 -0.2807
 2645TIP3   OH229349   5.694   2.312  12.729  0.2247  0.0455  0.2057
 2645TIP3    H129350   5.652   2.343  12.649 -1.9089 -0.3034  1.1629
 2645TIP3    H229351   5.738   2.231  12.704  1.8832  1.3438 -1.2205
 2646TIP3   OH229352   2.059   2.099   5.364  0.1968  0.2237  0.2457
 2646TIP3    H129353   1.971   2.102   5.400  0.4478  0.3437  0.8687
 2646TIP3    H229354   2.077   2.190   5.339  0.4824  0.3825  0.9834
 2647TIP3   OH229355   2.553   2.897   1.937  0.0435  0.1493  0.0533
 2647TIP3    H129356   2.622   2.859   1.991 -0.0675  1.3594  1.0886
 2647TIP3    H229357   2.474   2.847   1.960 -0.1157  1.0097  1.4476
 2648TIP3   OH229358   0.548   3.772  10.437  0.2945  0.1040  0.4232
 2648TIP3    H129359   0.521   3.836  10.503 -0.3071 -1.1548  1.3984
 2648TIP3    H229360   0.642   3.763  10.448  0.1513 -0.3227  1.3061
 2649TIP3   OH229361   3.964   2.384   2.501 -0.0109  0.0248  0.1799
 2649TIP3    H129362   3.939   2.475   2.487  2.5623  0.6108 -0.9707
 2649TIP3    H229363   3.886   2.342   2.538 -1.1460  2.7319  0.9278
 2650TIP3   OH229364   2.375   4.713  14.651 -0.3911 -0.0676  0.3933
 2650TIP3    H129365   2.409   4.640  14.599 -1.0050  0.2262 -0.4366
 2650TIP3    H229366   2.396   4.791  14.599 -1.2116  0.2081  0.4757
 2651TIP3   OH229367   6.523   6.722   6.193 -0.3258  0.1362  0.3707
 2651TIP3    H129368   6.468   6.646   6.175  0.0487 -0.2148  0.6856
 2651TIP3    H229369   6.475   6.773   6.257  0.4545 -1.0197  1.9008
 2652TIP3   OH229370   5.718   1.848  16.205  0.1306  0.3438  0.0103
 2652TIP3    H129371   5.753   1.937  16.198 -0.6855  0.7072  0.4382
 2652TIP3    H229372   5.748   1.804  16.125  0.5378  1.0021 -0.2040
 2653TIP3   OH229373   6.094   4.302   5.212 -0.1791 -0.1095  0.3137
 2653TIP3    H129374   6.120   4.273   5.124  3.4437  0.2152  1.2071
 2653TIP3    H229375   6.072   4.221   5.259 -2.5708 -0.2512 -0.9753
 2654TIP3   OH229376   3.796   2.919  14.223 -0.4467 -0.3591 -0.5171
 2654TIP3    H129377   3.855   2.976  14.274  1.0496 -1.7950 -0.5914
 2654TIP3    H229378   3.711   2.928  14.266  0.0498  1.0016  0.2047
 2655TIP3   OH229379   0.012   3.244  13.479  0.0047  0.0871 -0.3883
 2655TIP3    H129380   0.015   3.174  13.415 -2.1928 -0.2865 -0.1098
 2655TIP3    H229381   0.051   3.207  13.558  0.4312 -0.2417 -0.7509
 2656TIP3   OH229382   0.039   0.140   4.098  0.4059 -0.4594  0.2511
 2656TIP3    H129383   0.060   0.109   4.186  0.4223 -0.8275  0.1197
 2656TIP3    H229384   0.060   0.066   4.041  2.5288  0.5569 -0.3160
 2657TIP3   OH229385   3.398   6.375  15.170  0.5698 -0.3268 -0.7860
 2657TIP3    H129386   3.446   6.448  15.131 -1.2222  0.5837 -1.3884
 2657TIP3    H229387   3.435   6.297  15.129  0.6301  0.4449 -2.2321
 2658TIP3   OH229388   3.330   1.624   4.743  0.2983  0.3640  0.3210
 2658TIP3    H129389   3.421   1.608   4.720  0.3783  0.7406  0.3851
 2658TIP3    H229390   3.303   1.697   4.687 -0.2601 -0.4075 -0.4368
 2659TIP3   OH229391   1.927   6.053   3.680  0.4088  0.2764  0.0308
 2659TIP3    H129392   1.876   6.020   3.606  0.2372 -0.0114  0.2769
 2659TIP3    H229393   1.934   6.147   3.664 -1.2348  0.5188  0.6084
 2660TIP3   OH229394   6.245   1.812  13.216  0.0458 -0.1199 -0.0591
 2660TIP3    H129395   6.194   1.855  13.284 -0.9219 -0.8494 -0.3226
 2660TIP3    H229396   6.268   1.883  13.156  0.4717  0.4354  0.7425
 2661TIP3   OH229397   1.141   1.609  16.193  0.2379 -0.3121  0.2746
 2661TIP3    H129398   1.175   1.592  16.281 -1.4175 -0.9422  0.8206
 2661TIP3    H229399   1.080   1.537  16.177  0.7278 -0.3433 -1.5030
 2662TIP3   OH229400   6.740   5.984   2.473  0.0635 -0.6953  0.3619
 2662TIP3    H129401   6.785   5.996   2.557  0.0916  0.4394  0.1992
 2662TIP3    H229402   6.651   6.016   2.489 -0.4179 -2.0681  0.4285
 2663TIP3   OH229403   4.962   1.388   2.550 -0.0192 -0.4741 -0.1584
 2663TIP3    H129404   5.023   1.335   2.602  1.0520  0.9060  0.0523
 2663TIP3    H229405   4.956   1.470   2.599 -1.1974 -0.1947 -0.7691
 2664TIP3   OH229406   5.275   1.567   6.400 -0.2685  0.2983  0.1502
 2664TIP3    H129407   5.207   1.574   6.466 -1.3035 -0.3159 -0.8244
 2664TIP3    H229408   5.259   1.482   6.358  0.2536  0.7597 -0.9978
 2665TIP3   OH229409   6.112   6.344   5.015  0.5909 -0.7392  0.4671
 2665TIP3    H129410   6.079   6.422   4.970  0.0069 -0.7484  0.8698
 2665TIP3    H229411   6.187   6.375   5.066  0.8285 -0.5969  0.0388
 2666TIP3   OH229412   2.683   4.513   2.144  0.3688  0.0071 -0.1447
 2666TIP3    H129413   2.677   4.589   2.086 -1.5992 -0.5067 -0.6327
 2666TIP3    H229414   2.665   4.438   2.088 -1.0198 -0.5443  0.9870
 2667TIP3   OH229415   2.170   6.762  14.464 -0.0152 -0.4372  0.0871
 2667TIP3    H129416   2.146   6.718  14.546 -0.4546  1.1675  0.8377
 2667TIP3    H229417   2.104   6.733  14.401 -1.5102  0.7368  1.0993
 2668TIP3   OH229418   4.858   5.861  17.138  0.3245 -0.1150  0.0588
 2668TIP3    H129419   4.828   5.950  17.160  2.4278  0.5181  0.4959
 2668TIP3    H229420   4.929   5.875  17.076  0.5282 -1.5348 -0.0384
 2669TIP3   OH229421   0.481   1.882  11.208  0.0363 -0.1225  0.4635
 2669TIP3    H129422   0.493   1.794  11.172 -1.1714  0.0751 -0.4755
 2669TIP3    H229423   0.502   1.941  11.136 -2.0915  0.2836  0.1352
 2670TIP3   OH229424   0.572   6.394   3.102  0.2094  0.1684  0.5295
 2670TIP3    H129425   0.499   6.438   3.059  2.0458  1.3841 -1.5083
 2670TIP3    H229426   0.576   6.307   3.060  0.9682  0.7421 -0.6242
 2671TIP3   OH229427   4.601   0.205  10.799 -0.3028  0.0688  0.2754
 2671TIP3    H129428   4.549   0.264  10.745  1.3152  1.8039  0.5452
 2671TIP3    H229429   4.691   0.217  10.768  0.3570 -0.5420  1.8630
 2672TIP3   OH229430   1.610   6.739  16.839  0.2014 -0.2617  0.8991
 2672TIP3    H129431   1.518   6.723  16.820  0.7238 -1.0885 -1.0631
 2672TIP3    H229432   1.616   6.736  16.935 -1.9549  0.7502  1.0733
 2673TIP3   OH229433   5.164   3.163   2.089  0.1138  0.6307  0.1495
 2673TIP3    H129434   5.161   3.070   2.110  1.7628  0.3025 -0.9567
 2673TIP3    H229435   5.077   3.184   2.057  0.4749 -1.1610 -2.0967
 2674TIP3   OH229436   1.303   5.037   5.623  0.0538  0.0986 -0.0980
 2674TIP3    H129437   1.229   5.090   5.653 -0.0764 -0.7488  1.1397
 2674TIP3    H229438   1.263   4.954   5.596  0.2545  0.5981 -1.9869
 2675TIP3   OH229439   4.777   4.516   3.318 -0.4702  0.1356 -0.5829
 2675TIP3    H129440   4.736   4.585   3.371 -1.3924  0.7555 -2.0740
 2675TIP3    H229441   4.841   4.475   3.377 -0.5299  1.6902  0.5883
 2676TIP3   OH229442   3.580   0.741  16.912 -0.0410 -0.0005 -0.4507
 2676TIP3    H129443   3.647   0.771  16.973  0.9424 -1.1547 -0.9512
 2676TIP3    H229444   3.498   0.777  16.946  0.5770 -0.1707  1.2230
 2677TIP3   OH229445   5.004   3.885   6.031  0.2131 -0.0184  0.8061
 2677TIP3    H129446   4.987   3.947   5.960 -1.6608 -0.8872  0.4662
 2677TIP3    H229447   4.981   3.932   6.111 -1.7622 -0.4319  0.5087
 2678TIP3   OH229448   6.687   5.136  11.867  0.0922 -0.5784  0.3814
 2678TIP3    H129449   6.621   5.190  11.911  0.5645  0.9132 -0.6849
 2678TIP3    H229450   6.640   5.092  11.797 -0.3660 -1.8416  1.4664
 2679TIP3   OH229451   0.650   5.737  15.593 -0.0319  0.3218 -0.3408
 2679TIP3    H129452   0.595   5.797  15.644  0.3981  2.2738 -2.1321
 2679TIP3    H229453   0.615   5.741  15.504  0.8767 -1.0611 -0.7842
 2680TIP3   OH229454   1.543   2.830  13.865  0.2513 -0.3583 -0.0325
 2680TIP3    H129455   1.590   2.899  13.913  1.4558 -0.7855 -0.5665
 2680TIP3    H229456   1.593   2.750  13.882 -0.0508 -0.7513 -0.9376
 2681TIP3   OH229457   5.354   6.077  15.589 -0.3434 -0.7833  0.3496
 2681TIP3    H129458   5.441   6.116  15.600 -0.1188 -1.0186 -0.5477
 2681TIP3    H229459   5.331   6.096  15.498 -1.0095 -1.1745  0.4353
 2682TIP3   OH229460   4.645   1.559   6.653  0.3621 -0.3853 -0.2074
 2682TIP3    H129461   4.643   1.466   6.630 -2.1504 -0.6259  0.7940
 2682TIP3    H229462   4.632   1.605   6.570  1.0763 -0.9440 -0.6293
 2683TIP3   OH229463   1.241   0.823   3.019  0.1107  0.5243  0.3497
 2683TIP3    H129464   1.264   0.781   3.101 -0.8597  0.7643  0.7597
 2683TIP3    H229465   1.216   0.912   3.043 -0.2501  0.5771 -0.1896
 2684TIP3   OH229466   0.776   3.027   2.109  0.2702  0.0370  0.4401
 2684TIP3    H129467   0.855   2.978   2.135  0.7618 -0.5309 -2.0516
 2684TIP3    H229468   0.706   2.961   2.108  0.5099 -0.2093 -0.8694
 2685TIP3   OH229469   0.497   2.645   3.908  0.2311  0.2719  0.1157
 2685TIP3    H129470   0.441   2.715   3.875 -0.2284 -0.0764  0.1561
 2685TIP3    H229471   0.586   2.673   3.886  0.0944  1.1364  0.6272
 2686TIP3   OH229472   5.724   1.010  16.371 -0.4724  0.1192 -0.3622
 2686TIP3    H129473   5.798   1.063  16.399  0.6033 -0.6743 -1.6207
 2686TIP3    H229474   5.690   1.054  16.293 -1.3567  0.5009  0.2311
 2687TIP3   OH229475   5.440   6.172   5.569  0.1419 -0.3756 -0.1832
 2687TIP3    H129476   5.452   6.254   5.521 -1.4540 -0.5461 -0.9246
 2687TIP3    H229477   5.408   6.111   5.503  2.0550 -1.8252  0.2109
 2688TIP3   OH229478   3.580   2.084   6.062 -0.2962  0.4314 -0.3929
 2688TIP3    H129479   3.495   2.091   6.018 -0.3037 -0.8947 -0.6108
 2688TIP3    H229480   3.628   2.018   6.011  0.3520  0.1730  0.5464
 2689TIP3   OH229481   4.025   1.175  15.207  0.1118  0.8282 -0.1130
 2689TIP3    H129482   4.064   1.180  15.294  0.3109 -1.6729 -0.0276
 2689TIP3    H229483   3.931   1.179  15.222  0.1595  0.8512  0.1761
 2690TIP3   OH229484   6.238   0.411  12.149 -0.0177 -0.8350 -1.0819
 2690TIP3    H129485   6.178   0.348  12.109 -1.9589  0.4359 -0.2313
 2690TIP3    H229486   6.186   0.455  12.215  1.3929  1.4378 -1.4398
 2691TIP3   OH229487   5.955   3.395   1.568  0.2666 -0.3913  0.6091
 2691TIP3    H129488   5.874   3.357   1.602 -0.5790 -0.8612 -1.8989
 2691TIP3    H229489   5.930   3.439   1.487  2.3284  0.4182  0.3716
 2692TIP3   OH229490   3.402   3.910   2.201 -0.1664 -0.5974  0.1874
 2692TIP3    H129491   3.336   3.979   2.193 -1.0152 -1.4321 -0.1235
 2692TIP3    H229492   3.377   3.845   2.135  3.2044  0.8633 -2.6814
 2693TIP3   OH229493   1.515   5.885  12.200  0.3130  0.2353 -0.5456
 2693TIP3    H129494   1.530   5.888  12.105 -0.0999 -1.1511 -0.6675
 2693TIP3    H229495   1.425   5.913  12.211  0.7487  1.6560 -0.4327
 2694TIP3   OH229496   2.189   4.382  15.188 -0.4364  0.2987 -0.1672
 2694TIP3    H129497   2.233   4.465  15.167  0.6171 -0.2740 -0.2513
 2694TIP3    H229498   2.192   4.377  15.283  0.6055 -0.2160 -0.2122
 2695TIP3   OH229499   6.223   2.166  12.371  0.7823  0.0734  0.5939
 2695TIP3    H129500   6.129   2.157  12.355  1.0886 -0.9508 -0.6945
 2695TIP3    H229501   6.240   2.260  12.361  0.2594 -0.0091 -1.3093
 2696TIP3   OH229502   6.341   4.605   0.334 -0.0395 -0.2888 -0.1541
 2696TIP3    H129503   6.308   4.546   0.402 -1.0656 -0.0013 -0.4019
 2696TIP3    H229504   6.436   4.607   0.349 -0.1802 -0.7486  0.8484
 2697TIP3   OH229505   6.387   2.081   5.371  0.5053  0.6394 -0.3981
 2697TIP3    H129506   6.362   2.010   5.431 -0.5802  1.8712  0.6328
 2697TIP3    H229507   6.353   2.054   5.286  0.7478 -0.4215 -0.1653
 2698TIP3   OH229508   3.272   6.744   0.667 -0.1907  0.4219 -0.0187
 2698TIP3    H129509   3.223   6.739   0.585  2.6862 -1.7900 -1.6936
 2698TIP3    H229510   3.264   6.656   0.705 -0.1332  0.9578  1.2602
 2699TIP3   OH229511   1.794   5.954  13.511  0.2077  0.2435  0.0643
 2699TIP3    H129512   1.835   6.023  13.563 -0.4308 -0.7567  1.9596
 2699TIP3    H229513   1.721   5.998  13.466 -0.4781  0.7416  1.6136
 2700TIP3   OH229514   6.047   4.938  13.169 -0.3166 -0.7191  0.6059
 2700TIP3    H129515   6.075   4.853  13.203  2.5263 -0.9476 -2.1010
 2700TIP3    H229516   6.104   5.002  13.213  1.2314 -0.7377 -1.3269
 2701TIP3   OH229517   2.555   1.508  11.669  0.2819  0.4972 -0.2721
 2701TIP3    H129518   2.479   1.471  11.714  2.6622 -3.9491  0.3563
 2701TIP3    H229519   2.574   1.589  11.717 -2.2983  0.2001  1.3561
 2702TIP3   OH229520   4.929   0.621  14.441 -0.0007  0.0155  0.0047
 2702TIP3    H129521   4.884   0.559  14.500  0.8003 -0.9620 -0.3922
 2702TIP3    H229522   4.905   0.591  14.353  0.7325  0.0196 -0.1946
 2703TIP3   OH229523   2.725   5.943  12.011  0.3177  0.3251  0.6231
 2703TIP3    H129524   2.729   5.915  11.920 -0.4584  0.6349  0.4934
 2703TIP3    H229525   2.767   5.872  12.060 -2.1060 -1.3244  0.3521
 2704TIP3   OH229526   3.643   4.570   3.585 -0.4034 -0.5040 -0.3082
 2704TIP3    H129527   3.593   4.489   3.593 -0.1633 -0.4507  2.1929
 2704TIP3    H229528   3.732   4.541   3.568 -0.3399 -0.7570  0.4522
 2705TIP3   OH229529   6.568   3.446  12.793 -0.7993  0.2487  0.4069
 2705TIP3    H129530   6.519   3.511  12.844 -0.8865  0.5437 -0.0503
 2705TIP3    H229531   6.501   3.392  12.751 -0.7336 -1.0417  1.9204
 2706TIP3   OH229532   3.892   3.649   0.954 -0.1336 -0.5548 -0.8940
 2706TIP3    H129533   3.912   3.742   0.960 -3.0796  0.0702 -0.1823
 2706TIP3    H229534   3.798   3.643   0.967  0.1675 -3.7554  0.4997
 2707TIP3   OH229535   5.542   4.041   5.520  0.0349  0.2515  0.6846
 2707TIP3    H129536   5.635   4.038   5.498  0.0857 -1.4086  1.0906
 2707TIP3    H229537   5.500   3.984   5.455 -0.6552  0.7384  0.6983
 2708TIP3   OH229538   3.598   5.099  11.590 -0.1303  1.0358  0.3536
 2708TIP3    H129539   3.633   5.068  11.673  0.6979  2.5819  0.5912
 2708TIP3    H229540   3.562   5.020  11.549  0.0614  0.1381  1.8598
 2709TIP3   OH229541   6.748   1.820  11.315 -0.2551 -0.4564  0.0026
 2709TIP3    H129542   6.728   1.879  11.242 -0.3389 -1.1923 -0.5741
 2709TIP3    H229543   6.837   1.789  11.298 -0.3129 -0.7085  0.1531
 2710TIP3   OH229544   2.509   3.667  13.137 -0.6761  0.1265  0.1702
 2710TIP3    H129545   2.521   3.758  13.110  2.1230 -0.4068 -0.5863
 2710TIP3    H229546   2.568   3.657  13.212 -1.3178 -0.9553  0.5379
 2711TIP3   OH229547   3.860   3.902  11.027 -0.2520  0.2180  0.7015
 2711TIP3    H129548   3.842   3.809  11.042  1.3155  0.1440  2.2145
 2711TIP3    H229549   3.838   3.945  11.110 -0.6461  1.1603  0.1206
 2712TIP3   OH229550   3.115   0.175   3.514 -0.1587  0.3042  0.0384
 2712TIP3    H129551   3.197   0.191   3.560 -0.8361  1.0070  1.0191
 2712TIP3    H229552   3.098   0.082   3.526  0.9496 -0.0377 -0.9456
 2713TIP3   OH229553   5.388   2.019   4.188 -0.5344 -0.4808 -0.1977
 2713TIP3    H129554   5.313   2.050   4.137 -0.4853  0.5370  0.3154
 2713TIP3    H229555   5.428   1.951   4.135 -1.8851 -1.1067 -0.4395
 2714TIP3   OH229556   5.205   0.638  16.776 -0.1529  0.1615  0.2353
 2714TIP3    H129557   5.296   0.623  16.750 -0.1235  1.4144 -0.4565
 2714TIP3    H229558   5.161   0.555  16.759  0.9961 -0.6433  1.1838
 2715TIP3   OH229559   0.879   1.830   2.825 -0.3347  0.0124  0.3028
 2715TIP3    H129560   0.945   1.824   2.895 -0.2666  2.0289  0.4566
 2715TIP3    H229561   0.926   1.806   2.745 -0.0873 -1.0710  0.7656
 2716TIP3   OH229562   5.738   6.036  12.242 -0.2800  0.5939  0.5956
 2716TIP3    H129563   5.661   5.982  12.260 -0.0707  0.3779  0.8384
 2716TIP3    H229564   5.739   6.045  12.146  1.1582 -2.0216  0.3160
 2717TIP3   OH229565   4.318   1.762  12.320  0.4325 -0.1139  0.5076
 2717TIP3    H129566   4.385   1.800  12.377  1.1064 -2.2762  1.1996
 2717TIP3    H229567   4.268   1.704  12.377  0.2914 -1.3032 -0.8041
 2718TIP3   OH229568   2.367   4.712  13.421  0.0787  0.0717 -0.1130
 2718TIP3    H129569   2.424   4.712  13.344 -1.2934  0.3759 -1.1484
 2718TIP3    H229570   2.316   4.792  13.413 -0.8100 -0.4201  0.5676
 2719TIP3   OH229571   5.451   2.014   0.399 -0.3216 -0.3322 -0.2276
 2719TIP3    H129572   5.539   1.993   0.367  0.4353  1.1901  0.8170
 2719TIP3    H229573   5.410   2.061   0.327 -0.0753 -0.5194 -0.4925
 2720TIP3   OH229574   1.578   1.227   1.602  0.5734  0.0474  0.0516
 2720TIP3    H129575   1.656   1.211   1.549 -0.0935 -0.0683 -0.9073
 2720TIP3    H229576   1.585   1.319   1.628 -0.1032  0.6648 -1.9095
 2721TIP3   OH229577   4.240   2.988  12.891  0.1367  0.1035  0.5292
 2721TIP3    H129578   4.320   2.982  12.943  0.4228 -0.7946  0.0068
 2721TIP3    H229579   4.241   2.908  12.838 -0.2181  0.9286 -0.7350
 2722TIP3   OH229580   2.791   5.477   1.424  0.1920  0.2332 -0.1036
 2722TIP3    H129581   2.804   5.427   1.343  2.6103  0.7528 -0.0728
 2722TIP3    H229582   2.813   5.567   1.400 -1.7552  0.8929  0.4720
 2723TIP3   OH229583   1.837   6.395   1.448 -0.1388  0.0096  0.1336
 2723TIP3    H129584   1.891   6.388   1.369  0.0200  1.4224  0.1043
 2723TIP3    H229585   1.779   6.319   1.445 -0.4465  0.2995 -1.5787
 2724TIP3   OH229586   0.989   0.480  12.461  0.0711 -0.5977 -0.4206
 2724TIP3    H129587   0.961   0.558  12.510 -1.1268 -1.4632  0.3378
 2724TIP3    H229588   1.077   0.462  12.493  0.4033  0.5278 -0.6998
 2725TIP3   OH229589   2.243   5.720   3.481 -0.0806  0.4907 -0.1351
 2725TIP3    H129590   2.256   5.814   3.469  0.6210  0.4887  0.5914
 2725TIP3    H229591   2.324   5.689   3.523  0.0904 -0.6056 -1.2397
 2726TIP3   OH229592   5.411   6.326  10.786 -0.6394  0.2514 -0.6424
 2726TIP3    H129593   5.417   6.233  10.808 -0.6259 -0.1725 -2.3610
 2726TIP3    H229594   5.498   6.348  10.753 -1.0858  0.4758 -1.6931
 2727TIP3   OH229595   1.229   2.341   3.467 -0.6247  0.2272  0.2233
 2727TIP3    H129596   1.181   2.373   3.544 -0.4651 -1.6127  1.1005
 2727TIP3    H229597   1.249   2.250   3.488 -1.7242 -0.6875 -2.5618
 2728TIP3   OH229598   4.617   4.662   3.693 -0.3022 -0.3340  0.0483
 2728TIP3    H129599   4.677   4.595   3.727  1.3651  0.5237 -1.1350
 2728TIP3    H229600   4.590   4.711   3.770  2.3270  0.7033  0.3617
 2729TIP3   OH229601   0.425   4.648   5.952  0.1541  1.0931 -0.3591
 2729TIP3    H129602   0.482   4.572   5.968  0.9831  1.7585 -0.0857
 2729TIP3    H229603   0.342   4.610   5.924 -0.0379  0.0322  1.5973
 2730TIP3   OH229604   0.275   0.625  14.986  0.0292  0.3954  0.3491
 2730TIP3    H129605   0.182   0.633  14.963 -0.2942  0.1705  1.5800
 2730TIP3    H229606   0.321   0.644  14.904 -1.0682  1.4957 -0.0218
 2731TIP3   OH229607   5.372   3.491   6.613  0.2322  0.1717  0.0563
 2731TIP3    H129608   5.459   3.505   6.651  0.4934 -0.9194 -0.1062
 2731TIP3    H229609   5.312   3.527   6.677  0.7835  0.3813  0.4602
 2732TIP3   OH229610   1.121   3.218   5.679  0.2877 -0.3425  0.2287
 2732TIP3    H129611   1.075   3.280   5.736 -0.2189 -0.1351 -0.3936
 2732TIP3    H229612   1.065   3.140   5.678  0.4423 -0.4530  0.2488
 2733TIP3   OH229613   4.605   0.408   5.737 -0.5022  0.2835 -0.2139
 2733TIP3    H129614   4.672   0.475   5.740  1.3737 -1.5765  0.5175
 2733TIP3    H229615   4.652   0.327   5.715 -2.7786 -0.7054 -1.7805
 2734TIP3   OH229616   2.885   3.767  14.774 -0.3148  0.0518  0.3325
 2734TIP3    H129617   2.866   3.743  14.864 -1.6391  1.8804  0.5613
 2734TIP3    H229618   2.801   3.759  14.728 -0.2080  1.5407 -0.1645
 2735TIP3   OH229619   1.404   5.504   5.027  0.3567 -0.2219  0.6096
 2735TIP3    H129620   1.388   5.564   5.099  2.0102  1.0153 -0.0213
 2735TIP3    H229621   1.430   5.422   5.069  1.6416  0.5857  1.4366
 2736TIP3   OH229622   5.167   6.624  13.137 -0.3331 -0.1378 -0.2776
 2736TIP3    H129623   5.146   6.701  13.084 -0.0008  0.0287 -0.1680
 2736TIP3    H229624   5.258   6.636  13.163 -0.9397  0.5302  1.5886
 2737TIP3   OH229625   5.599   0.240   1.382  0.0858  0.0983 -0.1733
 2737TIP3    H129626   5.579   0.212   1.471 -0.9883 -1.5127 -0.8874
 2737TIP3    H229627   5.647   0.166   1.345  1.4698  1.1974 -0.5970
 2738TIP3   OH229628   5.495   0.705   3.856  0.6831  0.7241 -0.3667
 2738TIP3    H129629   5.496   0.654   3.775 -0.5009  0.1040 -0.0011
 2738TIP3    H229630   5.493   0.640   3.926  2.8988  1.2366  0.2181
 2739TIP3   OH229631   3.006   0.418  13.575  0.2868  0.6240  0.2432
 2739TIP3    H129632   2.991   0.491  13.636  1.2259 -0.1972  1.4785
 2739TIP3    H229633   2.963   0.343  13.616  0.1776  0.2526 -0.5392
 2740TIP3   OH229634   3.009   0.583  10.997 -0.6140  0.5336  0.3829
 2740TIP3    H129635   3.037   0.493  10.984  1.7214  0.8702  2.6421
 2740TIP3    H229636   3.027   0.627  10.914  1.9473 -0.2058  0.5236
 2741TIP3   OH229637   4.955   0.536  14.889  0.1006  0.2130  0.0899
 2741TIP3    H129638   5.050   0.544  14.881  0.4141 -1.6675  1.6723
 2741TIP3    H229639   4.923   0.626  14.878  1.8778  0.5789 -2.4631
 2742TIP3   OH229640   5.067   6.369   1.251 -0.4071 -0.2461  0.3335
 2742TIP3    H129641   4.997   6.426   1.280 -0.8579 -0.0858 -1.0335
 2742TIP3    H229642   5.030   6.281   1.256 -0.1263 -0.3181  1.2482
 2743TIP3   OH229643   0.378   2.894  15.118  0.0651  0.0276 -0.2471
 2743TIP3    H129644   0.374   2.983  15.153 -1.7692  0.6525 -1.9425
 2743TIP3    H229645   0.454   2.895  15.059 -0.5809  0.8028 -1.0828
 2744TIP3   OH229646   3.686   6.304   1.221 -0.0342 -0.6029 -0.0022
 2744TIP3    H129647   3.593   6.306   1.242 -0.1344  1.1780 -0.4882
 2744TIP3    H229648   3.700   6.383   1.168  1.8290 -0.6234  0.4189
 2745TIP3   OH229649   0.389   2.591  16.090 -0.5715  1.0587 -0.3375
 2745TIP3    H129650   0.390   2.565  15.998 -0.6350 -0.8808  0.1940
 2745TIP3    H229651   0.467   2.550  16.127 -1.4041  0.5024  0.8304
 2746TIP3   OH229652   5.729   0.143   3.931  0.1367  0.4639 -0.2193
 2746TIP3    H129653   5.798   0.195   3.971  0.6073 -0.8314  0.6709
 2746TIP3    H229654   5.673   0.118   4.004 -0.0435 -0.3440 -0.6316
 2747TIP3   OH229655   3.289   3.680   6.033 -0.8267  0.3620  0.2395
 2747TIP3    H129656   3.213   3.622   6.027 -0.1294 -0.6789  1.2813
 2747TIP3    H229657   3.255   3.767   6.011 -1.8878 -0.4214 -1.3117
 2748TIP3   OH229658   0.854   0.182   0.251  0.2434  0.2359  0.3484
 2748TIP3    H129659   0.788   0.141   0.306  1.1518  2.2299  3.0369
 2748TIP3    H229660   0.804   0.228   0.184 -1.0836  1.1973  1.9598
 2749TIP3   OH229661   0.457   4.752   0.783  0.6559  0.0935 -0.5767
 2749TIP3    H129662   0.412   4.835   0.770  0.5179  0.0105 -0.6241
 2749TIP3    H229663   0.456   4.739   0.878  0.0236 -0.2204 -0.6263
 2750TIP3   OH229664   4.146   3.281   1.767  0.7420  0.6252  0.0166
 2750TIP3    H129665   4.052   3.264   1.760  1.2079 -1.5376 -1.3773
 2750TIP3    H229666   4.179   3.274   1.678  1.6254  5.5468 -0.1767
 2751TIP3   OH229667   3.069   5.429  10.459 -0.3620  0.4448 -0.7392
 2751TIP3    H129668   3.154   5.391  10.481 -1.8068 -3.2336 -1.1546
 2751TIP3    H229669   3.055   5.497  10.525  1.9845 -0.3283  0.5887
 2752TIP3   OH229670   1.042   6.002   1.140  0.2220 -0.4486  0.4474
 2752TIP3    H129671   0.972   5.965   1.087 -0.2097  1.8560 -0.6641
 2752TIP3    H229672   1.092   6.056   1.079  1.7153 -0.4077  1.6889
 2753TIP3   OH229673   2.759   3.343   2.658 -1.0214  0.3223 -0.4739
 2753TIP3    H129674   2.759   3.259   2.613  2.8428 -0.4005  0.7434
 2753TIP3    H229675   2.692   3.333   2.726 -0.5536 -1.7931 -0.2912
 2754TIP3   OH229676   2.854   0.542   2.300 -0.3777  0.0165  0.3206
 2754TIP3    H129677   2.832   0.450   2.291 -0.0535  0.0188 -0.5177
 2754TIP3    H229678   2.770   0.588   2.289 -0.3139 -0.1000 -0.7728
 2755TIP3   OH229679   2.688   6.583   5.240 -0.1721 -0.4776  0.1117
 2755TIP3    H129680   2.728   6.582   5.328 -0.7003  1.1410  0.3788
 2755TIP3    H229681   2.737   6.517   5.191  1.4698  0.0189  1.0409
 2756TIP3   OH229682   5.142   6.675   2.341  0.3926  0.3171 -0.0607
 2756TIP3    H129683   5.106   6.625   2.414 -1.7351 -0.6116 -1.6578
 2756TIP3    H229684   5.076   6.665   2.271  2.9682  0.0624 -2.5464
 2757TIP3   OH229685   3.257   2.464  11.516 -0.5928  0.0989  0.1856
 2757TIP3    H129686   3.332   2.450  11.459 -1.1450 -0.4916 -0.4076
 2757TIP3    H229687   3.183   2.473  11.455 -0.8089  1.9250  0.7018
 2758TIP3   OH229688   4.507   2.558   2.318 -0.5326  0.1784 -0.2274
 2758TIP3    H129689   4.426   2.584   2.274 -0.3231  1.4534  0.1172
 2758TIP3    H229690   4.507   2.463   2.314 -2.4772  0.1345  0.5487
 2759TIP3   OH229691   2.553   1.555  11.064 -0.0888 -0.6827 -0.1402
 2759TIP3    H129692   2.565   1.608  10.984  0.1210  1.9864  1.5881
 2759TIP3    H229693   2.467   1.516  11.054  0.2483 -1.0245 -2.0244
 2760TIP3   OH229694   3.672   2.074   2.755  0.1188  0.2742 -0.1758
 2760TIP3    H129695   3.660   2.055   2.661  0.1092 -0.4661 -0.0278
 2760TIP3    H229696   3.658   1.990   2.798 -0.8430  0.8140  0.5796
 2761TIP3   OH229697   4.605   3.995   4.993  0.0790 -0.0617  0.9133
 2761TIP3    H129698   4.575   4.037   5.074  0.1348 -0.0827  0.9452
 2761TIP3    H229699   4.700   4.001   4.998  0.1016 -0.5324  1.0979
 2762TIP3   OH229700   5.414   4.684  15.822 -0.4668  0.4424 -0.4360
 2762TIP3    H129701   5.457   4.746  15.763 -0.0023  0.1756 -0.3825
 2762TIP3    H229702   5.409   4.603  15.773 -1.2177  0.5636 -0.5623
 2763TIP3   OH229703   1.159   2.053   5.442 -0.6339  0.0071 -0.1436
 2763TIP3    H129704   1.151   2.033   5.536 -2.0575  0.9813 -0.0581
 2763TIP3    H229705   1.248   2.087   5.433  0.0461 -1.5168  0.5834
 2764TIP3   OH229706   3.558   0.264  13.703  0.5602 -0.4812 -0.2614
 2764TIP3    H129707   3.635   0.264  13.760  0.2932 -0.7505  0.1089
 2764TIP3    H229708   3.550   0.173  13.673 -0.3243 -0.7384  0.6988
 2765TIP3   OH229709   2.192   6.611   4.984  0.5023  0.4096 -0.4438
 2765TIP3    H129710   2.246   6.538   5.015  1.1941  0.6343 -1.1106
 2765TIP3    H229711   2.144   6.639   5.062 -1.1423 -1.9202 -0.5880
 2766TIP3   OH229712   5.190   2.533  14.045 -0.0215 -0.4231 -0.3289
 2766TIP3    H129713   5.113   2.485  14.074 -0.0307 -1.2790 -1.6933
 2766TIP3    H229714   5.263   2.492  14.092 -0.1830 -0.9136 -0.4977
 2767TIP3   OH229715   2.053   2.921  16.052 -0.1167  0.3486 -0.3391
 2767TIP3    H129716   2.011   2.947  16.134 -1.2868 -0.6586 -0.6153
 2767TIP3    H229717   2.128   2.868  16.079 -0.0619  0.6483  0.1023
 2768TIP3   OH229718   2.702   0.539  15.760  0.0443  0.1840 -0.6158
 2768TIP3    H129719   2.794   0.543  15.735 -0.3349  0.1037 -2.0847
 2768TIP3    H229720   2.668   0.461  15.716 -0.5821 -0.1376  0.4245
 2769TIP3   OH229721   1.001   6.047  13.607  0.1184  0.3396  0.0018
 2769TIP3    H129722   1.015   6.037  13.701 -0.7451  0.0761  0.1035
 2769TIP3    H229723   0.907   6.036  13.595  0.3442 -0.5880 -1.0061
 2770TIP3   OH229724   1.804   2.115  14.956 -0.8591 -0.5136 -0.5898
 2770TIP3    H129725   1.749   2.044  14.991 -0.2926 -1.1795 -1.0469
 2770TIP3    H229726   1.747   2.159  14.892 -1.3815 -0.2370  0.0578
 2771TIP3   OH229727   6.079   5.218   3.564  0.2452 -0.6364  0.1004
 2771TIP3    H129728   6.104   5.194   3.474  0.3317 -0.2878  0.0317
 2771TIP3    H229729   6.064   5.313   3.560 -1.1840 -0.8523  0.1230
 2772TIP3   OH229730   2.012   0.782  13.848  0.2211 -0.3965 -0.1184
 2772TIP3    H129731   2.096   0.740  13.833  0.1048 -0.4316 -0.6624
 2772TIP3    H229732   1.947   0.712  13.840 -0.1150  0.1488 -2.5874
 2773TIP3   OH229733   0.313   1.563  17.048 -0.8438 -0.4684 -0.2727
 2773TIP3    H129734   0.278   1.482  17.086  0.1294 -0.5080  0.5645
 2773TIP3    H229735   0.285   1.560  16.956 -0.5008 -1.9381 -0.3513
 2774TIP3   OH229736   2.625   2.415  14.570 -0.3505  0.0880 -0.0324
 2774TIP3    H129737   2.608   2.505  14.543  1.0676  0.3727  0.0245
 2774TIP3    H229738   2.641   2.420  14.664  0.7258 -0.0764 -0.1986
 2775TIP3   OH229739   4.124   1.087   4.744 -0.0340  0.3760  0.3289
 2775TIP3    H129740   4.202   1.035   4.730 -0.6207 -0.4615  0.1383
 2775TIP3    H229741   4.089   1.103   4.656  0.4613  1.5917  0.3403
 2776TIP3   OH229742   0.798   3.926  16.826 -0.1596  0.0952 -0.0054
 2776TIP3    H129743   0.710   3.891  16.812  1.1629 -3.3879 -0.1477
 2776TIP3    H229744   0.790   3.979  16.906 -2.2982 -0.5223  0.2203
 2777TIP3   OH229745   1.976   0.014  13.512  0.0025  0.2125 -0.0073
 2777TIP3    H129746   1.941   0.101  13.492 -2.3880 -0.3417  1.5082
 2777TIP3    H229747   1.954  -0.038  13.435 -2.7987 -0.1580  0.9620
 2778TIP3   OH229748   2.360   6.543  14.758 -0.0132  0.0322  0.1451
 2778TIP3    H129749   2.371   6.463  14.810 -1.2464 -0.5904 -0.5184
 2778TIP3    H229750   2.382   6.614  14.818  0.5134 -0.7761  0.9253
 2779TIP3   OH229751   2.360   6.255   6.045  0.2682 -0.2161 -0.0138
 2779TIP3    H129752   2.396   6.170   6.072  0.3943  0.0372  0.6381
 2779TIP3    H229753   2.406   6.318   6.100 -1.2932  0.0920  0.9505
 2780TIP3   OH229754   6.120   0.512   0.525  0.7539 -0.7801  0.0673
 2780TIP3    H129755   6.084   0.595   0.556  0.4579 -1.2823  1.0947
 2780TIP3    H229756   6.045   0.464   0.491  0.6446 -1.3518  1.1229
 2781TIP3   OH229757   1.346   5.212  14.103  0.2592 -0.3390  0.3401
 2781TIP3    H129758   1.369   5.232  14.012  1.9929  0.7873  0.9954
 2781TIP3    H229759   1.272   5.270  14.122  1.0910  0.7951  0.2036
 2782TIP3   OH229760   3.441   3.635  15.700 -0.6043  0.0318  0.1144
 2782TIP3    H129761   3.458   3.569  15.766 -0.6050 -0.7483 -0.6574
 2782TIP3    H229762   3.526   3.679  15.688 -0.0353 -1.3089 -0.9613
 2783TIP3   OH229763   2.714   3.372  13.084  0.2408 -0.3017 -0.0678
 2783TIP3    H129764   2.636   3.319  13.074  0.4169 -0.8348  1.3247
 2783TIP3    H229765   2.707   3.411  13.171  0.0857  2.0202 -1.0578
 2784TIP3   OH229766   2.471   2.677  13.929 -0.2965  0.1971 -0.2939
 2784TIP3    H129767   2.467   2.673  14.024 -0.3241 -0.2599 -0.3107
 2784TIP3    H229768   2.380   2.668  13.900 -0.3643  1.0196 -0.3441
 2785TIP3   OH229769   1.755   4.541   2.230 -0.0408  0.2221  0.3338
 2785TIP3    H129770   1.716   4.619   2.191 -0.6149 -0.6412 -0.8593
 2785TIP3    H229771   1.754   4.476   2.159 -0.6903 -1.2357  1.6492
 2786TIP3   OH229772   1.275   5.412   4.550 -0.1128 -0.1637 -0.1609
 2786TIP3    H129773   1.277   5.450   4.637 -0.9815 -2.3880  0.8617
 2786TIP3    H229774   1.288   5.319   4.564 -0.0772 -0.5259 -2.4289
 2787TIP3   OH229775   6.374   4.804  14.675 -0.4835 -0.7094  0.1865
 2787TIP3    H129776   6.297   4.795  14.730  0.5761 -1.6304  1.5568
 2787TIP3    H229777   6.447   4.810  14.737  0.5780 -0.1496 -1.0899
 2788TIP3   OH229778   2.237   4.009   2.655 -0.0596 -0.1192 -0.3636
 2788TIP3    H129779   2.156   4.038   2.613  0.3770 -1.3088 -2.0852
 2788TIP3    H229780   2.282   4.090   2.678 -2.0081  0.5615  1.1903
 2789TIP3   OH229781   4.651   4.874  13.379 -0.1891 -0.1519  0.1048
 2789TIP3    H129782   4.571   4.836  13.415 -0.3835  0.1452 -0.0182
 2789TIP3    H229783   4.646   4.967  13.401 -0.5944  0.1392 -1.2073
 2790TIP3   OH229784   6.348   3.099  11.966 -0.1076  0.2137  0.5254
 2790TIP3    H129785   6.302   3.154  11.903 -1.5036 -0.9117  0.5487
 2790TIP3    H229786   6.433   3.141  11.977 -1.0856  2.2815  0.4065
 2791TIP3   OH229787   0.152   0.323   1.097  0.5968  0.4673 -0.3823
 2791TIP3    H129788   0.100   0.313   1.178 -0.8150 -0.7227 -1.4071
 2791TIP3    H229789   0.153   0.235   1.059  2.0006  0.8438 -1.2332
 2792TIP3   OH229790   3.575   3.955  14.320 -0.0150  0.5881  0.3522
 2792TIP3    H129791   3.603   3.894  14.388  1.8292  0.3915 -0.5650
 2792TIP3    H229792   3.606   3.915  14.238  2.1503  3.2825 -0.1781
 2793TIP3   OH229793   2.629   0.802  16.039  0.1523  0.2582  0.1614
 2793TIP3    H129794   2.557   0.745  16.013  0.5478 -0.3033  0.2757
 2793TIP3    H229795   2.656   0.769  16.125 -0.3716  1.3592  0.7510
 2794TIP3   OH229796   0.083   5.857   5.276  0.1326 -0.4230  0.3581
 2794TIP3    H129797   0.085   5.771   5.318  0.4675 -0.9467 -0.6940
 2794TIP3    H229798   0.003   5.898   5.308 -1.5113 -2.2631 -1.2797
 2795TIP3   OH229799   2.382   6.698   1.305 -0.6793  0.3618  0.1518
 2795TIP3    H129800   2.296   6.690   1.265 -0.3292 -1.3663 -0.2912
 2795TIP3    H229801   2.443   6.674   1.235 -0.0190 -1.8247  1.4495
 2796TIP3   OH229802   4.388   4.177   5.629 -0.1261  0.6684  0.0928
 2796TIP3    H129803   4.301   4.167   5.590 -0.2812  1.9960  0.0857
 2796TIP3    H229804   4.399   4.099   5.683 -1.5448  0.7585  0.5222
 2797TIP3   OH229805   4.295   6.654  11.410 -0.4122  0.3752  0.0146
 2797TIP3    H129806   4.384   6.629  11.436 -0.5270 -0.9889 -0.8665
 2797TIP3    H229807   4.294   6.749  11.417  1.4680  0.4909 -1.0392
 2798TIP3   OH229808   0.632   1.098  16.141  0.1735  0.4972 -0.4899
 2798TIP3    H129809   0.566   1.155  16.100  0.2951 -0.3193 -1.8223
 2798TIP3    H229810   0.683   1.157  16.197 -0.8865  1.3620 -0.4227
 2799TIP3   OH229811   1.408   0.916  16.667  0.7869  0.9906 -0.4860
 2799TIP3    H129812   1.345   0.975  16.710  1.7639  0.1613  2.2196
 2799TIP3    H229813   1.471   0.975  16.626  0.0319  1.8393 -0.4386
 2800TIP3   OH229814   1.897   6.137   5.049  0.1248  0.4747  0.2597
 2800TIP3    H129815   1.814   6.130   5.002  0.4900  1.3691 -0.5273
 2800TIP3    H229816   1.879   6.197   5.121 -0.1371 -0.0269  0.6187
 2801TIP3   OH229817   5.771   3.177   4.609 -0.0382 -0.2618  0.2062
 2801TIP3    H129818   5.709   3.220   4.550  0.5573 -1.4731 -1.3692
 2801TIP3    H229819   5.821   3.248   4.648 -0.6644  0.5927 -0.5242
 2802TIP3   OH229820   4.032   4.616  17.104 -0.2946  0.4286 -0.1576
 2802TIP3    H129821   4.031   4.597  17.010  0.5900  1.3315 -0.3548
 2802TIP3    H229822   4.106   4.676  17.115 -0.8340  0.8819  1.0048
 2803TIP3   OH229823   3.997   5.823   3.236 -0.0010  0.3840  0.2004
 2803TIP3    H129824   4.084   5.808   3.202  0.2306  2.0038  0.0342
 2803TIP3    H229825   4.008   5.824   3.331 -0.3026 -2.0577  0.2896
 2804TIP3   OH229826   4.285   6.664  13.690  0.0934 -0.2802 -0.4227
 2804TIP3    H129827   4.219   6.597  13.708 -1.0753  1.1665  0.7899
 2804TIP3    H229828   4.367   6.615  13.683 -0.6617 -1.8013  0.9610
 2805TIP3   OH229829   6.525   0.448  12.083  0.0871  0.1540  0.0618
 2805TIP3    H129830   6.528   0.488  11.996  1.5497  0.7564  0.3733
 2805TIP3    H229831   6.432   0.449  12.107 -0.1767  1.1220 -0.9632
 2806TIP3   OH229832   5.977   6.080  11.767  0.2601  0.9490  0.4483
 2806TIP3    H129833   6.067   6.107  11.782  0.3359  0.3463  1.1047
 2806TIP3    H229834   5.964   6.092  11.673  1.5417 -0.4929  0.0661
 2807TIP3   OH229835   1.891   5.376   2.359  0.5005 -0.4969 -0.1219
 2807TIP3    H129836   1.949   5.446   2.328  0.2632 -0.1680  0.1745
 2807TIP3    H229837   1.950   5.312   2.398  0.5926  0.2943  1.0620
 2808TIP3   OH229838   0.007   5.458  10.376 -0.1737  0.5252 -0.2657
 2808TIP3    H129839   0.082   5.411  10.412 -0.4899 -0.7884 -1.2884
 2808TIP3    H229840   0.045   5.525  10.319  0.2526  0.8915  0.4432
 2809TIP3   OH229841   6.765   1.556   0.954 -0.4165 -0.1184  0.5630
 2809TIP3    H129842   6.748   1.572   0.861 -5.2076 -0.5629  1.2120
 2809TIP3    H229843   6.778   1.461   0.960 -0.9782 -0.2015  0.4633
 2810TIP3   OH229844   6.059   5.226  11.827 -0.3648 -0.1755 -0.2132
 2810TIP3    H129845   6.058   5.133  11.803 -2.3942 -0.7144  1.7995
 2810TIP3    H229846   6.110   5.229  11.908  0.3011  0.5873 -0.6531
 2811TIP3   OH229847   0.784   1.066  12.844  0.0887 -0.4724  0.5674
 2811TIP3    H129848   0.733   1.144  12.821 -1.0792 -0.9518  1.4732
 2811TIP3    H229849   0.869   1.080  12.802 -0.8376  0.2596 -1.1540
 2812TIP3   OH229850   1.309   6.482  15.785  0.2585  0.3676  0.0665
 2812TIP3    H129851   1.279   6.465  15.695  0.9212 -0.5496  0.0210
 2812TIP3    H229852   1.395   6.523  15.774 -0.5761  2.2231  0.2272
 2813TIP3   OH229853   1.172   5.971  15.127  0.2289 -0.3578  0.0481
 2813TIP3    H129854   1.210   6.055  15.099 -1.6886  0.6721  0.4671
 2813TIP3    H229855   1.175   5.974  15.223 -2.6185  0.5812  0.1524
 2814TIP3   OH229856   5.574   0.207   0.315 -0.2004 -0.3264 -0.4308
 2814TIP3    H129857   5.546   0.282   0.264  0.7244  0.0023 -0.4723
 2814TIP3    H229858   5.636   0.160   0.258  0.3063 -0.3353  0.1168
 2815TIP3   OH229859   4.291   6.127   5.728  0.0605  0.0789  0.4890
 2815TIP3    H129860   4.328   6.040   5.710 -0.0718  0.4254 -1.6048
 2815TIP3    H229861   4.227   6.111   5.797  0.8980 -1.2904  0.9816
 2816TIP3   OH229862   0.194   6.595  14.398  0.5907 -0.0984  0.2499
 2816TIP3    H129863   0.141   6.516  14.385  1.5452 -0.4825 -1.5554
 2816TIP3    H229864   0.146   6.663  14.351  1.2291 -0.2478 -0.6229
 2817TIP3   OH229865   3.688   5.391  12.847  0.3065  0.1349  0.2960
 2817TIP3    H129866   3.721   5.331  12.914 -3.3735 -3.7938 -1.1229
 2817TIP3    H229867   3.735   5.365  12.767 -0.4746 -0.1826 -0.0753
 2818TIP3   OH229868   1.152   0.749  14.254  0.2547  0.1440 -0.2515
 2818TIP3    H129869   1.170   0.740  14.160 -0.9834  1.8672 -0.6955
 2818TIP3    H229870   1.102   0.671  14.277  2.0528 -1.1457 -0.6171
 2819TIP3   OH229871   2.359   4.086  15.959 -0.1637 -0.0990  0.1145
 2819TIP3    H129872   2.412   4.160  15.990  0.6680 -1.4638  2.0488
 2819TIP3    H229873   2.352   4.028  16.035 -1.0866 -1.8537 -1.2777
 2820TIP3   OH229874   4.000   0.164  11.799  0.1827 -0.2053  0.2993
 2820TIP3    H129875   4.019   0.070  11.801 -0.9886 -0.4821 -0.7989
 2820TIP3    H229876   3.941   0.175  11.724 -0.1619  1.3204  0.7758
 2821TIP3   OH229877   2.386   5.020  15.427 -0.2233  0.0008  0.1859
 2821TIP3    H129878   2.434   5.036  15.345  0.7658  0.6220  0.8712
 2821TIP3    H229879   2.408   4.929  15.450  1.6150  0.6668  1.1244
 2822TIP3   OH229880   1.682   2.267  14.764 -0.2285 -0.1471 -0.0960
 2822TIP3    H129881   1.689   2.309  14.678 -0.6187  0.0920 -0.0082
 2822TIP3    H229882   1.660   2.338  14.824 -0.1264 -0.3440  0.1739
 2823TIP3   OH229883   1.897   6.061   6.566 -0.0614  0.3100 -0.1684
 2823TIP3    H129884   1.930   6.139   6.611  2.1421 -0.5820 -0.1490
 2823TIP3    H229885   1.863   6.093   6.483  1.0850  1.2845 -0.2716
 2824TIP3   OH229886   6.248   6.335  13.200 -0.4350 -0.1734  0.0801
 2824TIP3    H129887   6.328   6.369  13.160 -0.7591 -0.6562 -0.9934
 2824TIP3    H229888   6.233   6.392  13.276 -1.3111  2.4809 -2.0029
 2825TIP3   OH229889   0.372   1.376   1.385  0.0108 -0.1303 -0.2929
 2825TIP3    H129890   0.358   1.469   1.401 -0.0593  0.0820 -1.5495
 2825TIP3    H229891   0.284   1.340   1.374  0.0865 -0.1654 -0.7848
 2826TIP3   OH229892   4.830   6.338  11.419  0.5469 -0.4121 -1.0000
 2826TIP3    H129893   4.906   6.322  11.474 -1.0381  0.7185  1.6167
 2826TIP3    H229894   4.769   6.267  11.440 -1.7099  2.2019  1.8668
 2827TIP3   OH229895   2.378   5.057  13.126 -0.4827  0.0580  0.2013
 2827TIP3    H129896   2.308   5.121  13.145 -0.9458 -0.9172  1.8223
 2827TIP3    H229897   2.456   5.093  13.168 -0.2452  0.5914 -0.6740
 2828TIP3   OH229898   1.168   2.808   5.495  0.6542  0.1377 -0.1478
 2828TIP3    H129899   1.194   2.760   5.574 -0.0694  0.4548  0.2916
 2828TIP3    H229900   1.239   2.870   5.480  1.0011 -0.2163  0.0027
 2829TIP3   OH229901   3.503   3.512   5.515  0.2991  0.3420 -0.2592
 2829TIP3    H129902   3.527   3.543   5.602 -0.9223  0.9188 -0.1126
 2829TIP3    H229903   3.480   3.591   5.466 -0.1535 -0.0770 -0.7393
 2830TIP3   OH229904   1.165   1.629   5.769  0.5060 -0.5348  0.2944
 2830TIP3    H129905   1.207   1.697   5.717 -0.2746  1.1154  1.8057
 2830TIP3    H229906   1.114   1.579   5.705  1.3506  0.0583 -0.8765
 2831TIP3   OH229907   1.958   4.833  16.536  0.5149  0.0785  0.2934
 2831TIP3    H129908   1.924   4.793  16.457 -0.6170  1.6363 -0.0331
 2831TIP3    H229909   2.053   4.832  16.525  0.3871 -0.2892 -0.7901
 2832TIP3   OH229910   2.802   3.429  15.792 -0.2489  0.1375 -0.1534
 2832TIP3    H129911   2.849   3.345  15.792  0.0467  0.2859  1.6090
 2832TIP3    H229912   2.759   3.432  15.706  0.4569 -1.4072 -0.5869
 2833TIP3   OH229913   1.626   4.987   0.853 -0.1881 -0.1625 -0.2174
 2833TIP3    H129914   1.586   5.034   0.926  3.2785  2.4762  0.1007
 2833TIP3    H229915   1.635   4.897   0.885 -1.1774  0.3578  1.5765
 2834TIP3   OH229916   4.292   3.707  10.687 -0.1923  0.3413 -0.0978
 2834TIP3    H129917   4.289   3.638  10.621  0.9619  0.6043 -0.4391
 2834TIP3    H229918   4.383   3.737  10.686  0.0815 -0.2902  2.2596
 2835TIP3   OH229919   0.491   5.273   2.922  0.8053  0.0216  0.0110
 2835TIP3    H129920   0.404   5.312   2.912  1.1734  0.5805 -1.0245
 2835TIP3    H229921   0.535   5.289   2.838  1.1711 -2.0836 -0.2219
 2836TIP3   OH229922   4.468   1.015   2.676  0.1787 -0.6165 -0.3878
 2836TIP3    H129923   4.540   1.073   2.701  0.5506 -1.5624  0.7485
 2836TIP3    H229924   4.461   1.025   2.581 -0.6892  2.3654 -0.0824
 2837TIP3   OH229925   6.548   2.186   6.292  0.9174 -0.0679 -0.4601
 2837TIP3    H129926   6.622   2.242   6.318 -0.9056  0.9451  2.7684
 2837TIP3    H229927   6.472   2.245   6.293 -0.4065 -1.7361 -0.9215
 2838TIP3   OH229928   6.395   5.403   1.111  0.1451  0.7413 -0.0204
 2838TIP3    H129929   6.488   5.425   1.118  0.6527 -1.3090 -0.0920
 2838TIP3    H229930   6.388   5.354   1.029 -0.7143 -0.4156  0.7323
 2839TIP3   OH229931   4.165   3.949   4.665 -0.6034  0.9022  0.2677
 2839TIP3    H129932   4.254   3.924   4.643 -0.0998  2.1668  0.8156
 2839TIP3    H229933   4.121   3.962   4.581 -0.1588  0.6389 -0.0005
 2840TIP3   OH229934   4.971   1.524   1.133 -0.2231 -0.8767  0.0034
 2840TIP3    H129935   5.046   1.537   1.191  0.1567 -0.3359 -0.6171
 2840TIP3    H229936   4.994   1.448   1.080 -0.3353 -1.0238  0.1619
 2841TIP3   OH229937   2.221   2.887   6.289  0.7661 -0.1125  0.2932
 2841TIP3    H129938   2.260   2.941   6.220  1.2659 -0.7432  0.0802
 2841TIP3    H229939   2.245   2.797   6.266 -0.1822 -0.4502  0.5654
 2842TIP3   OH229940   1.684   4.607  15.898  0.0090  0.1680 -0.1321
 2842TIP3    H129941   1.748   4.593  15.827  0.5341  0.6674  0.2307
 2842TIP3    H229942   1.670   4.521  15.935  1.9723  0.3101  1.0437
 2843TIP3   OH229943   5.714   1.947  14.343  0.0306 -0.4748 -0.4065
 2843TIP3    H129944   5.741   1.900  14.422  0.1904 -1.6273 -1.1345
 2843TIP3    H229945   5.791   1.998  14.319 -0.2772  0.4838  0.6173
 2844TIP3   OH229946   6.130   1.663  15.867  0.1522 -0.4610 -0.2820
 2844TIP3    H129947   6.209   1.674  15.919 -1.1302 -0.4382  1.7148
 2844TIP3    H229948   6.094   1.751  15.858  0.0254 -0.5480 -0.6381
 2845TIP3   OH229949   4.554   1.924   0.837  0.0779 -0.1020  0.4164
 2845TIP3    H129950   4.550   2.019   0.854 -1.3199  0.3593 -2.2147
 2845TIP3    H229951   4.647   1.905   0.826  0.1594  1.5491 -2.0168
 2846TIP3   OH229952   6.645   0.042  16.148  0.6934 -0.3912  0.2546
 2846TIP3    H129953   6.736   0.064  16.128  1.0442 -0.4868  1.6783
 2846TIP3    H229954   6.629   0.083  16.233  0.1672 -2.4375  1.1668
 2847TIP3   OH229955   0.998   5.904   5.600 -0.2647 -0.4346  0.3119
 2847TIP3    H129956   1.024   5.990   5.631  1.2800 -1.3297  1.5639
 2847TIP3    H229957   0.904   5.899   5.617  0.0078  0.2401  2.0689
 2848TIP3   OH229958   0.185   2.801   6.242 -0.0549 -0.1046  0.3468
 2848TIP3    H129959   0.236   2.782   6.321  1.3841  0.6476 -0.3762
 2848TIP3    H229960   0.209   2.733   6.180 -1.8991 -1.2535  0.8291
 2849TIP3   OH229961   0.157   1.270   4.346  0.1195 -0.2402  0.3850
 2849TIP3    H129962   0.169   1.362   4.324  0.3653 -0.6497 -1.2817
 2849TIP3    H229963   0.106   1.271   4.427 -0.7078  1.3475 -0.1336
 2850TIP3   OH229964   5.559   4.335  11.342 -0.0469  0.4394  0.3034
 2850TIP3    H129965   5.563   4.243  11.369 -0.2078  0.2641 -0.2574
 2850TIP3    H229966   5.540   4.383  11.423 -0.5865 -0.0777  0.4924
 2851TIP3   OH229967   3.786   0.198   4.120  0.1223 -0.0098 -0.1496
 2851TIP3    H129968   3.698   0.173   4.148  0.0325 -0.7687 -1.0851
 2851TIP3    H229969   3.775   0.225   4.029  0.5694  1.5501  0.2460
 2852TIP3   OH229970   2.530   3.418   3.582  0.0261 -0.0236 -0.4134
 2852TIP3    H129971   2.518   3.432   3.488  0.8014 -0.3192 -0.5610
 2852TIP3    H229972   2.611   3.465   3.602  0.0280 -0.2278  0.0450
 2853TIP3   OH229973   5.578   0.760  12.029 -0.3571  0.0764  0.2262
 2853TIP3    H129974   5.631   0.709  11.968 -2.3352  0.6885 -2.0900
 2853TIP3    H229975   5.642   0.811  12.079  1.2848  0.7222 -2.4166
 2854TIP3   OH229976   2.778   4.496  15.364 -0.0404  0.4021 -0.1876
 2854TIP3    H129977   2.813   4.408  15.354  0.1186  0.5709 -1.1143
 2854TIP3    H229978   2.719   4.508  15.290 -1.3218  0.4873  0.8291
 2855TIP3   OH229979   6.561   6.644  13.764 -0.3670  0.4325 -0.5840
 2855TIP3    H129980   6.604   6.719  13.722 -1.1667  0.8092 -0.7266
 2855TIP3    H229981   6.513   6.681  13.837 -0.7750  0.0621 -0.6628
 2856TIP3   OH229982   0.073   3.279   6.442 -0.3196  0.0153  0.0368
 2856TIP3    H129983   0.120   3.309   6.520 -0.2534 -0.7485  0.3027
 2856TIP3    H229984   0.127   3.207   6.409 -0.5835  0.0432 -0.4516
 2857TIP3   OH229985   1.509   2.580  15.236 -0.3812  0.1666  0.1342
 2857TIP3    H129986   1.470   2.634  15.167  0.0685 -0.8042 -0.8945
 2857TIP3    H229987   1.597   2.616  15.248 -1.1311  1.5901  1.6110
 2858TIP3   OH229988   2.932   3.676  12.490  0.5459 -0.7362 -0.3195
 2858TIP3    H129989   2.863   3.623  12.529 -0.0829 -0.5496 -1.1654
 2858TIP3    H229990   2.943   3.640  12.402 -0.0997  0.6993 -1.0166
 2859TIP3   OH229991   3.631   0.829  14.018 -0.4885  0.1080 -0.2423
 2859TIP3    H129992   3.669   0.744  13.995  1.3057  0.6911  0.4893
 2859TIP3    H229993   3.696   0.893  13.987 -0.7153  1.1038  1.3288
 2860TIP3   OH229994   5.337   3.791   4.853 -0.0033  0.2615  0.2769
 2860TIP3    H129995   5.396   3.808   4.927  0.3444 -1.4211  0.3884
 2860TIP3    H229996   5.302   3.704   4.870 -2.6139  1.2706  0.2654
 2861TIP3   OH229997   1.767   2.637   5.670 -0.0034  0.5095  0.2035
 2861TIP3    H129998   1.689   2.687   5.644 -0.5450  0.2970  1.3874
 2861TIP3    H229999   1.813   2.694   5.730  1.4026  1.1170 -1.4219
 2862TIP3   OH230000   6.299   3.470  13.608  0.5448 -0.5172 -0.3263
 2862TIP3    H130001   6.338   3.391  13.570 -0.8904 -2.0601  1.3387
 2862TIP3    H230002   6.358   3.492  13.680 -0.4647 -1.5968  0.8409
 2863TIP3   OH230003   3.239   1.981  13.582 -0.2396  0.0354  0.6421
 2863TIP3    H130004   3.232   2.024  13.496 -0.3043 -2.0473 -0.4314
 2863TIP3    H230005   3.148   1.969  13.610 -0.3531 -1.9120 -0.4032
 2864TIP3   OH230006   1.724   2.663   5.994 -0.1449  0.1995 -0.1626
 2864TIP3    H130007   1.777   2.676   6.073  0.0361  0.9875 -0.4140
 2864TIP3    H230008   1.639   2.701   6.016  0.0775  0.9297 -0.5397
 2865TIP3   OH230009   3.864   3.146  14.454 -0.0120 -0.5337  0.1620
 2865TIP3    H130010   3.803   3.195  14.399  0.8100  1.5172  1.0247
 2865TIP3    H230011   3.811   3.113  14.526 -0.2657  0.5117  0.4581
 2866TIP3   OH230012   1.589   1.781   1.299  0.2673 -0.1136 -0.4552
 2866TIP3    H130013   1.597   1.731   1.380 -0.0494 -1.0365 -0.9897
 2866TIP3    H230014   1.560   1.868   1.327 -0.6075 -0.6577  0.3494
 2867TIP3   OH230015   4.071   5.078  15.729  0.0808 -0.0633  0.4465
 2867TIP3    H130016   4.089   5.049  15.818  1.6377  0.4595  0.3171
 2867TIP3    H230017   4.153   5.118  15.699 -0.6801  0.5409 -0.9136
 2868TIP3   OH230018   0.874   6.700  12.844 -0.4234 -0.5916  0.7047
 2868TIP3    H130019   0.822   6.628  12.880  0.5374 -0.8275  1.6245
 2868TIP3    H230020   0.897   6.754  12.919  1.7934 -1.2114  0.5056
 2869TIP3   OH230021   2.877   2.117  12.874 -0.3991  1.0364  0.1808
 2869TIP3    H130022   2.867   2.076  12.960 -0.6512  2.4306  0.8207
 2869TIP3    H230023   2.925   2.198  12.892 -0.8292  1.5417 -0.9397
 2870TIP3   OH230024   0.171   3.487   3.337 -0.1907 -0.3106 -0.3125
 2870TIP3    H130025   0.092   3.532   3.308  0.1632  0.4676 -0.1096
 2870TIP3    H230026   0.222   3.474   3.258 -0.6636 -1.0988 -0.4876
 2871TIP3   OH230027   3.405   6.561   0.406  0.2418 -0.3128  0.7773
 2871TIP3    H130028   3.405   6.515   0.322  0.0812 -0.8225  1.0557
 2871TIP3    H230029   3.385   6.493   0.471  0.1013  0.1288  1.2002
 2872TIP3   OH230030   2.084   2.156   3.201 -0.1344  0.4951  0.3365
 2872TIP3    H130031   2.133   2.195   3.273  1.9241  0.8779 -1.1960
 2872TIP3    H230032   2.056   2.071   3.234  1.1140  0.5074  1.4761
 2873TIP3   OH230033   2.468   4.087   1.539 -0.2398  0.0637  0.1082
 2873TIP3    H130034   2.562   4.099   1.546 -0.2903 -0.1788  1.2677
 2873TIP3    H230035   2.453   3.997   1.567 -0.7573 -0.0987 -0.6603
 2874TIP3   OH230036   2.026   2.552   6.443  0.1183  0.0181 -0.5226
 2874TIP3    H130037   2.100   2.605   6.472  1.4448 -2.3283  0.5395
 2874TIP3    H230038   2.061   2.463   6.437 -2.4466 -1.0266 -0.6873
 2875TIP3   OH230039   0.858   1.494   3.808 -0.2864  0.1289 -0.2860
 2875TIP3    H130040   0.885   1.417   3.858 -1.3403 -0.4177 -0.5440
 2875TIP3    H230041   0.912   1.490   3.728  1.4246  1.0267  0.7899
 2876TIP3   OH230042   6.572   4.114   1.136 -0.0521  0.0871  0.0794
 2876TIP3    H130043   6.635   4.054   1.176  0.5019  0.0414 -0.8284
 2876TIP3    H230044   6.626   4.172   1.081 -0.5241  1.6974  1.2695
 2877TIP3   OH230045   1.897   3.148   3.559 -0.0751  0.2550 -0.2992
 2877TIP3    H130046   1.907   3.239   3.532  0.3566  0.1922 -0.3517
 2877TIP3    H230047   1.837   3.111   3.494  1.5522 -0.0888 -1.6313
 2878TIP3   OH230048   3.769   1.211   5.958  0.0801  0.5502 -0.3505
 2878TIP3    H130049   3.767   1.162   6.040 -0.1974  0.7761 -0.2240
 2878TIP3    H230050   3.850   1.183   5.915 -0.2329 -0.2593 -0.4224
 2879TIP3   OH230051   0.003   4.532  11.879 -0.6187  0.0997  0.3503
 2879TIP3    H130052  -0.059   4.471  11.918 -1.1437  0.4257  0.0384
 2879TIP3    H230053   0.083   4.521  11.930 -0.4813 -1.3477 -0.1363
 2880TIP3   OH230054   5.479   5.060   3.862 -0.0307  0.0732  0.1906
 2880TIP3    H130055   5.502   5.069   3.954 -0.1063 -0.9941  0.3163
 2880TIP3    H230056   5.384   5.046   3.862 -0.0611  0.2719 -0.0578
 2881TIP3   OH230057   1.656   3.985   0.667  0.4599 -0.1555  0.2657
 2881TIP3    H130058   1.629   4.069   0.705 -1.2710  0.9372 -3.1679
 2881TIP3    H230059   1.749   3.997   0.647  0.4523  0.6060  0.6594
 2882TIP3   OH230060   6.068   1.566   2.236  0.0839  0.0160  0.0153
 2882TIP3    H130061   6.146   1.583   2.288  0.6564 -0.2032 -0.7568
 2882TIP3    H230062   6.080   1.477   2.203  0.0528  0.3869 -1.0236
 2883TIP3   OH230063   4.490   2.924   1.988 -0.5663  0.4561  0.3620
 2883TIP3    H130064   4.511   2.900   2.078  0.0898  0.7750  0.3001
 2883TIP3    H230065   4.466   3.017   1.994 -1.1311  0.3160  0.2997
 2884TIP3   OH230066   0.750   5.644   0.555  0.2141  0.4783  0.3810
 2884TIP3    H130067   0.765   5.674   0.644 -0.8493  0.1954  0.6580
 2884TIP3    H230068   0.663   5.605   0.556  0.3601  0.0820 -0.6791
 2885TIP3   OH230069   2.828   3.585  12.962  0.4887 -0.0466 -0.1535
 2885TIP3    H130070   2.754   3.539  13.000  1.0401 -1.6130 -0.9276
 2885TIP3    H230071   2.887   3.601  13.035 -0.3762  0.7666  0.3772
 2886TIP3   OH230072   4.014   6.453  15.037  0.0936  0.1546 -0.6632
 2886TIP3    H130073   3.951   6.389  15.068 -2.5165  1.7992 -2.4337
 2886TIP3    H230074   3.987   6.473  14.948  0.8290  3.7010 -0.1720
 2887TIP3   OH230075   0.520   1.901   0.893  0.5264  0.7829 -0.7556
 2887TIP3    H130076   0.438   1.939   0.863 -0.3687 -0.4586  0.0717
 2887TIP3    H230077   0.541   1.947   0.974 -1.7825 -1.9922  1.5238
 2888TIP3   OH230078   5.173   5.773  12.837  0.5039 -0.1238 -0.2092
 2888TIP3    H130079   5.113   5.808  12.903 -0.7275 -1.2543 -0.7092
 2888TIP3    H230080   5.191   5.847  12.779  0.5728  0.5429  0.6522
 2889TIP3   OH230081   1.987   1.909   3.282 -0.1186  0.1426 -0.3900
 2889TIP3    H130082   1.936   1.895   3.202 -0.6622  0.6137 -0.1333
 2889TIP3    H230083   1.921   1.925   3.350  0.3819  2.0661 -0.3194
 2890TIP3   OH230084   3.188   3.993  17.140 -0.4954 -0.1686 -0.6507
 2890TIP3    H130085   3.107   4.000  17.190  0.0549  0.9891  0.0836
 2890TIP3    H230086   3.243   3.934  17.191 -0.4515 -0.0720 -0.5861
 2891TIP3   OH230087   1.782   4.417  16.217 -0.0181 -0.6532 -0.5291
 2891TIP3    H130088   1.852   4.421  16.152 -0.0175 -1.4395 -0.5800
 2891TIP3    H230089   1.740   4.333  16.202 -1.5600  0.1972 -1.0830
 2892TIP3   OH230090   0.211   3.068   0.747  0.4809 -0.2267  0.2834
 2892TIP3    H130091   0.135   3.014   0.725  1.4782 -1.7791  0.5786
 2892TIP3    H230092   0.179   3.158   0.740 -1.1149 -0.8351 -0.5699
 2893TIP3   OH230093   6.376   1.867   2.649 -0.3007  0.3412 -0.5450
 2893TIP3    H130094   6.403   1.938   2.591  1.4896  1.7268  1.8588
 2893TIP3    H230095   6.288   1.891   2.677  1.3487  3.3207  2.5707
 2894TIP3   OH230096   2.900   5.549  13.463  0.4338 -0.1743 -0.2698
 2894TIP3    H130097   2.950   5.523  13.540 -0.4212 -1.5416 -0.1603
 2894TIP3    H230098   2.962   5.546  13.391  1.0281  0.2778  0.2176
 2895TIP3   OH230099   1.630   3.835  10.754 -0.6431 -0.3720 -0.1789
 2895TIP3    H130100   1.607   3.902  10.690  0.4749 -1.2779 -1.5576
 2895TIP3    H230101   1.700   3.873  10.805  2.7023 -1.8103 -3.4454
 2896TIP3   OH230102   1.428   0.536   4.628  0.5847 -0.0594  0.3864
 2896TIP3    H130103   1.501   0.514   4.571 -0.2945  0.8581 -1.1417
 2896TIP3    H230104   1.356   0.482   4.597  0.5539 -0.8159  1.7561
 2897TIP3   OH230105   1.061   4.066   5.475 -0.0795  0.0304 -0.4896
 2897TIP3    H130106   1.020   3.980   5.469  2.2879 -1.2360  0.6821
 2897TIP3    H230107   1.061   4.085   5.569 -0.2728  1.1617 -0.7153
 2898TIP3   OH230108   6.721   5.529   3.003  0.7730  0.3451 -0.0831
 2898TIP3    H130109   6.792   5.578   2.961 -0.4800  1.4246 -1.0313
 2898TIP3    H230110   6.687   5.473   2.933  2.2585 -1.9718  1.0316
 2899TIP3   OH230111   5.954   4.981  10.957  0.5189 -0.3734 -0.3011
 2899TIP3    H130112   5.906   4.938  10.886 -2.7903 -0.0348  1.6264
 2899TIP3    H230113   6.035   5.012  10.916 -1.2970 -0.1465 -3.9345
 2900TIP3   OH230114   6.775   6.662  17.088  0.0844  0.0512  0.1412
 2900TIP3    H130115   6.811   6.750  17.092 -0.8761  0.4143  1.3039
 2900TIP3    H230116   6.727   6.652  17.170 -0.5306 -1.2403 -0.3521
 2901TIP3   OH230117   0.492   0.036  15.033  0.3254 -0.2006  0.2273
 2901TIP3    H130118   0.523   0.080  14.954  0.0988 -0.0161  0.2410
 2901TIP3    H230119   0.397   0.029  15.022  0.0923  1.2365  1.1784
 2902TIP3   OH230120   4.207   4.161   6.093  0.0093  0.9351  0.6212
 2902TIP3    H130121   4.256   4.196   6.167  0.1115  0.3068  0.8571
 2902TIP3    H230122   4.211   4.066   6.105 -0.3783  0.8485  0.0703
 2903TIP3   OH230123   0.814   0.582  15.355 -0.4420 -0.4299 -0.3645
 2903TIP3    H130124   0.898   0.536  15.359 -0.9152 -1.2295  0.9798
 2903TIP3    H230125   0.775   0.566  15.441 -1.5911  0.6606 -0.6761
 2904TIP3   OH230126   1.571   1.697  16.350  0.6730  0.2586  0.3994
 2904TIP3    H130127   1.596   1.616  16.396 -1.8621 -1.4569 -1.1144
 2904TIP3    H230128   1.644   1.714  16.291  2.0280  0.0920  1.9800
 2905TIP3   OH230129   4.813   2.027  12.089 -0.2357  0.3461 -0.3208
 2905TIP3    H130130   4.790   2.001  11.999 -0.2431  0.0766 -0.2419
 2905TIP3    H230131   4.742   2.086  12.115 -0.3568  0.2408 -0.4087
 2906TIP3   OH230132   5.755   6.493   4.305 -0.2908  0.2281 -0.5091
 2906TIP3    H130133   5.742   6.452   4.391  3.4796 -1.0086 -0.4565
 2906TIP3    H230134   5.776   6.584   4.324 -1.8249  0.5445 -0.2698
 2907TIP3   OH230135   0.072   1.419   1.907 -0.1529  0.2589 -0.3105
 2907TIP3    H130136   0.147   1.446   1.961  0.0435 -0.5085 -0.1952
 2907TIP3    H230137   0.103   1.340   1.861 -0.8418  0.0253 -0.3739
 2908TIP3   OH230138   5.211   4.192  11.376 -0.7775 -0.3919 -0.5993
 2908TIP3    H130139   5.264   4.231  11.306 -1.9616 -1.4041 -2.1014
 2908TIP3    H230140   5.273   4.142  11.428  0.6281  2.6996  0.8506
 2909TIP3   OH230141   0.512   0.217   5.228 -0.0082 -0.3622 -0.0697
 2909TIP3    H130142   0.424   0.254   5.233  0.1306 -0.2787  2.2818
 2909TIP3    H230143   0.525   0.173   5.312  2.0624 -0.6550 -0.5079
 2910TIP3   OH230144   4.277   3.639  15.101 -0.0069 -0.5553 -0.0079
 2910TIP3    H130145   4.339   3.696  15.055  1.6681 -1.9940  0.3950
 2910TIP3    H230146   4.215   3.612  15.034 -0.5848  1.3843 -0.2969
 2911TIP3   OH230147   0.796   5.324   1.297  0.4418 -0.2847  0.1687
 2911TIP3    H130148   0.776   5.414   1.271 -0.3406 -1.3206 -3.0907
 2911TIP3    H230149   0.842   5.332   1.380 -0.4154  3.0691  0.3782
 2912TIP3   OH230150   3.537   0.313  14.514  0.3323 -0.3402 -0.0468
 2912TIP3    H130151   3.445   0.295  14.534  0.4001  0.8645  1.5365
 2912TIP3    H230152   3.536   0.402  14.478  0.8131 -0.5103 -0.4758
 2913TIP3   OH230153   3.818   2.834  14.490  0.7127 -0.5574  0.5442
 2913TIP3    H130154   3.776   2.858  14.573  0.9690 -0.8689  0.7636
 2913TIP3    H230155   3.870   2.757  14.511 -0.2936 -1.4533 -0.2288
 2914TIP3   OH230156   1.122   2.139  13.009 -0.0707 -0.4433  0.6800
 2914TIP3    H130157   1.090   2.049  13.002  2.0915 -1.1994 -0.0292
 2914TIP3    H230158   1.181   2.149  12.934 -1.8800  2.2629 -0.4364
 2915TIP3   OH230159   0.457   5.417   1.449  0.4887  0.3950  1.2970
 2915TIP3    H130160   0.433   5.350   1.384  0.8903  1.3430  0.1379
 2915TIP3    H230161   0.375   5.443   1.489  0.3295 -0.7787  1.7371
 2916TIP3   OH230162   1.034   6.070   0.081  0.5300 -0.3246 -0.2009
 2916TIP3    H130163   1.114   6.101   0.038  0.0402 -0.3752 -1.1444
 2916TIP3    H230164   0.969   6.137   0.062  0.3652 -0.2244  0.6716
 2917TIP3   OH230165   0.429   2.632  16.773 -0.1669 -0.6856 -0.0189
 2917TIP3    H130166   0.521   2.652  16.789 -0.6693  1.3316  0.3733
 2917TIP3    H230167   0.413   2.663  16.684  0.2671 -3.7183 -1.2180
 2918TIP3   OH230168   1.914   2.670   0.179 -0.4114  0.2926 -0.1455
 2918TIP3    H130169   1.992   2.670   0.123  0.0740  0.9575  0.5178
 2918TIP3    H230170   1.929   2.599   0.241 -0.4121  0.3152 -0.1197
 2919TIP3   OH230171   3.888   3.599  14.886  0.5583  0.0865  0.0962
 2919TIP3    H130172   3.895   3.572  14.977  1.7998 -0.8682 -0.2786
 2919TIP3    H230173   3.805   3.561  14.856  0.5854 -0.3484  0.5694
 2920TIP3   OH230174   5.427   2.567   5.139 -0.5497  0.3686 -0.2435
 2920TIP3    H130175   5.402   2.499   5.202 -1.0475  0.9013  0.1422
 2920TIP3    H230176   5.343   2.599   5.104 -0.3673  1.4698  0.3156
 2921TIP3   OH230177   5.987   1.920  13.268  0.5035  0.1462 -0.0476
 2921TIP3    H130178   5.921   1.976  13.227  0.7557  0.2674 -0.2878
 2921TIP3    H230179   5.938   1.842  13.296 -0.1196  1.0986  1.5730
 2922TIP3   OH230180   3.501   6.486   1.099 -0.6590  0.0049  0.1128
 2922TIP3    H130181   3.435   6.469   1.033  0.2642  2.0987 -1.4154
 2922TIP3    H230182   3.457   6.543   1.163 -1.0595 -0.6534  0.4261
 2923TIP3   OH230183   4.952   2.174   3.878 -0.3896  0.4864 -0.5893
 2923TIP3    H130184   4.892   2.108   3.843  0.6935 -0.3676 -0.8732
 2923TIP3    H230185   4.908   2.257   3.861 -3.0905 -0.2382  2.2988
 2924TIP3   OH230186   4.013   3.298  12.233 -0.6242  0.0013  0.4145
 2924TIP3    H130187   4.050   3.385  12.214 -0.1048 -0.4626 -0.7486
 2924TIP3    H230188   3.989   3.263  12.147 -0.1799 -1.2926  0.8070
 2925TIP3   OH230189   2.030   0.283   4.062  0.9890  0.0479  0.2587
 2925TIP3    H130190   1.935   0.281   4.071  0.7206  0.4879 -2.2760
 2925TIP3    H230191   2.055   0.193   4.042  1.0597  0.0627  0.2782
 2926TIP3   OH230192   3.806   5.740   3.684  0.7325 -0.1294 -1.0564
 2926TIP3    H130193   3.868   5.686   3.732  0.9402 -0.7761 -2.0331
 2926TIP3    H230194   3.810   5.707   3.594  0.6768  1.3402 -1.6166
 2927TIP3   OH230195   0.148   2.867  15.273  0.2604 -0.2700  0.4568
 2927TIP3    H130196   0.237   2.874  15.239  0.6737  1.2531  1.8185
 2927TIP3    H230197   0.151   2.911  15.358 -1.8723  0.0715  0.3771
 2928TIP3   OH230198   4.167   0.249   4.585  0.3648  0.0633 -0.4943
 2928TIP3    H130199   4.260   0.232   4.568 -0.2795 -2.1198 -2.0855
 2928TIP3    H230200   4.140   0.307   4.514  0.2512 -0.1861 -0.6542
 2929TIP3   OH230201   5.247   6.745   3.315  0.5714  0.3539  0.6313
 2929TIP3    H130202   5.296   6.668   3.341 -0.9146 -0.0120  2.4748
 2929TIP3    H230203   5.165   6.710   3.278  0.5633  1.0032  0.0266
 2930TIP3   OH230204   6.614   0.236   4.255 -0.2279  0.2217  0.0953
 2930TIP3    H130205   6.664   0.217   4.176 -0.3479 -0.8273  0.2615
 2930TIP3    H230206   6.587   0.327   4.246 -0.9072 -0.1252 -1.4438
 2931TIP3   OH230207   0.816   1.440   3.151  0.0284 -0.4279 -0.3937
 2931TIP3    H130208   0.776   1.367   3.104 -1.0202 -0.2057  0.1292
 2931TIP3    H230209   0.908   1.438   3.125  0.0472 -2.0198 -0.2713
 2932TIP3   OH230210   5.442   3.625  13.589  0.1980 -0.1251 -0.4850
 2932TIP3    H130211   5.464   3.632  13.682  0.1120  1.5771 -0.5894
 2932TIP3    H230212   5.401   3.708  13.567  1.2934 -0.0580 -2.3450
 2933TIP3   OH230213   4.716   6.150  16.011 -0.0602 -0.0882  0.3717
 2933TIP3    H130214   4.805   6.115  16.001  0.2011  0.4847  0.6604
 2933TIP3    H230215   4.715   6.227  15.955  0.2567  1.0439  1.8918
 2934TIP3   OH230216   0.457   1.402   2.325 -0.5240  0.1087  0.2489
 2934TIP3    H130217   0.514   1.478   2.313 -0.2087 -0.1862 -0.1385
 2934TIP3    H230218   0.492   1.336   2.265 -3.4436  1.1064 -2.7024
 2935TIP3   OH230219   2.183   4.967   5.240 -0.8838 -0.6364  0.4147
 2935TIP3    H130220   2.183   4.918   5.322 -1.2883  1.3365  1.6253
 2935TIP3    H230221   2.220   4.906   5.176 -0.7539 -2.2777  2.0071
 2936TIP3   OH230222   3.484   6.064  16.502 -0.4210 -0.1933 -0.4321
 2936TIP3    H130223   3.405   6.021  16.469 -0.2758 -0.3906 -0.5222
 2936TIP3    H230224   3.452   6.124  16.569 -0.7331  0.2938 -1.0137
 2937TIP3   OH230225   0.091   5.281  14.018  0.1128 -0.4293  0.1166
 2937TIP3    H130226   0.093   5.211  14.082  0.4669 -0.0443  0.5304
 2937TIP3    H230227   0.054   5.241  13.939 -2.6300 -0.2877  1.2785
 2938TIP3   OH230228   3.789   3.015   6.288  0.3960 -0.1405 -0.2010
 2938TIP3    H130229   3.823   3.086   6.232  1.9254 -2.0277 -1.7433
 2938TIP3    H230230   3.708   2.988   6.246  0.9770 -0.8082 -0.9153
 2939TIP3   OH230231   5.530   0.928   3.995 -0.5061 -0.0336 -0.1686
 2939TIP3    H130232   5.459   0.991   3.988 -1.8573 -1.6231 -1.2007
 2939TIP3    H230233   5.521   0.873   3.917  1.6237 -0.4995 -0.1200
 2940TIP3   OH230234   6.446   4.052   3.072 -0.1777 -0.6004 -0.8568
 2940TIP3    H130235   6.406   4.097   2.998  0.0468  0.4129 -0.3745
 2940TIP3    H230236   6.424   3.960   3.059 -2.1762 -0.1360 -0.8811
 2941TIP3   OH230237   0.586   0.165   2.474 -0.1913  0.3495 -0.4887
 2941TIP3    H130238   0.586   0.082   2.522 -0.8969  0.0884 -0.9256
 2941TIP3    H230239   0.658   0.215   2.511 -0.8626  0.2292  0.9904
 2942TIP3   OH230240   0.854   3.246   1.510  0.2080 -0.0068  0.0517
 2942TIP3    H130241   0.819   3.333   1.525 -0.1024  0.0695 -1.0522
 2942TIP3    H230242   0.922   3.258   1.443 -0.6413 -0.7652 -0.9758
 2943TIP3   OH230243   4.432   0.477  14.548  0.1172 -0.0683  0.3728
 2943TIP3    H130244   4.491   0.528  14.491 -0.5548  1.9056  1.3931
 2943TIP3    H230245   4.344   0.502  14.520 -0.2255  0.8748  2.1655
 2944TIP3   OH230246   6.581   0.041   1.230 -0.6967 -0.1689 -0.5249
 2944TIP3    H130247   6.640  -0.033   1.219 -0.6126 -0.3359  0.9438
 2944TIP3    H230248   6.499   0.001   1.261 -1.0241  0.2313 -0.8766
 2945TIP3   OH230249   0.513   6.541  17.174  0.3421 -0.2642 -0.0045
 2945TIP3    H130250   0.537   6.448  17.174 -2.9111 -1.1721  1.7469
 2945TIP3    H230251   0.420   6.542  17.152 -0.4115  2.3063  2.8972
 2946TIP3   OH230252   3.210   2.513   4.689 -0.4925 -0.1158  0.0906
 2946TIP3    H130253   3.184   2.447   4.754 -1.7265  1.5648  1.3560
 2946TIP3    H230254   3.268   2.466   4.630 -0.0280 -1.9248  1.9058
 2947TIP3   OH230255   5.755   4.319   4.235  0.1036  0.3940 -0.0061
 2947TIP3    H130256   5.821   4.255   4.264 -0.6302 -0.6226 -0.5310
 2947TIP3    H230257   5.671   4.280   4.262 -0.3436  1.1948 -0.2369
 2948TIP3   OH230258   2.702   3.220   6.440 -0.2090 -0.3827  0.8305
 2948TIP3    H130259   2.647   3.161   6.388 -0.3885  1.5403 -1.2510
 2948TIP3    H230260   2.649   3.241   6.517 -0.8011 -1.6145  0.7666
 2949TIP3   OH230261   1.897   5.139  16.568  0.1119 -0.1891 -0.0568
 2949TIP3    H130262   1.954   5.147  16.644 -1.1291 -1.3961  1.0228
 2949TIP3    H230263   1.903   5.047  16.543  0.0405  0.0704 -1.0425
 2950TIP3   OH230264   6.371   3.268  12.689 -0.0324  0.6336 -0.5165
 2950TIP3    H130265   6.341   3.306  12.607  0.3301 -0.6579 -1.2552
 2950TIP3    H230266   6.356   3.174  12.679 -1.4671  0.6160  1.5077
 2951TIP3   OH230267   3.913   6.224   2.392  1.1816  0.0232  0.9379
 2951TIP3    H130268   3.884   6.275   2.317  1.9805  2.0261  1.9500
 2951TIP3    H230269   3.835   6.211   2.445  0.6919 -1.0766 -0.0206
 2952TIP3   OH230270   0.340   3.099   0.388  0.1068 -0.6268 -0.3392
 2952TIP3    H130271   0.305   3.010   0.392 -1.0383 -0.3602 -3.2747
 2952TIP3    H230272   0.384   3.104   0.303 -0.5004  1.8493 -0.5426
 2953TIP3   OH230273   2.397   5.939   2.412  0.3813  0.1122 -0.5243
 2953TIP3    H130274   2.478   5.899   2.442 -0.6393 -1.0427  0.7808
 2953TIP3    H230275   2.382   6.012   2.472  1.0265  1.0160 -1.4545
 2954TIP3   OH230276   2.210   4.887   0.020 -0.6463  0.6317  0.2897
 2954TIP3    H130277   2.149   4.960   0.025  0.4195  1.4703  1.3327
 2954TIP3    H230278   2.267   4.898   0.097  1.7658  0.7460 -1.4631
 2955TIP3   OH230279   1.770   5.451   0.695  0.0573 -0.2069 -0.2321
 2955TIP3    H130280   1.771   5.355   0.694 -0.1552 -0.2133  0.2338
 2955TIP3    H230281   1.694   5.474   0.640 -0.6151 -0.3238  0.6382
 2956TIP3   OH230282   5.191   5.923   0.646 -0.0517  0.3921  0.2144
 2956TIP3    H130283   5.226   5.932   0.735  1.4783 -0.1371 -0.3035
 2956TIP3    H230284   5.136   6.000   0.633  1.1274  1.3832  1.0036
 2957TIP3   OH230285   3.925   1.975  14.389 -0.2489 -0.1430  0.2132
 2957TIP3    H130286   3.851   1.928  14.349  0.4228 -0.7299 -0.3358
 2957TIP3    H230287   3.907   2.067  14.370 -1.0591 -0.2442  0.4392
 2958TIP3   OH230288   0.167   2.099   6.480 -0.3623  0.0560  0.2102
 2958TIP3    H130289   0.157   2.012   6.442  1.3884 -0.0109 -0.1127
 2958TIP3    H230290   0.185   2.082   6.573 -0.9666  0.1166  0.3437
 2959TIP3   OH230291   3.298   3.706  16.483 -0.0229  0.5421 -0.2063
 2959TIP3    H130292   3.377   3.676  16.439  0.9986  2.8619 -0.0206
 2959TIP3    H230293   3.230   3.644  16.456  1.7659 -1.2637 -0.6556
 2960TIP3   OH230294   0.207   1.396   0.168 -0.0463  0.0351  0.4397
 2960TIP3    H130295   0.278   1.364   0.223 -0.8375  0.6123  1.8107
 2960TIP3    H230296   0.209   1.491   0.178 -0.3245  0.1330 -0.3797
 2961TIP3   OH230297   4.783   4.729  12.333 -0.0017 -0.3293  0.2176
 2961TIP3    H130298   4.789   4.641  12.371 -2.0527 -0.1901  0.9529
 2961TIP3    H230299   4.753   4.783  12.406 -0.0067  0.7245 -0.5706
 2962TIP3   OH230300   2.212   1.146  16.424  0.8845 -0.3722 -0.4706
 2962TIP3    H130301   2.272   1.152  16.498  1.8701  2.1889 -1.3935
 2962TIP3    H230302   2.259   1.094  16.359  1.0271 -0.5678 -0.2142
 2963TIP3   OH230303   2.157   3.780  16.355 -0.3287  0.5084  0.4968
 2963TIP3    H130304   2.113   3.776  16.440  0.1028 -0.4408  0.6833
 2963TIP3    H230305   2.132   3.699  16.312  0.3297  0.4882  0.1489
 2964TIP3   OH230306   1.768   5.177   4.689 -0.0121  0.1308 -0.1396
 2964TIP3    H130307   1.746   5.227   4.611 -1.5680 -3.2090 -1.9347
 2964TIP3    H230308   1.687   5.175   4.740 -0.1530 -1.0523 -0.3934
 2965TIP3   OH230309   1.019   3.661   0.354 -0.3901  0.1212  0.1242
 2965TIP3    H130310   1.045   3.569   0.359 -0.5847 -0.1438 -2.8064
 2965TIP3    H230311   1.036   3.686   0.263 -2.8841  2.2023  0.1688
 2966TIP3   OH230312   6.325   4.057  11.740 -0.0227 -0.1940  0.3259
 2966TIP3    H130313   6.404   4.009  11.766  0.2021 -0.0498 -0.0904
 2966TIP3    H230314   6.308   4.116  11.813  0.1278 -0.3788  0.5129
 2967TIP3   OH230315   0.712   5.965   5.728  0.0469  0.6217  0.1021
 2967TIP3    H130316   0.762   6.026   5.782 -1.0850  2.7072 -1.1259
 2967TIP3    H230317   0.622   5.972   5.759 -0.0532 -0.6410  0.1322
 2968TIP3   OH230318   0.685   3.866  12.611  0.0726  0.3202 -0.5420
 2968TIP3    H130319   0.736   3.916  12.676  0.5108 -0.2751 -0.4285
 2968TIP3    H230320   0.750   3.817  12.562 -0.4727 -1.4052  0.4081
 2969TIP3   OH230321   1.330   3.699  11.336 -0.0705 -0.1875 -0.4246
 2969TIP3    H130322   1.418   3.695  11.299 -0.1902 -2.2876 -0.5045
 2969TIP3    H230323   1.340   3.751  11.416  2.0927 -3.8954  1.8706
 2970TIP3   OH230324   6.152   3.126  13.375 -0.6615  0.2388  0.0511
 2970TIP3    H130325   6.142   3.034  13.352  0.5961 -0.2197  1.2516
 2970TIP3    H230326   6.188   3.167  13.296 -0.8049 -0.3832 -0.3402
 2971TIP3   OH230327   5.357   4.448  15.659 -0.0397  0.8069 -0.3290
 2971TIP3    H130328   5.415   4.375  15.637 -0.0384  1.2489 -1.8313
 2971TIP3    H230329   5.289   4.409  15.714 -0.0491 -0.3340 -1.1387
 2972TIP3   OH230330   6.749   4.518   1.586  0.1494 -0.0219 -0.4737
 2972TIP3    H130331   6.707   4.588   1.637 -0.4944 -0.8835  0.2066
 2972TIP3    H230332   6.676   4.467   1.551  0.6093 -0.0856 -1.3606
 2973TIP3   OH230333   6.321   1.159   4.136 -0.1781  0.5173  0.4631
 2973TIP3    H130334   6.352   1.238   4.092  1.4474 -0.7189 -0.6744
 2973TIP3    H230335   6.399   1.121   4.176 -0.9378 -0.5505  0.9770
 2974TIP3   OH230336   1.389   6.542   3.235  0.2795  0.0553 -0.1832
 2974TIP3    H130337   1.378   6.455   3.196 -0.1596 -0.2006  0.5004
 2974TIP3    H230338   1.340   6.538   3.317  1.1625  0.5979  0.3839
 2975TIP3   OH230339   2.337   2.286  15.993 -0.0194 -0.3749 -0.0350
 2975TIP3    H130340   2.321   2.214  15.933 -0.4537 -0.4190  0.1292
 2975TIP3    H230341   2.294   2.361  15.952  1.2410  0.0093 -0.6722
 2976TIP3   OH230342   0.481   5.795   1.989  0.1617 -0.3043 -0.2067
 2976TIP3    H130343   0.555   5.854   1.974  0.0221  0.2356  1.0909
 2976TIP3    H230344   0.409   5.835   1.941 -0.4391  1.7253  2.2504
 2977TIP3   OH230345   2.586   6.637  11.747  0.1327  0.1842  0.0612
 2977TIP3    H130346   2.496   6.645  11.779  0.2599  0.0251  0.4672
 2977TIP3    H230347   2.582   6.666  11.656 -0.8001 -2.1439 -0.6903
 2978TIP3   OH230348   1.228   1.151   3.954 -0.1236  0.5469  0.3381
 2978TIP3    H130349   1.285   1.200   3.895 -0.1321  1.4390  1.0582
 2978TIP3    H230350   1.286   1.088   3.996 -0.1696 -0.2752 -0.8089
 2979TIP3   OH230351   4.508   5.168  14.094  0.1137  0.5503  0.7687
 2979TIP3    H130352   4.421   5.154  14.130  1.2897 -1.8313  2.8088
 2979TIP3    H230353   4.550   5.082  14.097  2.3526  1.5401 -0.6825
 2980TIP3   OH230354   6.318   4.488   3.965  0.5136  0.1884 -0.3050
 2980TIP3    H130355   6.358   4.490   3.878  1.2418 -1.5503 -0.0258
 2980TIP3    H230356   6.347   4.569   4.006 -0.0480  1.1604 -1.7586
 2981TIP3   OH230357   1.928   6.090  10.965  0.0776 -0.1534 -0.7860
 2981TIP3    H130358   2.009   6.120  11.005 -0.2114 -0.6248  0.1703
 2981TIP3    H230359   1.886   6.038  11.033  0.0684 -1.8437 -2.0592
 2982TIP3   OH230360   4.952   1.335   0.208  0.1505  0.2218  0.1876
 2982TIP3    H130361   4.880   1.356   0.148  0.3512  0.6417  0.0859
 2982TIP3    H230362   4.934   1.387   0.286  1.8524  2.5935 -0.9209
 2983TIP3   OH230363   5.961   0.328  15.720 -0.2240 -0.3045  0.0943
 2983TIP3    H130364   5.887   0.311  15.660 -0.2980 -0.4623  0.2289
 2983TIP3    H230365   6.038   0.323  15.664 -0.3847  0.8825 -0.2454
 2984TIP3   OH230366   5.749   2.072  13.282  0.0017  0.0365  0.5056
 2984TIP3    H130367   5.656   2.095  13.288 -0.0782 -0.0450 -0.3149
 2984TIP3    H230368   5.795   2.143  13.326 -0.4279  0.2974  0.5292
 2985TIP3   OH230369   0.192   0.783  12.536  0.0484 -0.0546 -1.2014
 2985TIP3    H130370   0.198   0.709  12.596 -2.4959 -0.8966 -1.9206
 2985TIP3    H230371   0.227   0.857  12.586 -0.1462 -1.1455  0.6073
 2986TIP3   OH230372   3.041   3.750   0.149  0.2402 -0.5542 -0.1518
 2986TIP3    H130373   3.076   3.686   0.211 -1.1654 -1.1632  0.0236
 2986TIP3    H230374   3.075   3.722   0.064 -0.4734 -1.6308 -0.0966
 2987TIP3   OH230375   2.275   4.089   1.319 -0.2538 -0.3132  0.1331
 2987TIP3    H130376   2.335   4.137   1.262 -0.9786 -0.3490 -0.6723
 2987TIP3    H230377   2.320   4.084   1.403  0.5426  0.3170 -0.2536
 2988TIP3   OH230378   3.799   6.037  14.912 -0.6098  0.4722  0.9516
 2988TIP3    H130379   3.884   6.073  14.937  0.0408  0.3300 -0.9447
 2988TIP3    H230380   3.819   5.973  14.844 -2.1506 -0.2723  1.1817
 2989TIP3   OH230381   3.871   2.930  16.199 -0.4286 -0.4084 -1.0293
 2989TIP3    H130382   3.879   2.842  16.236 -0.0963  0.2111  0.4100
 2989TIP3    H230383   3.892   2.919  16.106 -0.7492 -1.9057 -0.9359
 2990TIP3   OH230384   0.182   1.790  12.283  0.6130 -0.2692 -0.5596
 2990TIP3    H130385   0.091   1.810  12.261  0.1493 -0.1973  1.3085
 2990TIP3    H230386   0.191   1.696  12.266  0.0844 -0.3433 -0.4426
 2991TIP3   OH230387   0.067   5.898   3.302  0.7526 -0.8453  0.1805
 2991TIP3    H130388   0.051   5.936   3.388  1.3208  1.7969 -0.8614
 2991TIP3    H230389  -0.021   5.884   3.266  0.5411 -0.6631  0.6225
 2992TIP3   OH230390   0.162   2.104   3.474 -0.8303 -0.6755  0.2857
 2992TIP3    H130391   0.214   2.042   3.423 -0.6389  0.0747 -0.4268
 2992TIP3    H230392   0.227   2.155   3.522 -0.8805  0.4895 -0.8623
 2993TIP3   OH230393   0.471   4.633   4.297 -0.0326 -0.0059  0.1575
 2993TIP3    H130394   0.546   4.575   4.281 -0.6882 -0.7086 -0.3740
 2993TIP3    H230395   0.426   4.638   4.213 -1.6891 -1.1508  0.9486
 2994TIP3   OH230396   1.775   4.861   1.600  0.3228  0.1420 -0.5021
 2994TIP3    H130397   1.807   4.775   1.573 -1.0319 -1.2390  2.0372
 2994TIP3    H230398   1.723   4.892   1.527  1.7822 -0.6752 -1.9135
 2995TIP3   OH230399   6.188   2.927   4.288 -0.4114  0.0078 -0.4746
 2995TIP3    H130400   6.125   2.897   4.222  0.1045 -0.7773 -0.6153
 2995TIP3    H230401   6.257   2.860   4.288 -0.3841  0.0219  0.8401
 2996TIP3   OH230402   3.795   3.450  16.028  0.1300 -0.6786  0.6599
 2996TIP3    H130403   3.865   3.413  15.975  0.0224 -0.4734  0.3718
 2996TIP3    H230404   3.805   3.409  16.114 -0.2556 -1.7055  0.2221
 2997TIP3   OH230405   1.211   2.828  14.941 -0.4539  0.3603 -0.0793
 2997TIP3    H130406   1.276   2.896  14.958 -0.3918  0.4476 -0.6651
 2997TIP3    H230407   1.261   2.755  14.906 -0.6985  0.4973 -0.7141
 2998TIP3   OH230408   1.982   2.919  15.557  0.2242 -0.5695 -0.4307
 2998TIP3    H130409   1.926   2.928  15.634  1.4966 -1.1015  0.5705
 2998TIP3    H230410   2.018   3.007  15.544 -0.2511 -0.4019 -0.6203
 2999TIP3   OH230411   1.041   0.672   3.951  0.1444 -0.2626  0.2260
 2999TIP3    H130412   0.998   0.714   3.877  1.3772 -0.6018 -0.6942
 2999TIP3    H230413   1.004   0.583   3.954  0.1061 -0.2522  0.0110
 3000TIP3   OH230414   1.075   0.817  12.903  0.1007 -0.1951  0.4659
 3000TIP3    H130415   1.008   0.855  12.959  0.8091  1.0476  0.4910
 3000TIP3    H230416   1.150   0.803  12.962  0.8973  1.2489 -0.1917
 3001TIP3   OH230417   3.520   1.730   0.436  0.2802  0.1889 -0.2415
 3001TIP3    H130418   3.451   1.667   0.457 -0.4401  0.6630 -1.1253
 3001TIP3    H230419   3.478   1.815   0.447  0.7117  0.4790 -0.8219
 3002TIP3   OH230420   2.495   2.643   1.067  0.0657  0.7881 -0.4103
 3002TIP3    H130421   2.488   2.623   1.160 -2.0364  1.4220 -0.4277
 3002TIP3    H230422   2.490   2.558   1.023 -0.0435  0.5884 -0.0077
 3003TIP3   OH230423   5.257   5.506   2.458 -0.2810 -0.0262 -0.3562
 3003TIP3    H130424   5.332   5.492   2.400 -0.3836  1.3022 -0.8264
 3003TIP3    H230425   5.201   5.429   2.444  1.2431 -1.3152  0.4329
 3004TIP3   OH230426   5.490   3.029  12.553  0.4083 -0.6703 -0.0420
 3004TIP3    H130427   5.505   3.098  12.617 -0.0567  0.3954 -1.0605
 3004TIP3    H230428   5.577   2.993  12.536  0.5225 -0.9796  1.2103
 3005TIP3   OH230429   2.854   3.100   1.321 -0.0246 -0.1095 -0.5496
 3005TIP3    H130430   2.831   3.099   1.228  0.8647 -0.7354 -0.7683
 3005TIP3    H230431   2.949   3.110   1.322 -0.1541  1.1429  0.3216
 3006TIP3   OH230432   0.013   2.487  11.404 -0.2033 -0.1542  0.3707
 3006TIP3    H130433   0.027   2.578  11.377 -1.1437  0.1997  1.0633
 3006TIP3    H230434   0.101   2.454  11.421  0.0115  1.2501  2.1269
 3007TIP3   OH230435   1.646   4.429  11.018 -0.2851 -0.1091  0.4776
 3007TIP3    H130436   1.675   4.483  10.945 -1.6088  2.3156  1.6642
 3007TIP3    H230437   1.630   4.343  10.980  0.6273  0.6750 -1.7484
 3008TIP3   OH230438   2.113   3.500  17.225  0.9500  0.0401  0.0077
 3008TIP3    H130439   2.164   3.526  17.302 -0.1565 -1.4127  1.2623
 3008TIP3    H230440   2.038   3.453  17.261 -0.9668  1.5815 -1.8543
 3009TIP3   OH230441   3.997   5.002   1.253 -0.9103 -0.1183  0.3613
 3009TIP3    H130442   3.905   5.025   1.261 -0.8990 -0.2062  0.7666
 3009TIP3    H230443   4.004   4.958   1.168 -1.3346 -0.5607  0.5507
 3010TIP3   OH230444   4.163   1.309   3.691  0.1321 -0.0335  0.6340
 3010TIP3    H130445   4.170   1.367   3.616 -0.5731  1.7051  1.8821
 3010TIP3    H230446   4.159   1.368   3.767  0.0240 -1.7183  1.9678
 3011TIP3   OH230447   0.400   4.244   1.461  0.5109 -0.3792 -0.4566
 3011TIP3    H130448   0.417   4.180   1.530 -0.5592 -0.5567 -0.3533
 3011TIP3    H230449   0.337   4.305   1.499  1.7188  0.9009 -0.4669
 3012TIP3   OH230450   4.073   5.033  11.388  0.2932 -0.1507 -0.1072
 3012TIP3    H130451   4.015   5.098  11.346 -0.4688 -1.4335 -1.0712
 3012TIP3    H230452   4.048   4.950  11.349  2.0046 -0.8962  0.3369
 3013TIP3   OH230453   6.220   1.367   4.474 -0.2727 -0.2178  0.5250
 3013TIP3    H130454   6.212   1.438   4.411  1.0072 -1.0513 -0.6235
 3013TIP3    H230455   6.314   1.363   4.493 -0.4135 -1.2078  1.0222
 3014TIP3   OH230456   1.618   4.804   3.841 -0.6755 -0.9022 -0.1826
 3014TIP3    H130457   1.627   4.724   3.789 -2.5076 -0.3016 -1.4652
 3014TIP3    H230458   1.559   4.780   3.912 -0.6628 -0.8682 -0.1605
 3015TIP3   OH230459   4.130   4.699  16.582  0.6091  0.1319  0.4704
 3015TIP3    H130460   4.121   4.750  16.662  1.5238 -0.0346  0.6845
 3015TIP3    H230461   4.040   4.674  16.559  0.2468  1.0202  0.8864
 3016TIP3   OH230462   0.925   5.838  13.896  0.4994  0.0581 -0.4536
 3016TIP3    H130463   0.964   5.895  13.963 -1.6086  1.4884 -0.4026
 3016TIP3    H230464   1.000   5.806  13.846  1.9261  0.8853  1.0770
 3017TIP3   OH230465   5.058   1.931   2.309  0.3719  0.3769  0.3972
 3017TIP3    H130466   5.149   1.934   2.340  0.3406 -0.3264  0.5676
 3017TIP3    H230467   5.049   2.010   2.256  1.2474  0.1751 -0.0669
 3018TIP3   OH230468   4.536   2.643  12.285  0.6874  0.4673  0.0998
 3018TIP3    H130469   4.522   2.731  12.320  0.6018 -0.0036  1.2553
 3018TIP3    H230470   4.451   2.618  12.247  0.4010  0.4469  0.7500
 3019TIP3   OH230471   3.522   5.040   6.212 -0.1968  0.5594  0.2980
 3019TIP3    H130472   3.615   5.061   6.218 -0.3991  1.7281 -0.5451
 3019TIP3    H230473   3.509   4.968   6.275  1.5752 -0.6580 -0.6889
 3020TIP3   OH230474   1.666   4.319  12.157 -0.4755 -0.2849  0.3008
 3020TIP3    H130475   1.704   4.353  12.238 -0.3474  0.7263 -0.1839
 3020TIP3    H230476   1.713   4.237  12.141 -0.4644 -0.4570  1.2227
 3021TIP3   OH230477   5.489   0.726  12.464  0.0131  0.4508 -0.2657
 3021TIP3    H130478   5.525   0.648  12.507 -0.5084  1.1885  1.5452
 3021TIP3    H230479   5.397   0.704  12.448  0.1660  0.2414 -0.8961
 3022TIP3   OH230480   3.341   0.716  15.173 -0.2873 -0.0023  0.0273
 3022TIP3    H130481   3.304   0.735  15.259 -0.3178 -0.3565  0.0905
 3022TIP3    H230482   3.289   0.643  15.140 -0.1115 -0.0313 -0.1849
 3023TIP3   OH230483   3.389   0.454   0.606 -0.4901  0.4956 -0.0683
 3023TIP3    H130484   3.423   0.375   0.647 -0.3881  0.6594  0.1626
 3023TIP3    H230485   3.311   0.424   0.558 -0.6241  0.3099  0.2636
 3024TIP3   OH230486   6.666   4.754  15.726 -0.4329  0.8378  0.0088
 3024TIP3    H130487   6.733   4.690  15.751  0.9523  1.3516 -2.2547
 3024TIP3    H230488   6.637   4.792  15.809  0.5802 -0.8743  1.1805
 3025TIP3   OH230489   0.617   6.782  16.609 -0.1683 -0.1813 -0.0472
 3025TIP3    H130490   0.624   6.876  16.628  2.0912 -0.2547 -0.3811
 3025TIP3    H230491   0.707   6.751  16.610 -0.9731 -2.6469  1.4385
 3026TIP3   OH230492   2.747   2.015   2.478 -0.9365 -0.7447 -0.8416
 3026TIP3    H130493   2.807   1.989   2.548  1.1604  3.9719 -0.6817
 3026TIP3    H230494   2.678   2.064   2.523 -1.9889 -1.4427 -1.6693
 3027TIP3   OH230495   2.940   1.812  15.467  0.4853  0.3521 -0.3058
 3027TIP3    H130496   2.962   1.881  15.405  2.1988 -0.4560 -0.5987
 3027TIP3    H230497   2.948   1.854  15.553  0.9064  0.6906 -0.5110
 3028TIP3   OH230498   4.248   1.887   5.831 -0.8662  0.2204  0.2166
 3028TIP3    H130499   4.163   1.852   5.858 -0.5502  0.0813  1.0687
 3028TIP3    H230500   4.268   1.954   5.897 -0.4082  0.3784 -0.0814
 3029TIP3   OH230501   2.240   6.557   4.713 -0.6737 -0.4979  0.1290
 3029TIP3    H130502   2.260   6.586   4.802  0.0389  2.7550 -1.0006
 3029TIP3    H230503   2.177   6.485   4.724 -1.3768  0.5195  3.2127
 3030TIP3   OH230504   0.452   3.438  12.989  0.8731 -0.3608 -0.0143
 3030TIP3    H130505   0.438   3.505  12.922  1.2377  1.2611  1.4934
 3030TIP3    H230506   0.537   3.461  13.027  0.9293 -1.6050  0.6177
 3031TIP3   OH230507   3.128   0.611  13.750 -0.2007  0.9898  0.2871
 3031TIP3    H130508   3.096   0.677  13.689 -0.1484  0.4569 -0.3168
 3031TIP3    H230509   3.209   0.578  13.711 -0.1884  0.6221  0.6174
 3032TIP3   OH230510   6.043   5.570  16.637 -0.8703  0.3264 -0.3448
 3032TIP3    H130511   5.974   5.636  16.639 -1.3607 -0.1919  0.2468
 3032TIP3    H230512   6.123   5.618  16.660 -1.0248  0.9283 -1.0462
 3033TIP3   OH230513   5.865   3.021   1.185  0.8298 -0.0475 -0.6825
 3033TIP3    H130514   5.914   3.051   1.262  0.1163  0.2773 -0.3539
 3033TIP3    H230515   5.932   3.001   1.120  1.4661 -0.7251  0.1693
 3034TIP3   OH230516   1.259   2.883   4.873  0.6345  0.2530  0.1630
 3034TIP3    H130517   1.345   2.902   4.910  0.3467  1.0888  0.4323
 3034TIP3    H230518   1.220   2.970   4.858 -0.9136 -0.1297  1.8372
 3035TIP3   OH230519   0.817   0.414   4.107 -0.0820 -0.5879  0.3621
 3035TIP3    H130520   0.768   0.488   4.072 -0.9554 -1.5610 -0.5008
 3035TIP3    H230521   0.806   0.344   4.042  0.1616 -1.6960  1.4794
 3036TIP3   OH230522   5.020   0.795   5.000 -0.3501  0.4714 -0.0909
 3036TIP3    H130523   5.094   0.757   4.952  0.3264  1.9303 -0.2381
 3036TIP3    H230524   4.991   0.868   4.945 -0.7233  1.0378  0.8554
 3037TIP3   OH230525   6.442   4.918  14.367 -0.4200 -0.5638  0.2017
 3037TIP3    H130526   6.470   4.996  14.318  4.0342 -1.0748  1.7062
 3037TIP3    H230527   6.407   4.953  14.449  0.9023 -0.0788  0.5737
 3038TIP3   OH230528   2.275   2.811   0.209 -0.4692 -0.3814  0.0937
 3038TIP3    H130529   2.327   2.873   0.259 -1.1464 -0.2744  0.6729
 3038TIP3    H230530   2.284   2.728   0.256  0.2593 -0.6797 -0.5569
 3039TIP3   OH230531   2.879   0.580  12.091  0.3188  0.2908 -0.0272
 3039TIP3    H130532   2.874   0.676  12.090 -0.6557  0.2573  0.7939
 3039TIP3    H230533   2.886   0.556  11.999 -0.1759  1.1192 -0.2927
 3040TIP3   OH230534   3.595   5.931  13.147  0.0070  1.3609 -0.2932
 3040TIP3    H130535   3.647   5.977  13.212 -2.2394  0.9809  1.8445
 3040TIP3    H230536   3.599   5.839  13.172 -0.2219  1.0934 -1.1907
 3041TIP3   OH230537   5.319   4.593  13.716 -0.0045 -0.0760 -0.0116
 3041TIP3    H130538   5.380   4.582  13.788  0.8463  0.1410 -0.6844
 3041TIP3    H230539   5.291   4.503  13.694  0.3901 -0.2087  0.0264
 3042TIP3   OH230540   5.440   0.898  11.706 -0.1694  0.1291  0.4118
 3042TIP3    H130541   5.437   0.840  11.782 -3.8125 -1.2697 -0.6928
 3042TIP3    H230542   5.460   0.840  11.633 -1.2711  0.6726 -0.3335
 3043TIP3   OH230543   1.512   6.745   3.083  0.4696 -0.0484  0.0803
 3043TIP3    H130544   1.446   6.691   3.126  0.9332  0.7032  1.7785
 3043TIP3    H230545   1.560   6.785   3.155 -0.1298  2.9374 -1.1168
 3044TIP3   OH230546   3.149   2.229  13.342 -0.4642  0.5667  0.1032
 3044TIP3    H130547   3.071   2.251  13.292 -0.8141 -0.4824  0.1583
 3044TIP3    H230548   3.160   2.135  13.329  1.0074  0.7676 -0.1980
 3045TIP3   OH230549   5.957   3.743   4.409  0.3920 -0.3944 -0.1745
 3045TIP3    H130550   6.047   3.712   4.400  0.7754  0.5360  0.3433
 3045TIP3    H230551   5.903   3.664   4.404  1.1519 -0.8309 -1.6612
 3046TIP3   OH230552   2.972   3.407  14.941  0.0670  0.4025 -0.6216
 3046TIP3    H130553   2.962   3.315  14.916 -0.4385  0.1745  0.4072
 3046TIP3    H230554   2.949   3.410  15.034  3.2805  0.9835  0.2268
 3047TIP3   OH230555   1.342   1.097  12.771  0.8645  0.1899  0.1091
 3047TIP3    H130556   1.397   1.102  12.693  1.0988 -0.2898  0.2435
 3047TIP3    H230557   1.304   1.009  12.768  0.3852  0.3940  0.2033
 3048TIP3   OH230558   2.431   6.134  10.902 -0.0281  0.2820 -0.4767
 3048TIP3    H130559   2.349   6.126  10.952  1.0007 -0.9007  1.0830
 3048TIP3    H230560   2.499   6.137  10.968  1.2093  1.2319 -1.7723
 3049TIP3   OH230561   5.196   2.391  16.149 -0.7428  0.7198  0.2790
 3049TIP3    H130562   5.194   2.446  16.071  0.8238 -0.8537 -0.8968
 3049TIP3    H230563   5.211   2.453  16.221 -1.1348  2.0590 -0.7697
 3050TIP3   OH230564   5.010   4.559  12.882  0.0441  0.1427 -0.4754
 3050TIP3    H130565   4.962   4.486  12.920  4.6688 -3.3632 -0.9191
 3050TIP3    H230566   5.021   4.621  12.955  0.0973 -1.7824  1.1946
 3051TIP3   OH230567   1.741   3.966   3.123  0.0230  0.3987  0.5175
 3051TIP3    H130568   1.702   3.977   3.210 -2.5000 -4.0812  0.1139
 3051TIP3    H230569   1.690   4.024   3.066 -3.4419 -2.1924  0.7982
 3052TIP3   OH230570   3.596   4.324  14.031  0.1595  0.3303 -0.3461
 3052TIP3    H130571   3.540   4.282  14.096  0.2671  0.8928  0.1151
 3052TIP3    H230572   3.642   4.252  13.988  0.0516 -0.0472  0.1716
 3053TIP3   OH230573   4.737   5.042  11.677 -0.3629 -0.0442 -0.2099
 3053TIP3    H130574   4.759   4.981  11.606 -1.6995 -0.3004 -0.4148
 3053TIP3    H230575   4.649   5.017  11.703 -0.2987  0.7767  0.7960
 3054TIP3   OH230576   6.335   5.295  12.466 -0.0574  0.3551  0.5186
 3054TIP3    H130577   6.369   5.381  12.490 -0.2645  0.4749  0.3818
 3054TIP3    H230578   6.404   5.234  12.491  0.9560  0.7434 -1.2138
 3055TIP3   OH230579   0.143   4.941  15.759  0.4384  0.9230  0.2268
 3055TIP3    H130580   0.050   4.940  15.781  1.1184  1.8689  3.3223
 3055TIP3    H230581   0.154   5.018  15.704 -1.0705 -0.7454 -2.5123
 3056TIP3   OH230582   5.388   2.169  13.998 -0.0523  0.1869 -0.1540
 3056TIP3    H130583   5.357   2.240  13.941 -1.8734 -0.3881  0.0861
 3056TIP3    H230584   5.483   2.172  13.991 -0.2199  0.5678 -2.7343
 3057TIP3   OH230585   2.046   4.155  14.176  0.0079 -0.0976  0.0518
 3057TIP3    H130586   2.052   4.103  14.095 -2.1383  0.5977 -0.6051
 3057TIP3    H230587   1.960   4.131  14.212 -0.1152  1.4688  0.8115
 3058TIP3   OH230588   2.977   3.075  14.045  0.0213 -0.2096 -0.6834
 3058TIP3    H130589   3.046   3.105  14.104 -0.9847 -0.1013  0.4560
 3058TIP3    H230590   3.022   3.057  13.962  1.4532 -0.3904  0.1234
 3059TIP3   OH230591   6.222   5.102  13.896 -0.0624 -0.2393  0.6614
 3059TIP3    H130592   6.220   5.084  13.990  0.4109  1.3561  0.9923
 3059TIP3    H230593   6.160   5.039  13.858  0.0349 -1.1484  1.9870
 3060TIP3   OH230594   1.930   0.073  11.420  0.0464 -0.0125 -0.5922
 3060TIP3    H130595   1.985   0.135  11.372  0.2250 -0.2291 -0.6694
 3060TIP3    H230596   1.933  -0.007  11.367 -2.0834  0.6270 -1.7640
 3061TIP3   OH230597   2.747   3.719  14.072  0.2776  0.1073  0.0429
 3061TIP3    H130598   2.747   3.759  13.985 -0.5854 -0.4285 -0.2083
 3061TIP3    H230599   2.837   3.729  14.103 -0.0980  3.0388  0.3578
 3062TIP3   OH230600   5.473   1.303   3.779  0.1033 -0.0241  0.1744
 3062TIP3    H130601   5.520   1.378   3.742  2.4866 -1.3330  0.4825
 3062TIP3    H230602   5.477   1.316   3.873 -1.6982  0.7393  0.1733
 3063TIP3   OH230603   0.693   2.439  12.672 -0.0440  0.0150  0.6298
 3063TIP3    H130604   0.689   2.527  12.709 -0.6755  1.4258 -2.6125
 3063TIP3    H230605   0.784   2.412  12.685  0.0998  1.0305  1.8804
 3064TIP3   OH230606   4.422   0.133  10.289  0.2363  0.1575 -0.1633
 3064TIP3    H130607   4.378   0.172  10.364  2.3351 -0.1553  1.2748
 3064TIP3    H230608   4.398   0.040  10.292  0.6147  0.0719  0.3634
 3065TIP3   OH230609   2.779   1.774   1.319  0.5396  0.2268 -0.0953
 3065TIP3    H130610   2.789   1.846   1.256 -1.0884  0.0602 -0.5745
 3065TIP3    H230611   2.802   1.813   1.403 -3.2032  2.2149  0.1360
 3066TIP3   OH230612   1.838   5.973  11.232  0.0858  0.7900  0.4124
 3066TIP3    H130613   1.763   5.939  11.184  0.3748  0.8756 -0.1083
 3066TIP3    H230614   1.895   5.897  11.245  1.1174  1.2042 -1.4734
 3067TIP3   OH230615   2.680   5.867  14.650  0.4554 -0.0979  0.2258
 3067TIP3    H130616   2.613   5.891  14.586  1.6057  1.0638 -0.5667
 3067TIP3    H230617   2.651   5.906  14.732  1.2776  2.3842 -0.6115
 3068TIP3   OH230618   3.495   2.435  11.381  1.0113 -0.5624  0.4047
 3068TIP3    H130619   3.582   2.474  11.381  0.9355 -0.3919  0.2758
 3068TIP3    H230620   3.511   2.341  11.380  1.1890 -0.5476  1.8765
 3069TIP3   OH230621   2.663   2.445   4.650  0.0110  0.0356  0.4134
 3069TIP3    H130622   2.700   2.523   4.608  1.8691  0.6622  3.0672
 3069TIP3    H230623   2.571   2.445   4.624  0.4928  1.8531 -1.4396
 3070TIP3   OH230624   3.386   4.135  15.217 -0.7017 -0.7956  0.1514
 3070TIP3    H130625   3.434   4.118  15.136 -0.3272  1.5599 -0.1685
 3070TIP3    H230626   3.449   4.182  15.272 -2.6377  2.5231 -0.3462
 3071TIP3   OH230627   4.672   2.991   3.268 -0.1240  0.3326 -0.4071
 3071TIP3    H130628   4.738   2.931   3.233 -0.2607  1.3985 -2.6330
 3071TIP3    H230629   4.722   3.061   3.309  0.1201  0.5129 -1.0057
 3072TIP3   OH230630   5.849   0.606   4.898  0.0617  0.4295 -0.1913
 3072TIP3    H130631   5.859   0.526   4.845  1.8944 -1.2083  2.5017
 3072TIP3    H230632   5.772   0.589   4.951 -0.7295  1.3178 -1.0533
 3073TIP3   OH230633   0.110   5.172   1.551 -0.2420 -0.3059  0.1967
 3073TIP3    H130634   0.145   5.254   1.586  1.9266 -1.1401  0.0780
 3073TIP3    H230635   0.050   5.199   1.481 -0.0824  1.1892  0.6257
 3074TIP3   OH230636   1.958   0.012   4.211 -0.0052  0.3332 -0.5508
 3074TIP3    H130637   2.049   0.024   4.183  1.0367 -0.5858  2.2375
 3074TIP3    H230638   1.930  -0.069   4.167  1.4378 -0.8453  0.6564
 3075TIP3   OH230639   1.965   6.289  12.094  0.6141  0.3541  0.4858
 3075TIP3    H130640   2.034   6.328  12.148  0.8389 -0.9553  1.1479
 3075TIP3    H230641   2.012   6.250  12.020  0.3037  2.1826 -0.7083
 3076TIP3   OH230642   6.495   1.534  14.047  0.1730 -0.3989 -0.1935
 3076TIP3    H130643   6.570   1.593  14.038  0.9037 -1.1845  0.5933
 3076TIP3    H230644   6.443   1.572  14.117  1.1621 -1.2020  1.0070
 3077TIP3   OH230645   3.799   3.503   3.066 -0.2330 -0.1923  0.0068
 3077TIP3    H130646   3.753   3.525   3.147 -2.4188 -0.0461 -1.2565
 3077TIP3    H230647   3.841   3.419   3.085 -1.4134 -0.5668  1.0081
 3078TIP3   OH230648   4.592   3.320  16.535  0.3090  0.2793  0.1380
 3078TIP3    H130649   4.684   3.292  16.534 -0.7993 -3.7401  0.2533
 3078TIP3    H230650   4.580   3.370  16.455  1.8802 -1.8632 -1.4856
 3079TIP3   OH230651   2.336   5.982   5.920 -0.4319 -0.4258 -0.3800
 3079TIP3    H130652   2.373   6.009   5.836  0.2070 -2.0580 -0.6414
 3079TIP3    H230653   2.395   6.019   5.985 -0.8391  0.7107 -0.6434
 3080TIP3   OH230654   6.074   4.087  16.819 -0.3628  0.0240 -0.2819
 3080TIP3    H130655   6.118   4.062  16.901  0.9599  0.8956 -0.7145
 3080TIP3    H230656   5.988   4.047  16.826  0.5393 -1.8410  0.5223
 3081TIP3   OH230657   1.284   5.526  15.156 -0.4114 -0.6199 -0.4112
 3081TIP3    H130658   1.337   5.597  15.192  1.1331 -1.7432 -0.4107
 3081TIP3    H230659   1.309   5.522  15.064 -2.0509  0.1852 -0.9257
 3082TIP3   OH230660   4.772   0.436   2.536 -0.2722 -0.3406 -0.5560
 3082TIP3    H130661   4.777   0.531   2.551 -1.0559 -0.1762 -1.3672
 3082TIP3    H230662   4.708   0.405   2.600  1.5691 -0.6527  1.2044
 3083TIP3   OH230663   0.121   3.404   1.400 -0.0487 -0.4797  0.0465
 3083TIP3    H130664   0.102   3.344   1.328  0.7684  1.0906 -1.5060
 3083TIP3    H230665   0.208   3.377   1.431  0.3098 -0.1161 -0.6352
 3084TIP3   OH230666   2.377   0.775   0.428  0.0464  0.2009 -0.2595
 3084TIP3    H130667   2.402   0.701   0.483 -0.5532  0.2527  0.0890
 3084TIP3    H230668   2.297   0.746   0.384 -0.4939  0.8364  0.2912
 3085TIP3   OH230669   4.195   3.547   2.909  0.0279 -0.4100  0.0399
 3085TIP3    H130670   4.121   3.608   2.918  0.5594 -0.1681  3.0903
 3085TIP3    H230671   4.154   3.461   2.908 -0.3163 -0.2903  1.9158
 3086TIP3   OH230672   3.308   5.928   0.519 -0.1636  0.1205 -0.1953
 3086TIP3    H130673   3.348   5.935   0.432 -0.1216  0.4526 -0.1508
 3086TIP3    H230674   3.325   5.838   0.546  1.1725  0.4569  0.1215
 3087TIP3   OH230675   1.666   0.176   0.361  0.2788 -0.2209 -0.0646
 3087TIP3    H130676   1.684   0.085   0.338 -1.0308 -0.6211  0.4232
 3087TIP3    H230677   1.623   0.171   0.446  1.4819  0.9634  0.6290
 3088TIP3   OH230678   0.153   5.630  11.216  0.5757 -0.4037 -0.1656
 3088TIP3    H130679   0.230   5.593  11.173  0.3215 -1.4446  0.2696
 3088TIP3    H230680   0.082   5.621  11.152  0.5362 -0.5719 -0.0983
 3089TIP3   OH230681   2.774   1.160   5.344 -0.1324 -0.5886 -0.6430
 3089TIP3    H130682   2.736   1.079   5.379 -1.5716 -0.0576 -0.9270
 3089TIP3    H230683   2.778   1.219   5.419  2.9404 -1.6012  0.0559
 3090TIP3   OH230684   6.758   0.820   2.203 -0.0721 -1.0670 -0.0639
 3090TIP3    H130685   6.836   0.804   2.150  1.2596 -0.7706  1.7733
 3090TIP3    H230686   6.739   0.737   2.245 -0.1514 -0.8825  0.2711
 3091TIP3   OH230687   0.195   1.291   4.732  0.5070 -0.3444 -0.0902
 3091TIP3    H130688   0.216   1.332   4.816 -2.4583 -0.7459  0.9389
 3091TIP3    H230689   0.252   1.215   4.727  1.2201  0.0911  1.2285
 3092TIP3   OH230690   1.822   4.730  11.218  0.2213  0.1271 -0.4712
 3092TIP3    H130691   1.788   4.669  11.284  1.2726  0.0937  0.0547
 3092TIP3    H230692   1.853   4.673  11.147  0.3288  0.0831 -0.3914
 3093TIP3   OH230693   2.554   0.503  14.838  0.3938  0.0203  0.0391
 3093TIP3    H130694   2.618   0.499  14.766  0.8265  0.8237  0.3799
 3093TIP3    H230695   2.536   0.596  14.850 -0.5685 -0.1804  0.1987
 3094TIP3   OH230696   6.254   1.445  13.509 -0.6128 -0.9918  0.2484
 3094TIP3    H130697   6.230   1.357  13.481  0.3993 -1.2220  0.0511
 3094TIP3    H230698   6.267   1.438  13.603  0.0346 -1.1997  0.1478
 3095TIP3   OH230699   4.322   4.857   0.524  0.4197  0.3990  0.1411
 3095TIP3    H130700   4.368   4.940   0.507 -0.5455  0.7492 -0.7595
 3095TIP3    H230701   4.234   4.871   0.491  0.1020 -0.8233  0.4618
 3096TIP3   OH230702   3.612   2.536   5.708 -0.3805 -0.2172  0.9841
 3096TIP3    H130703   3.593   2.491   5.791  1.5657 -1.5828  0.7244
 3096TIP3    H230704   3.556   2.492   5.644 -1.4533  0.4441  1.4547
 3097TIP3   OH230705   2.806   1.077  15.128  0.3067  0.5249 -0.3052
 3097TIP3    H130706   2.871   1.013  15.158 -0.8618 -0.0300  1.0695
 3097TIP3    H230707   2.805   1.066  15.033  0.3474 -1.2986 -0.1112
 3098TIP3   OH230708   3.024   1.355  12.639  0.5738 -0.2562  0.3880
 3098TIP3    H130709   3.102   1.334  12.691  0.9730 -0.3817 -0.2644
 3098TIP3    H230710   2.967   1.279  12.650 -0.1966  0.5618  2.2570
 3099TIP3   OH230711   5.970   1.941   5.366 -0.0056 -0.4204  0.3367
 3099TIP3    H130712   5.942   2.028   5.397 -0.6953 -0.1480 -0.9957
 3099TIP3    H230713   5.993   1.955   5.274 -0.6985 -1.7783 -0.0555
 3100TIP3   OH230714   2.362   2.693   0.447 -0.3174  0.3844 -0.0043
 3100TIP3    H130715   2.427   2.761   0.430 -0.9587  1.0401  0.1219
 3100TIP3    H230716   2.374   2.671   0.540 -0.5615  0.8091  0.1284
 3101TIP3   OH230717   4.268   0.069  10.691  0.3582 -0.0425 -0.0828
 3101TIP3    H130718   4.217   0.135  10.738  1.3550 -0.8780  2.2696
 3101TIP3    H230719   4.289   0.109  10.607 -1.3185  1.5828  0.2596
 3102TIP3   OH230720   4.695   5.798   2.312 -0.4179 -0.0386  0.0096
 3102TIP3    H130721   4.758   5.866   2.338  0.2239 -0.6769  0.1423
 3102TIP3    H230722   4.666   5.825   2.225  0.2965  0.0869 -0.1957
 3103TIP3   OH230723   2.251   5.130   5.515  0.0484 -0.2257  0.0653
 3103TIP3    H130724   2.159   5.120   5.537 -0.0662  2.6185  1.1060
 3103TIP3    H230725   2.292   5.162   5.596  1.5126  0.7650 -1.0401
 3104TIP3   OH230726   2.776   3.896  11.228  0.1455 -0.0661  0.7201
 3104TIP3    H130727   2.702   3.877  11.286 -0.7979  0.4472 -0.2963
 3104TIP3    H230728   2.805   3.810  11.198  0.3912 -0.3106  1.6562
 3105TIP3   OH230729   4.807   2.252  14.874 -0.2444  0.1942  1.1099
 3105TIP3    H130730   4.740   2.258  14.806 -0.0157 -0.5256  0.8156
 3105TIP3    H230731   4.824   2.158  14.882  1.6334  0.4422  0.2834
 3106TIP3   OH230732   2.874   6.748  15.512  0.2983 -0.2717 -0.0885
 3106TIP3    H130733   2.962   6.710  15.512  0.4907  0.1737 -1.3445
 3106TIP3    H230734   2.820   6.685  15.464  0.5310  0.8010 -1.8036
 3107TIP3   OH230735   3.317   4.485  14.766  0.2661 -0.0795 -0.2686
 3107TIP3    H130736   3.248   4.524  14.712 -1.6991 -1.2227  1.3579
 3107TIP3    H230737   3.299   4.391  14.763  2.4219 -0.5029 -0.6764
 3108TIP3   OH230738   6.105   1.743  15.185 -0.3343  0.2716 -0.3934
 3108TIP3    H130739   6.200   1.748  15.182 -0.4431  2.2401 -1.0219
 3108TIP3    H230740   6.080   1.718  15.096 -0.4205 -0.1140 -0.2622
 3109TIP3   OH230741   5.918   1.260   4.637 -0.3231 -0.4611  0.3924
 3109TIP3    H130742   5.943   1.168   4.638 -1.4255 -0.7871 -0.8188
 3109TIP3    H230743   5.856   1.269   4.709  0.7680 -0.3586  1.3409
 3110TIP3   OH230744   1.562   1.455   1.761  0.4246 -0.1763 -0.4084
 3110TIP3    H130745   1.585   1.396   1.832 -1.4382 -2.1894 -1.4059
 3110TIP3    H230746   1.528   1.533   1.804  2.5916  0.0919  0.9222
 3111TIP3   OH230747   3.959   5.462  13.078  0.6133  0.2122 -0.1324
 3111TIP3    H130748   4.037   5.496  13.122  0.5721  2.1893 -1.5376
 3111TIP3    H230749   3.885   5.497  13.128  0.5810 -1.5704  1.1312
 3112TIP3   OH230750   4.991   1.232  16.340 -0.4129  0.1955  0.2812
 3112TIP3    H130751   5.073   1.280  16.326 -1.4791  1.9639 -0.0669
 3112TIP3    H230752   5.006   1.181  16.419  2.4006 -2.5560 -1.8972
 3113TIP3   OH230753   3.058   3.782  17.008  0.4323 -0.3588  0.1356
 3113TIP3    H130754   2.976   3.829  16.995  1.2774  1.5118  1.2437
 3113TIP3    H230755   3.107   3.836  17.070  2.5795 -1.3348 -0.6412
 3114TIP3   OH230756   5.019   2.159   2.189  0.2487 -0.0274  0.2081
 3114TIP3    H130757   5.098   2.138   2.138  1.6804  0.8767  1.9650
 3114TIP3    H230758   4.952   2.176   2.123  1.8803  0.5131 -1.3822
 3115TIP3   OH230759   5.662   2.655  14.155  0.0405 -0.0243 -0.5124
 3115TIP3    H130760   5.581   2.705  14.143  0.1043  0.1827 -0.1166
 3115TIP3    H230761   5.696   2.685  14.240 -0.8764 -2.0822  0.6134
 3116TIP3   OH230762   5.519   5.526   3.003 -0.3135 -0.3137 -0.2445
 3116TIP3    H130763   5.516   5.610   3.050 -0.6041 -0.2346 -0.4028
 3116TIP3    H230764   5.583   5.541   2.934  0.5550 -0.6196  0.4859
 3117TIP3   OH230765   1.580   5.085   6.244 -0.6296 -0.2452 -0.2265
 3117TIP3    H130766   1.643   5.157   6.244 -1.6672  0.6914 -2.2115
 3117TIP3    H230767   1.498   5.124   6.215 -1.2845 -2.1535 -1.0584
 3118TIP3   OH230768   2.210   5.077   0.611  0.4818 -0.0644 -0.2434
 3118TIP3    H130769   2.287   5.124   0.642  0.3175 -0.1690  0.3402
 3118TIP3    H230770   2.218   5.076   0.516  0.9962  0.2690 -0.2024
 3119TIP3   OH230771   3.387   4.143   5.208 -0.4819  0.5423 -0.3507
 3119TIP3    H130772   3.394   4.077   5.277 -0.1333  0.1472 -0.7641
 3119TIP3    H230773   3.334   4.212   5.247 -1.7868 -0.4769 -0.3150
 3120TIP3   OH230774   0.903   4.295  10.944 -0.2777 -0.0464  0.3310
 3120TIP3    H130775   0.908   4.285  10.848  1.2389  0.1260  0.3842
 3120TIP3    H230776   0.899   4.205  10.977 -1.4364 -0.0898  0.0748
 3121TIP3   OH230777   4.642   3.337  11.905  0.2103 -0.0427 -0.6840
 3121TIP3    H130778   4.670   3.279  11.835 -2.0962 -0.1072 -1.5834
 3121TIP3    H230779   4.623   3.420  11.862 -2.1189 -0.3533 -0.3338
 3122TIP3   OH230780   4.186   6.208   0.295 -0.0370 -0.1597 -0.4318
 3122TIP3    H130781   4.226   6.138   0.347  0.5320  0.4587 -0.0319
 3122TIP3    H230782   4.109   6.167   0.256  0.0328 -0.8850  0.1723
 3123TIP3   OH230783   3.996   5.557  11.851  0.2924 -0.2481 -0.2203
 3123TIP3    H130784   3.908   5.537  11.818  0.1757 -0.1137  0.0076
 3123TIP3    H230785   4.029   5.473  11.884  0.2232 -0.2861 -0.2469
 3124TIP3   OH230786   2.162   5.050   1.919  0.2342 -0.0871 -0.0856
 3124TIP3    H130787   2.109   5.091   1.850  0.5513 -0.0252 -0.2927
 3124TIP3    H230788   2.133   4.959   1.920  0.7389 -0.2558 -0.7946
 3125TIP3   OH230789   3.047   3.013   2.483 -0.5172  0.3302 -0.4170
 3125TIP3    H130790   3.074   3.099   2.453 -0.6079  0.3585 -0.4188
 3125TIP3    H230791   2.961   3.027   2.523 -0.8815  0.1081 -1.1128
 3126TIP3   OH230792   0.651   0.680  16.913  0.7418 -0.2505  0.1721
 3126TIP3    H130793   0.726   0.632  16.878  0.5303 -0.8150  0.4738
 3126TIP3    H230794   0.686   0.729  16.987  1.1301  0.7193 -0.6402
 3127TIP3   OH230795   0.790   2.512   1.522  0.0928  0.0822 -0.1240
 3127TIP3    H130796   0.723   2.498   1.589 -0.1342 -1.0748 -0.5868
 3127TIP3    H230797   0.850   2.438   1.532 -0.1125 -0.2744 -1.3940
 3128TIP3   OH230798   6.780   5.790   6.256  0.3979  0.2420  0.6619
 3128TIP3    H130799   6.728   5.775   6.334  0.0846  1.3846  0.6783
 3128TIP3    H230800   6.830   5.869   6.275  1.1419 -0.0961  0.1323
 3129TIP3   OH230801   6.761   0.661  16.781 -0.2557 -0.2254  0.1135
 3129TIP3    H130802   6.814   0.737  16.807 -0.1704 -0.6271  1.1566
 3129TIP3    H230803   6.792   0.639  16.694  0.1305  0.5771  0.0399
 3130TIP3   OH230804   6.640   1.998   5.853 -0.3063  0.2984 -0.0322
 3130TIP3    H130805   6.559   2.037   5.821 -0.8265  1.4556  2.6209
 3130TIP3    H230806   6.709   2.057   5.820 -0.7887  1.1918  0.5462
 3131TIP3   OH230807   1.857   5.393   3.679  0.4546  0.0542 -0.5654
 3131TIP3    H130808   1.890   5.304   3.673 -0.1739 -0.3062  1.0578
 3131TIP3    H230809   1.788   5.399   3.613 -0.6039 -1.1806  0.3997
 3132TIP3   OH230810   1.587   4.433   4.400 -0.5348 -0.3790  0.2980
 3132TIP3    H130811   1.620   4.464   4.315  0.1620  0.0837  0.7311
 3132TIP3    H230812   1.588   4.337   4.392 -0.8629 -0.3258 -0.3645
 3133TIP3   OH230813   4.247   2.522  14.993 -0.2194  0.1912 -0.0375
 3133TIP3    H130814   4.250   2.485  15.081  0.1558 -0.1373 -0.1866
 3133TIP3    H230815   4.172   2.582  14.994 -0.3249  0.0493  0.4492
 3134TIP3   OH230816   1.060   3.499  12.085 -0.2174  0.3633  0.2359
 3134TIP3    H130817   1.114   3.436  12.134  0.0887  0.7280  0.3695
 3134TIP3    H230818   1.073   3.475  11.993  0.4347  0.6530  0.2496
 3135TIP3   OH230819   1.581   3.026   5.592 -0.2878 -0.3202 -0.1478
 3135TIP3    H130820   1.492   3.005   5.564 -0.8849 -0.8462  2.0208
 3135TIP3    H230821   1.628   2.943   5.587  0.2063  0.0408 -1.6819
 3136TIP3   OH230822   5.387   3.577   3.019  0.5244  0.2758 -0.7284
 3136TIP3    H130823   5.342   3.547   3.098  2.5040  0.9217  0.6773
 3136TIP3    H230824   5.321   3.573   2.950 -1.4029  0.2887  1.0933
 3137TIP3   OH230825   1.813   1.054   0.735 -0.2756  0.1657  0.1608
 3137TIP3    H130826   1.782   1.136   0.775  2.4599  0.0635  2.6804
 3137TIP3    H230827   1.792   0.987   0.800 -1.0567 -0.9024 -1.1960
 3138TIP3   OH230828   3.092   1.458   3.610  0.1936  0.1004  0.3246
 3138TIP3    H130829   3.003   1.436   3.639 -0.2636 -1.7541 -2.3573
 3138TIP3    H230830   3.085   1.547   3.577 -0.7056 -0.0914 -0.0158
 3139TIP3   OH230831   3.050   5.163   6.471 -0.6249 -0.5297  0.1586
 3139TIP3    H130832   3.127   5.112   6.447  0.1581  0.6406  0.1205
 3139TIP3    H230833   3.064   5.248   6.429 -2.2748 -0.5197 -0.4215
 3140TIP3   OH230834   2.910   6.228  11.271 -0.8565 -0.4306 -0.8240
 3140TIP3    H130835   2.983   6.286  11.293 -0.0863 -1.2450 -1.2136
 3140TIP3    H230836   2.895   6.243  11.178 -2.0816  0.7190 -0.4680
 3141TIP3   OH230837   2.100   0.550  12.192  0.0224 -0.3517  0.0215
 3141TIP3    H130838   2.195   0.562  12.197  0.0330 -0.7932  0.9436
 3141TIP3    H230839   2.086   0.458  12.217 -0.7042 -0.0819  0.6434
 3142TIP3   OH230840   0.284   2.198   4.531  0.4686  0.4503  0.2664
 3142TIP3    H130841   0.258   2.124   4.586  1.2208  0.0351  0.0728
 3142TIP3    H230842   0.364   2.232   4.571  1.3170 -0.1764 -0.8455
 3143TIP3   OH230843   6.531   1.382  14.781 -0.2774 -0.4518 -0.4493
 3143TIP3    H130844   6.475   1.459  14.776 -1.2981 -1.1796 -0.5856
 3143TIP3    H230845   6.619   1.414  14.762 -0.7007  0.6594 -0.5724
 3144TIP3   OH230846   5.542   0.729   5.309  0.0021 -0.1338 -0.3608
 3144TIP3    H130847   5.500   0.668   5.370 -0.6560  0.0217 -0.6511
 3144TIP3    H230848   5.485   0.806   5.309 -0.2119 -0.2791 -1.4510
 3145TIP3   OH230849   0.400   1.925   0.578 -0.0148 -0.3006 -0.3336
 3145TIP3    H130850   0.419   1.982   0.504  1.6320  0.1708  0.4042
 3145TIP3    H230851   0.349   1.980   0.638  0.2038 -0.0969 -0.3308
 3146TIP3   OH230852   4.368   5.650  13.400  0.2598 -0.0002  0.3381
 3146TIP3    H130853   4.434   5.597  13.355 -1.1473  0.2994 -2.2065
 3146TIP3    H230854   4.397   5.653  13.491  0.8286 -4.4093  0.4028
 3147TIP3   OH230855   0.882   1.807  12.359 -0.3648  0.2565  0.2640
 3147TIP3    H130856   0.871   1.862  12.282 -1.3371  1.6773  1.3638
 3147TIP3    H230857   0.963   1.760  12.345 -1.1513 -0.4138 -2.1622
 3148TIP3   OH230858   0.482   3.156  14.606 -0.1427  0.3462  0.3450
 3148TIP3    H130859   0.535   3.147  14.686  0.9854  0.5998 -0.3646
 3148TIP3    H230860   0.403   3.105  14.624 -0.2427  1.0387  1.9269
 3149TIP3   OH230861   1.622   5.783   5.167 -0.0670  0.1429  0.0712
 3149TIP3    H130862   1.632   5.757   5.076  0.5828 -1.7085  0.6590
 3149TIP3    H230863   1.528   5.786   5.182 -0.3031  3.4097 -1.4574
 3150TIP3   OH230864   3.901   4.912   0.989  0.2702 -0.7154  0.3917
 3150TIP3    H130865   3.993   4.921   0.964  0.6455  1.3697  2.3181
 3150TIP3    H230866   3.863   4.998   0.971 -0.8589 -1.0033  1.3580
 3151TIP3   OH230867   4.453   1.773  16.564  0.5086 -0.1926 -0.1422
 3151TIP3    H130868   4.490   1.685  16.571  0.6897 -0.0798  0.3823
 3151TIP3    H230869   4.487   1.819  16.641 -1.0939 -0.2268  0.6073
 3152TIP3   OH230870   3.520   3.909   6.388  0.1781  0.0940  0.0922
 3152TIP3    H130871   3.479   3.835   6.433  1.0886 -0.1713  0.4838
 3152TIP3    H230872   3.611   3.883   6.376  0.8215  1.6721  1.3761
 3153TIP3   OH230873   1.447   4.579  14.477  0.3525 -0.3781  0.1775
 3153TIP3    H130874   1.474   4.603  14.565  0.7732 -0.6201  0.1128
 3153TIP3    H230875   1.354   4.555  14.486  0.0897  0.6942  0.3443
 3154TIP3   OH230876   3.813   6.072   1.537  0.2270  0.5056 -0.8181
 3154TIP3    H130877   3.905   6.073   1.510 -0.0341 -0.1321 -1.7620
 3154TIP3    H230878   3.814   6.025   1.621  1.1415  3.1916  0.7342
 3155TIP3   OH230879   5.311   3.950  12.999 -0.2617 -0.5259  0.3804
 3155TIP3    H130880   5.224   3.989  12.989 -1.8539 -3.9795 -0.0787
 3155TIP3    H230881   5.300   3.886  13.070  1.3608 -2.4017 -0.9880
 3156TIP3   OH230882   1.550   4.402   0.108  0.3827 -0.4365 -0.2080
 3156TIP3    H130883   1.604   4.354   0.171 -2.0739 -2.4471  0.4394
 3156TIP3    H230884   1.589   4.382   0.023  1.9762 -0.0241  0.3930
 3157TIP3   OH230885   2.397   5.008  12.335 -0.7060 -0.1128  0.0748
 3157TIP3    H130886   2.394   5.072  12.264  0.2335 -1.3698 -1.1304
 3157TIP3    H230887   2.486   4.975  12.333 -1.6908 -2.8182 -0.5556
 3158TIP3   OH230888   2.773   1.556  15.646 -0.1048 -0.2317  0.1251
 3158TIP3    H130889   2.836   1.593  15.708 -0.2502  2.0333 -1.0391
 3158TIP3    H230890   2.819   1.482  15.606  1.6219  1.1097 -0.3680
 3159TIP3   OH230891   4.666   4.969   2.747  0.4216  0.0666  0.0240
 3159TIP3    H130892   4.598   5.032   2.771  0.3223  0.1984 -0.5959
 3159TIP3    H230893   4.673   4.976   2.652 -1.1909 -2.4665 -0.3180
 3160TIP3   OH230894   2.855   6.100  14.024 -0.2542 -0.5000  0.3040
 3160TIP3    H130895   2.786   6.161  14.049 -0.3773 -0.8734  0.8928
 3160TIP3    H230896   2.935   6.140  14.058 -0.1468  0.0638 -0.6161
 3161TIP3   OH230897   4.979   4.916   5.375  0.3107  0.3967  0.6620
 3161TIP3    H130898   4.984   4.984   5.442  0.7120  0.3250  0.7026
 3161TIP3    H230899   5.040   4.944   5.307  1.1616 -0.3905  1.0991
 3162TIP3   OH230900   4.491   3.299  13.015 -0.2317  0.0311  0.4540
 3162TIP3    H130901   4.504   3.210  12.982  1.3743  0.7562 -0.9464
 3162TIP3    H230902   4.559   3.309  13.082 -1.9251 -0.5860  2.3246
 3163TIP3   OH230903   6.117   3.003   4.947  0.0038  0.4167  0.2796
 3163TIP3    H130904   6.093   2.911   4.956  1.1795  0.2324  1.7668
 3163TIP3    H230905   6.075   3.046   5.022 -1.7297  1.3616 -1.1949
 3164TIP3   OH230906   0.021   1.069   5.479 -0.0162  0.6938  0.1945
 3164TIP3    H130907  -0.047   1.034   5.536  0.6627  0.6994  1.0154
 3164TIP3    H230908   0.061   1.139   5.530  0.2584  1.0315 -0.4872
 3165TIP3   OH230909   5.896   5.891  11.290  0.5550  0.3800 -0.2286
 3165TIP3    H130910   5.953   5.959  11.326  2.0594 -1.5143  1.0841
 3165TIP3    H230911   5.946   5.856  11.215 -0.1329  0.6131 -0.7972
 3166TIP3   OH230912   5.271   2.796  14.494  0.4780 -1.0478 -0.2126
 3166TIP3    H130913   5.281   2.768  14.585 -2.6293  0.3101  0.6223
 3166TIP3    H230914   5.318   2.879  14.490  0.9668 -1.3075  0.0372
 3167TIP3   OH230915   6.175   5.651   2.337 -0.2889 -0.6830 -0.1424
 3167TIP3    H130916   6.220   5.584   2.388 -1.6049 -0.9395  0.6844
 3167TIP3    H230917   6.127   5.703   2.401  0.7847  1.1242 -0.7631
 3168TIP3   OH230918   1.483   3.679  16.816  0.2349 -0.5534 -0.1383
 3168TIP3    H130919   1.541   3.751  16.841 -0.0617 -0.0589 -0.8583
 3168TIP3    H230920   1.396   3.718  16.817  0.1411 -0.7161 -1.2107
 3169TIP3   OH230921   4.642   6.702  14.066 -0.1549  0.7601  0.1520
 3169TIP3    H130922   4.604   6.786  14.093  0.3976  1.0370  0.0701
 3169TIP3    H230923   4.657   6.712  13.972  1.4240  1.1685  0.4321
 3170TIP3   OH230924   4.564   2.524   6.156 -0.3871  0.3993 -0.0260
 3170TIP3    H130925   4.476   2.493   6.175  0.4550 -0.1416  3.1897
 3170TIP3    H230926   4.580   2.593   6.220  1.9270 -0.2383  0.1200
 3171TIP3   OH230927   3.169   6.489   5.170 -0.2781  0.1752  0.5719
 3171TIP3    H130928   3.174   6.504   5.075 -0.1014 -0.2313  0.5155
 3171TIP3    H230929   3.175   6.576   5.209  1.9966  0.1504  0.3079
 3172TIP3   OH230930   0.373   5.879   0.963  0.1397  0.2693  0.1440
 3172TIP3    H130931   0.370   5.789   0.931  0.7196  0.0059  0.8341
 3172TIP3    H230932   0.454   5.884   1.014 -0.5748  0.7986  1.2439
 3173TIP3   OH230933   3.301   3.336   5.312  0.1355  0.3021 -0.0787
 3173TIP3    H130934   3.340   3.269   5.368 -0.0913 -0.4190 -0.7793
 3173TIP3    H230935   3.374   3.390   5.284  0.5475 -0.6590 -0.8670
 3174TIP3   OH230936   5.655   3.582  12.817  0.5884  0.3043  0.0531
 3174TIP3    H130937   5.722   3.558  12.752  0.9865 -1.3200  1.0476
 3174TIP3    H230938   5.668   3.676  12.830  0.9714  0.5163 -1.6841
 3175TIP3   OH230939   1.315   3.639   1.206  0.2044  0.3202  0.6689
 3175TIP3    H130940   1.400   3.615   1.243  0.0883  0.7276  1.1974
 3175TIP3    H230941   1.316   3.600   1.118  0.3089 -1.0074  1.2433
 3176TIP3   OH230942   0.759   4.305  15.246 -0.5888 -0.1801 -0.1041
 3176TIP3    H130943   0.718   4.314  15.160 -0.0430 -0.5352 -0.4045
 3176TIP3    H230944   0.734   4.385  15.293  1.3183  1.3429 -1.5498
 3177TIP3   OH230945   4.493   4.121   5.233 -0.2069  0.3970  0.4867
 3177TIP3    H130946   4.566   4.151   5.286  0.6649 -1.3281  0.2874
 3177TIP3    H230947   4.415   4.155   5.278  0.4026 -2.1114  3.6879
 3178TIP3   OH230948   2.778   4.833  14.003 -0.8565  0.8865  0.2459
 3178TIP3    H130949   2.689   4.827  14.036 -0.5000  3.4481  1.7594
 3178TIP3    H230950   2.773   4.891  13.928 -0.6285  0.1718 -0.3276
 3179TIP3   OH230951   0.167   5.993   6.274  0.2439  0.0295 -0.1897
 3179TIP3    H130952   0.229   5.960   6.209  1.7020  1.2028  0.5503
 3179TIP3    H230953   0.219   6.055   6.326 -1.2376  0.1052  1.2359
 3180TIP3   OH230954   1.312   4.252  16.116  0.1193 -0.6227 -0.4466
 3180TIP3    H130955   1.245   4.287  16.174  1.9277  0.4131  1.0604
 3180TIP3    H230956   1.280   4.273  16.028 -1.7367 -0.5471  0.2235
 3181TIP3   OH230957   5.866   5.963   3.930  0.0949  0.1465  0.0272
 3181TIP3    H130958   5.893   6.025   3.863 -2.2660 -1.2541 -2.3410
 3181TIP3    H230959   5.844   6.017   4.006  1.8146  1.8466 -0.6723
 3182TIP3   OH230960   4.441   1.682   0.958  0.1996  0.1320  0.6360
 3182TIP3    H130961   4.480   1.758   0.916 -1.4319  1.4464  1.4254
 3182TIP3    H230962   4.442   1.703   1.051 -1.3538 -0.2649  0.7629
 3183TIP3   OH230963   0.754   0.950   3.115  0.1021 -0.3033  0.6921
 3183TIP3    H130964   0.772   0.876   3.173 -1.5244 -2.2888 -1.2772
 3183TIP3    H230965   0.833   0.958   3.062 -0.0381 -1.1481  0.3540
 3184TIP3   OH230966   6.315   1.003   2.538  0.6716 -0.2311  0.9264
 3184TIP3    H130967   6.289   1.095   2.543  0.3086 -0.2664 -0.1091
 3184TIP3    H230968   6.232   0.954   2.541  0.8286 -0.5001  0.9633
 3185TIP3   OH230969   1.558   3.638   2.670  0.1467  0.3926  0.5824
 3185TIP3    H130970   1.590   3.550   2.652 -0.6705  0.0571  0.7631
 3185TIP3    H230971   1.630   3.695   2.643 -0.2093 -0.1999 -1.7801
 3186TIP3   OH230972   4.605   6.457  12.531  0.3567 -0.8225  0.0741
 3186TIP3    H130973   4.627   6.546  12.560 -1.7715  0.2504 -1.3856
 3186TIP3    H230974   4.516   6.443  12.563 -0.3990 -1.2932 -2.1128
 3187TIP3   OH230975   3.725   2.903   1.007  0.5755 -0.3871 -0.3080
 3187TIP3    H130976   3.746   2.877   1.097  2.5701 -2.8097 -1.4136
 3187TIP3    H230977   3.725   2.998   1.009 -1.6182 -0.4093  2.7398
 3188TIP3   OH230978   6.058   6.097  10.960 -1.1021  0.0626 -0.0175
 3188TIP3    H130979   6.151   6.076  10.961 -0.9154  0.8716 -0.3825
 3188TIP3    H230980   6.045   6.151  11.037 -1.2948 -0.1305  0.0874
 3189TIP3   OH230981   3.074   6.471   5.545 -0.4001 -0.1010 -0.1929
 3189TIP3    H130982   3.003   6.520   5.505 -0.3673  0.9357  1.0022
 3189TIP3    H230983   3.073   6.386   5.500 -3.3338 -0.6468  0.8212
 3190TIP3   OH230984   5.821   2.991   6.259  0.4836  0.1443 -0.5090
 3190TIP3    H130985   5.798   2.900   6.242 -0.9323  0.6587 -1.3702
 3190TIP3    H230986   5.897   3.007   6.203  1.0140 -0.6226 -0.0247
 3191TIP3   OH230987   4.308   1.564  17.052  0.4091  0.3420  0.5734
 3191TIP3    H130988   4.305   1.535  17.143  0.0523  0.1995  0.5158
 3191TIP3    H230989   4.367   1.640  17.054  0.9747 -0.0965  0.8031
 3192TIP3   OH230990   2.332   1.741   3.764 -0.0284 -0.2015  0.5984
 3192TIP3    H130991   2.293   1.828   3.774  0.8348  0.3664 -0.7426
 3192TIP3    H230992   2.357   1.716   3.852  1.6180  1.8347  0.7659
 3193TIP3   OH230993   0.275   0.423   3.701  0.0626 -0.0899 -0.2799
 3193TIP3    H130994   0.207   0.443   3.636  1.2426  0.9885 -1.2121
 3193TIP3    H230995   0.333   0.362   3.656 -1.1443 -2.2888  1.0750
 3194TIP3   OH230996   6.254   1.701  16.130  0.3601  0.0376 -0.1455
 3194TIP3    H130997   6.342   1.732  16.152  0.9869 -0.2132 -2.1862
 3194TIP3    H230998   6.197   1.742  16.195  1.6429  2.4905 -0.4903
 3195TIP3   OH230999   2.228   5.729  12.437  0.3443  0.0472  0.1907
 3195TIP3    H131000   2.241   5.809  12.488 -0.1651  0.3268 -0.1162
 3195TIP3    H231001   2.296   5.732  12.369 -0.1835  0.6116 -0.3092
 3196TIP3   OH231002   0.562   6.372  12.341  0.3835  0.3512  0.6927
 3196TIP3    H131003   0.634   6.380  12.278  0.3009 -2.7387  0.1411
 3196TIP3    H231004   0.601   6.326  12.416 -0.6809 -0.2227  0.9028
 3197TIP3   OH231005   6.229   4.544  13.754  0.1501  0.4474  0.2936
 3197TIP3    H131006   6.310   4.557  13.705  1.4130 -2.4387  1.5212
 3197TIP3    H231007   6.163   4.523  13.688  1.0473  0.0013 -0.4621
 3198TIP3   OH231008   2.872   5.868  12.653 -0.1426  0.0729  0.1346
 3198TIP3    H131009   2.824   5.930  12.598 -1.1528  0.2797  1.2346
 3198TIP3    H231010   2.825   5.785  12.641 -0.7270  0.2557  1.1534
 3199TIP3   OH231011   3.555   0.793   1.700  0.6709  0.3063  0.2140
 3199TIP3    H131012   3.469   0.821   1.730  0.6240 -0.8897  1.2409
 3199TIP3    H231013   3.609   0.796   1.779  1.5532  0.9198 -0.3952
 3200TIP3   OH231014   2.035   6.060  12.428  0.0169  0.2028 -0.2002
 3200TIP3    H131015   1.980   6.127  12.468 -1.2862 -1.1851  0.3969
 3200TIP3    H231016   2.117   6.063  12.478 -1.3402 -1.0574  2.2134
 3201TIP3   OH231017   3.000   4.763   6.207  0.1211 -0.4513 -0.0401
 3201TIP3    H131018   3.063   4.704   6.250 -0.8590 -0.8356  0.8876
 3201TIP3    H231019   2.919   4.712   6.202 -0.4604  0.4728 -0.1402
 3202TIP3   OH231020   1.109   5.941   1.542 -0.0377 -0.2448  0.0133
 3202TIP3    H131021   1.181   5.987   1.500  0.1445 -0.2464  0.3201
 3202TIP3    H231022   1.035   6.002   1.538 -0.2929 -0.6209 -1.1678
 3203TIP3   OH231023   5.133   2.597  12.456 -0.3367  0.6679 -0.4528
 3203TIP3    H131024   5.228   2.607  12.447 -0.1158  0.1263  1.1524
 3203TIP3    H231025   5.113   2.514  12.414  0.2008 -0.2107  1.0060
 3204TIP3   OH231026   1.378   5.545   1.524  0.3406 -0.1799 -0.2595
 3204TIP3    H131027   1.435   5.623   1.519  1.3729 -1.0010 -1.7558
 3204TIP3    H231028   1.300   5.570   1.474  0.4943  0.0467 -0.3917
 3205TIP3   OH231029   3.672   5.226   4.869 -0.1251 -0.1404 -0.0915
 3205TIP3    H131030   3.717   5.220   4.953 -2.0765  1.4306  1.0993
 3205TIP3    H231031   3.735   5.268   4.811  1.0042 -0.6341  0.7636
 3206TIP3   OH231032   5.236   3.487  11.988  0.3995  0.0644  0.3259
 3206TIP3    H131033   5.245   3.494  12.083 -1.5880  1.0451  0.4661
 3206TIP3    H231034   5.318   3.446  11.960  1.1034 -0.0715  2.4270
 3207TIP3   OH231035   1.212   1.471  15.935  0.1737 -0.0467  0.3629
 3207TIP3    H131036   1.189   1.499  15.847 -0.3759 -0.0580  0.5008
 3207TIP3    H231037   1.128   1.456  15.979  0.4447 -2.4745  0.1200
 3208TIP3   OH231038   6.680   4.181  11.155 -0.2076  0.0806 -0.2188
 3208TIP3    H131039   6.644   4.221  11.076  0.8824  0.4395 -0.5373
 3208TIP3    H231040   6.627   4.216  11.226  0.0369  1.2555 -0.6084
 3209TIP3   OH231041   5.082   0.402   4.941 -0.1024  0.5356 -0.4681
 3209TIP3    H131042   4.991   0.433   4.947  0.7324  2.8068  0.6203
 3209TIP3    H231043   5.086   0.329   5.003 -1.1369  0.4878 -0.4421
 3210TIP3   OH231044   3.185   1.377  10.398  0.1459  0.0654  0.2323
 3210TIP3    H131045   3.245   1.303  10.402  1.7304  1.2971  0.1077
 3210TIP3    H231046   3.154   1.387  10.488 -1.3132 -1.6854 -0.0399
 3211TIP3   OH231047   5.153   3.354   2.736  0.1255 -0.5403 -0.2217
 3211TIP3    H131048   5.140   3.315   2.822 -2.0499 -0.8210 -0.6465
 3211TIP3    H231049   5.191   3.282   2.684  1.7676 -0.2688  0.5504
 3212TIP3   OH231050   2.513   1.077   5.169 -0.2240  0.4066  0.2339
 3212TIP3    H131051   2.472   1.128   5.239  0.1578  0.7743  0.1923
 3212TIP3    H231052   2.543   1.143   5.106 -1.1214  0.0453 -0.5750
 3213TIP3   OH231053   1.835   3.581  15.039  0.1334 -0.0093 -0.0821
 3213TIP3    H131054   1.778   3.538  14.975 -0.8745  0.0379  0.7594
 3213TIP3    H231055   1.805   3.671  15.042  0.0225 -0.0659  0.6212
 3214TIP3   OH231056   6.706   0.201   5.646  0.3866  0.2617 -0.0088
 3214TIP3    H131057   6.658   0.214   5.565 -0.9819  1.3444  0.9541
 3214TIP3    H231058   6.796   0.226   5.626 -0.3044  2.2355 -0.7111
 3215TIP3   OH231059   6.497   1.876   3.803  0.2737  0.0623 -0.1757
 3215TIP3    H131060   6.438   1.809   3.767 -0.6640  0.7918 -0.0300
 3215TIP3    H231061   6.579   1.865   3.754 -0.4982  0.0712 -1.5175
 3216TIP3   OH231062   1.941   5.849  15.867  0.1163 -0.4683 -1.1247
 3216TIP3    H131063   1.963   5.922  15.810  2.0072 -1.2505 -1.4313
 3216TIP3    H231064   1.856   5.818  15.836 -1.3416  2.3743 -0.1795
 3217TIP3   OH231065   5.663   2.062   5.527  0.4065  0.0552  0.4090
 3217TIP3    H131066   5.571   2.086   5.519  0.0442 -1.7909 -1.4857
 3217TIP3    H231067   5.707   2.116   5.461  0.2925 -0.8583 -0.4342
 3218TIP3   OH231068   4.086   5.636   1.907 -0.3988 -0.0530  0.3564
 3218TIP3    H131069   4.123   5.693   1.841 -0.2234 -0.4427  0.1135
 3218TIP3    H231070   4.011   5.595   1.864 -0.2091 -0.4035  0.3575
 3219TIP3   OH231071   1.597   4.795  16.518 -0.3443  0.4899 -0.1140
 3219TIP3    H131072   1.627   4.741  16.591 -0.0369 -0.9468 -1.2656
 3219TIP3    H231073   1.627   4.884  16.540  2.5987 -0.4739 -0.0145
 3220TIP3   OH231074   0.556   1.096  14.959  0.4987  0.1244  0.7596
 3220TIP3    H131075   0.615   1.098  14.883  0.1295 -0.4907  0.4586
 3220TIP3    H231076   0.552   1.004  14.984 -0.3631  0.1581  0.7582
 3221TIP3   OH231077   5.037   0.422  13.138  0.2612 -0.1141  0.2377
 3221TIP3    H131078   5.070   0.474  13.211  2.5712 -0.1302 -0.7335
 3221TIP3    H231079   4.947   0.401  13.162 -0.0224  2.4734  1.6559
 3222TIP3   OH231080   0.744   2.474  15.920 -0.3226 -0.7252 -0.0049
 3222TIP3    H131081   0.760   2.536  15.849  0.1260 -0.2957  0.4706
 3222TIP3    H231082   0.698   2.401  15.878 -0.6512 -0.1749 -0.6079
 3223TIP3   OH231083   3.984   2.079   6.749 -0.0575 -0.2843  0.7472
 3223TIP3    H131084   3.953   2.041   6.667  0.1012  2.3241 -0.5674
 3223TIP3    H231085   4.026   2.007   6.795 -2.8127 -2.5075 -0.0805
 3224TIP3   OH231086   3.580   3.316   1.153  0.3118 -0.3174  0.3221
 3224TIP3    H131087   3.498   3.274   1.180 -0.4367  0.6584 -0.3802
 3224TIP3    H231088   3.552   3.396   1.109  1.6781  0.3048  0.5722
 3225TIP3   OH231089   3.802   1.385  16.073  0.1035 -0.0971 -0.6140
 3225TIP3    H131090   3.820   1.329  15.997  0.5227  0.7518 -1.1483
 3225TIP3    H231091   3.725   1.436  16.047  0.2476  0.1928 -0.4671
 3226TIP3   OH231092   0.825   5.238   1.751  0.5118 -0.1301  0.0241
 3226TIP3    H131093   0.871   5.304   1.803  0.4440  0.2256 -0.3610
 3226TIP3    H231094   0.744   5.281   1.725  0.2233 -0.5600  0.2269
 3227TIP3   OH231095   6.571   0.633   1.640  0.0032  0.1280 -0.3098
 3227TIP3    H131096   6.623   0.598   1.568 -0.8725  0.7854 -1.2569
 3227TIP3    H231097   6.618   0.604   1.719  1.7706  0.6384 -1.1478
 3228TIP3   OH231098   3.348   1.471  12.648 -0.2730 -0.2467 -0.9072
 3228TIP3    H131099   3.285   1.539  12.674  1.7025  1.4613 -0.3977
 3228TIP3    H231100   3.372   1.494  12.558  0.9754  0.2047 -0.4727
 3229TIP3   OH231101   6.740   6.092  13.928 -0.4918 -0.0456  0.2296
 3229TIP3    H131102   6.646   6.094  13.909 -0.9270 -0.8342  2.1524
 3229TIP3    H231103   6.754   6.004  13.964  1.1440 -0.2140 -0.7956
 3230TIP3   OH231104   3.330   1.258  11.186  0.0342  0.1239 -0.4947
 3230TIP3    H131105   3.373   1.259  11.272 -1.5412  1.6794  0.3156
 3230TIP3    H231106   3.318   1.166  11.166  3.3848 -0.3439 -0.5901
 3231TIP3   OH231107   5.101   1.504   2.004  0.2377 -0.2583 -0.2274
 3231TIP3    H131108   5.074   1.519   2.094  0.7315  0.3032 -0.1711
 3231TIP3    H231109   5.036   1.548   1.951  0.6649  0.5185 -0.1097
 3232TIP3   OH231110   0.471   0.947   6.056  0.8110  0.5249 -0.2163
 3232TIP3    H131111   0.544   0.911   6.106 -2.1881 -1.4318  2.9661
 3232TIP3    H231112   0.406   0.876   6.054 -0.8218  2.0093 -3.4177
 3233TIP3   OH231113   1.177   4.597  11.800 -0.0730 -0.6746  0.1646
 3233TIP3    H131114   1.107   4.536  11.824  0.4931 -1.6960 -0.7554
 3233TIP3    H231115   1.155   4.625  11.712  1.3141 -1.9696 -0.6277
 3234TIP3   OH231116   2.396   0.994  13.286  0.2898  0.9447 -0.0408
 3234TIP3    H131117   2.456   0.920  13.290  0.1127  0.6840 -1.7541
 3234TIP3    H231118   2.325   0.972  13.346  0.8674  0.2997  0.3976
 3235TIP3   OH231119   0.704   5.916   1.703 -0.1228  0.4886 -0.3956
 3235TIP3    H131120   0.630   5.952   1.752 -0.7788  1.5218 -2.1063
 3235TIP3    H231121   0.670   5.901   1.615  1.1876 -0.8411 -0.7028
 3236TIP3   OH231122   5.600   5.386   0.476 -0.0686 -0.0822  0.0251
 3236TIP3    H131123   5.678   5.366   0.424 -0.2091  0.6226 -0.4732
 3236TIP3    H231124   5.527   5.351   0.425 -0.1068 -0.4086  0.3065
 3237TIP3   OH231125   1.107   2.725  10.678  0.1334 -0.0456  0.0156
 3237TIP3    H131126   1.112   2.672  10.758  0.8308  0.1097  0.0778
 3237TIP3    H231127   1.162   2.679  10.615  2.0203  1.4034  0.5429
 3238TIP3   OH231128   3.894   2.099  13.596  0.0408  0.0943 -0.2919
 3238TIP3    H131129   3.896   2.155  13.518  2.1250 -0.9737 -1.0273
 3238TIP3    H231130   3.822   2.038  13.579  0.9465 -0.5884 -1.7009
 3239TIP3   OH231131   4.740   0.998   2.379  0.4349  0.3885 -0.3066
 3239TIP3    H131132   4.655   0.973   2.345 -0.9532  1.2980  2.3853
 3239TIP3    H231133   4.726   1.083   2.420  2.2911 -0.0909  1.4145
 3240TIP3   OH231134   3.725   6.565   6.072  0.2395 -1.2362 -0.2395
 3240TIP3    H131135   3.777   6.632   6.115 -1.5313  0.8305 -1.2084
 3240TIP3    H231136   3.642   6.564   6.120  0.4121 -3.1117  0.0766
 3241TIP3   OH231137   1.753   3.424   1.860  0.3552  0.3782 -0.2606
 3241TIP3    H131138   1.759   3.474   1.779  0.1584  1.6186  0.4688
 3241TIP3    H231139   1.842   3.394   1.876  0.7720  1.7120  0.0277
 3242TIP3   OH231140   4.913   3.860   3.968 -0.2789  0.0378  0.1019
 3242TIP3    H131141   4.901   3.949   4.001  0.3945  0.8856 -1.8227
 3242TIP3    H231142   4.974   3.870   3.894 -0.1329 -2.0280 -0.0847
 3243TIP3   OH231143   5.999   0.244  11.191 -0.2880 -0.2934  0.2889
 3243TIP3    H131144   6.084   0.233  11.234  0.3907  1.2315 -0.6194
 3243TIP3    H231145   5.974   0.156  11.164  1.3313 -0.6661 -0.0463
 3244TIP3   OH231146   1.775   1.175   5.227 -0.6329 -0.3967  0.2540
 3244TIP3    H131147   1.781   1.185   5.322 -0.9469  0.7967  0.1642
 3244TIP3    H231148   1.860   1.207   5.195 -0.3543 -1.2300  0.1626
 3245TIP3   OH231149   5.662   1.104   3.686  0.1030  0.1030 -0.4383
 3245TIP3    H131150   5.602   1.037   3.652  1.7317 -1.8070  0.3482
 3245TIP3    H231151   5.604   1.172   3.721 -1.6492 -1.9848  0.8814
 3246TIP3   OH231152   1.980   2.655   5.166 -0.5237  0.3937 -0.3282
 3246TIP3    H131153   2.032   2.596   5.111 -1.7487 -0.2370 -0.8237
 3246TIP3    H231154   1.910   2.687   5.109 -1.5803  0.0312  0.7343
 3247TIP3   OH231155   3.107   5.558  15.661 -0.0548  0.1858 -0.0637
 3247TIP3    H131156   3.036   5.582  15.721  1.9507  2.4823  1.4775
 3247TIP3    H231157   3.174   5.625  15.674  1.8141 -1.1043 -2.5416
 3248TIP3   OH231158   5.475   4.064  13.550  0.1861  0.4208 -0.2409
 3248TIP3    H131159   5.499   4.064  13.457  0.8401  0.7661 -0.0673
 3248TIP3    H231160   5.524   4.136  13.588  1.3538 -0.8752  0.7499
 3249TIP3   OH231161   2.984   3.767  14.356  0.7706 -0.4869  0.1014
 3249TIP3    H131162   3.037   3.795  14.431  0.1977  1.2894 -0.1425
 3249TIP3    H231163   2.896   3.797  14.377  0.4753 -0.5977 -0.9740
 3250TIP3   OH231164   2.783   5.470   4.440  0.1548 -0.4972 -0.1975
 3250TIP3    H131165   2.852   5.425   4.392  0.9350  0.1759  0.2925
 3250TIP3    H231166   2.761   5.410   4.512  1.4436  0.0392  0.6660
 3251TIP3   OH231167   1.421   2.621   1.252 -0.1651 -0.0052  0.2292
 3251TIP3    H131168   1.431   2.688   1.184 -1.0499 -0.0581  0.0476
 3251TIP3    H231169   1.509   2.611   1.288  0.0350  1.0358  0.0518
 3252TIP3   OH231170   2.006   2.879  11.015  0.0525 -0.1995  0.2533
 3252TIP3    H131171   2.051   2.828  11.082 -0.0268  0.8435  1.1091
 3252TIP3    H231172   2.076   2.907  10.955  0.2365 -0.4453  0.3542
 3253TIP3   OH231173   1.664   2.846   2.267 -0.4767  0.3224  0.1158
 3253TIP3    H131174   1.590   2.902   2.243 -0.2263  0.2631 -0.8353
 3253TIP3    H231175   1.736   2.875   2.210 -0.3081 -0.8705 -0.3077
 3254TIP3   OH231176   1.483   6.780  13.645 -0.4081  0.7055  0.1076
 3254TIP3    H131177   1.563   6.832  13.651 -1.2066  2.2019 -1.7216
 3254TIP3    H231178   1.502   6.715  13.577 -0.4608  0.5541  0.2377
 3255TIP3   OH231179   5.526   0.216  10.739  0.1461  0.1968 -0.2517
 3255TIP3    H131180   5.589   0.193  10.671  0.5703  1.5428 -0.3283
 3255TIP3    H231181   5.577   0.265  10.803 -0.6501  0.5623  0.1090
 3256TIP3   OH231182   0.421   4.318  15.156 -0.1782 -0.3157  0.4077
 3256TIP3    H131183   0.415   4.262  15.233 -0.6505 -1.5460 -0.5112
 3256TIP3    H231184   0.485   4.275  15.099 -1.5834 -0.6902 -0.9195
 3257TIP3   OH231185   4.970   0.777   2.211  0.3403 -0.2430 -0.4099
 3257TIP3    H131186   5.038   0.818   2.265  1.2274  0.4552 -2.0476
 3257TIP3    H231187   4.889   0.787   2.263  0.9009  1.7886  0.1007
 3258TIP3   OH231188   3.925   4.355   0.205  0.3552 -0.3849 -0.5755
 3258TIP3    H131189   3.873   4.350   0.125  1.1074 -1.0520 -1.0295
 3258TIP3    H231190   4.012   4.382   0.175  0.3540  0.4412  0.1471
 3259TIP3   OH231191   2.345   1.892   2.791 -0.5770  0.1072  0.1302
 3259TIP3    H131192   2.271   1.940   2.754 -2.1879 -1.1640  1.6073
 3259TIP3    H231193   2.372   1.831   2.722  0.9124  2.4327 -1.4246
 3260TIP3   OH231194   3.080   3.905   5.615 -0.5869  0.4936 -0.1985
 3260TIP3    H131195   3.174   3.888   5.610 -0.8014 -0.6496 -0.2921
 3260TIP3    H231196   3.051   3.904   5.524 -0.2196  3.5882 -0.4051
 3261TIP3   OH231197   0.095   1.484  13.298 -0.4164 -0.3440 -0.1220
 3261TIP3    H131198   0.023   1.437  13.340 -0.3398  0.6314  1.1425
 3261TIP3    H231199   0.173   1.457  13.346 -0.1665 -0.1169 -0.3940
 3262TIP3   OH231200   6.001   0.480  10.499  0.1485 -0.0749 -0.1403
 3262TIP3    H131201   6.062   0.552  10.488 -1.3115  1.0789 -0.7987
 3262TIP3    H231202   6.021   0.420  10.426 -0.7845  1.2389 -1.4971
 3263TIP3   OH231203   5.759   3.919   5.206  0.5314  0.3583  0.7149
 3263TIP3    H131204   5.826   3.962   5.152 -1.3653  0.2807 -1.8415
 3263TIP3    H231205   5.735   3.984   5.271  0.6207  1.6790 -0.5432
 3264TIP3   OH231206   6.048   0.046  15.126 -0.1093  0.6389  0.1442
 3264TIP3    H131207   6.138   0.043  15.157 -0.0472  0.1697 -0.0755
 3264TIP3    H231208   5.995   0.052  15.205  0.1675  2.1144  0.2301
 3265TIP3   OH231209   5.804   3.556   0.182  0.0327  0.0544  0.4646
 3265TIP3    H131210   5.897   3.560   0.206 -0.0742  0.5435  0.8085
 3265TIP3    H231211   5.760   3.530   0.263 -0.1410 -0.0245  0.3415
 3266TIP3   OH231212   0.461   4.272   5.854 -0.0493  0.3684 -0.4746
 3266TIP3    H131213   0.481   4.269   5.760  0.4491  2.0832 -0.4279
 3266TIP3    H231214   0.372   4.307   5.859  0.0068  0.4868 -0.2933
 3267TIP3   OH231215   2.336   2.759  11.625  0.2879 -0.0818 -0.0771
 3267TIP3    H131216   2.266   2.744  11.562  1.7311  0.5039 -1.8546
 3267TIP3    H231217   2.402   2.693  11.604  2.4640  2.4910 -1.7160
 3268TIP3   OH231218   1.655   5.625  12.222  0.5340  0.1659 -0.1482
 3268TIP3    H131219   1.572   5.582  12.200  1.3016 -0.8610 -1.0857
 3268TIP3    H231220   1.642   5.716  12.196 -1.2092  0.6160  2.1335
 3269TIP3   OH231221   6.166   5.825   2.773  0.5054 -0.2341 -0.2399
 3269TIP3    H131222   6.252   5.860   2.796  1.5431 -2.8425 -0.0174
 3269TIP3    H231223   6.109   5.850   2.845  1.6668 -0.6101  0.8204
 3270TIP3   OH231224   4.267   3.138   3.622  0.4133 -0.2500  0.2843
 3270TIP3    H131225   4.325   3.084   3.568 -0.5749  0.7790 -1.8681
 3270TIP3    H231226   4.324   3.208   3.654  0.6922 -0.0127 -0.6920
 3271TIP3   OH231227   4.409   2.727  16.859  0.2428  0.0316  0.3940
 3271TIP3    H131228   4.320   2.707  16.888  0.6645 -1.6050  0.6148
 3271TIP3    H231229   4.420   2.820  16.876 -0.9036 -0.0804  1.8079
 3272TIP3   OH231230   1.903   5.913  17.048  0.0506  0.6782  0.6510
 3272TIP3    H131231   1.932   5.827  17.078 -0.0574 -0.4210 -2.1988
 3272TIP3    H231232   1.941   5.922  16.960 -3.1213  1.8675 -0.6755
 3273TIP3   OH231233   6.157   4.265   5.559  0.2430  0.5258  0.1293
 3273TIP3    H131234   6.229   4.234   5.616  0.1748  1.7469  0.8911
 3273TIP3    H231235   6.118   4.337   5.607 -1.9438 -0.5472  0.0213
 3274TIP3   OH231236   5.145   6.674   1.699 -0.0078  0.0608 -0.1007
 3274TIP3    H131237   5.225   6.627   1.720  0.6527  0.9744 -0.5631
 3274TIP3    H231238   5.076   6.627   1.747  1.0555  0.3160  1.7220
 3275TIP3   OH231239   3.601   1.519   4.710 -0.0390  0.2631 -0.1631
 3275TIP3    H131240   3.614   1.613   4.704 -0.4995  0.6108  3.3077
 3275TIP3    H231241   3.635   1.495   4.797  1.7224 -3.0626 -1.6640
 3276TIP3   OH231242   4.027   3.780   4.833 -0.1001  0.1490 -0.2531
 3276TIP3    H131243   3.960   3.743   4.776 -2.7262  0.8705  2.2451
 3276TIP3    H231244   4.075   3.842   4.777 -2.1362  0.3384 -1.8453
 3277TIP3   OH231245   0.551   2.878   0.485 -0.3654  0.4441 -0.5123
 3277TIP3    H131246   0.526   2.853   0.574 -1.2145 -1.7453 -1.3373
 3277TIP3    H231247   0.601   2.959   0.496  0.8879 -0.6238  2.0892
 3278TIP3   OH231248   1.125   1.322  13.562 -0.0992 -0.7471 -0.1822
 3278TIP3    H131249   1.090   1.381  13.629  1.1621  0.8797 -0.9321
 3278TIP3    H231250   1.144   1.379  13.487 -1.5734 -2.5385 -1.9888
 3279TIP3   OH231251   4.161   2.784   1.400  0.1542  0.0176  0.6027
 3279TIP3    H131252   4.202   2.702   1.373  0.9935  0.4153  0.6246
 3279TIP3    H231253   4.073   2.781   1.363 -0.3840 -1.6083  1.9673
 3280TIP3   OH231254   4.243   2.246   3.139  0.1105 -0.2439 -0.6204
 3280TIP3    H131255   4.160   2.198   3.136  0.2975 -0.6129  0.0494
 3280TIP3    H231256   4.221   2.328   3.183  0.2215 -0.6039  0.1231
 3281TIP3   OH231257   5.369   1.042  10.805  0.2076 -0.1712  0.1555
 3281TIP3    H131258   5.368   1.138  10.807 -0.3267 -0.1809  1.0187
 3281TIP3    H231259   5.372   1.020  10.712  3.2599  0.6850 -0.0256
 3282TIP3   OH231260   2.478   3.040   1.377 -0.0102  0.4162  0.0600
 3282TIP3    H131261   2.411   3.064   1.441  0.6785  1.7697  0.2893
 3282TIP3    H231262   2.432   3.042   1.292 -0.4924  0.3417  0.3157
 3283TIP3   OH231263   2.232   1.295  13.268 -0.8701 -0.2291  0.1886
 3283TIP3    H131264   2.316   1.261  13.238 -0.8689 -0.1390  0.0903
 3283TIP3    H231265   2.218   1.374  13.217 -0.6055  0.2274  0.8233
 3284TIP3   OH231266   0.513   1.016   0.377 -0.5594  0.7509  0.3576
 3284TIP3    H131267   0.565   1.091   0.405  0.3612  0.0913  0.4536
 3284TIP3    H231268   0.539   1.001   0.286 -1.2439  0.9590  0.1200
 3285TIP3   OH231269   2.911   2.440  12.107 -0.2297  0.1426  0.2496
 3285TIP3    H131270   2.880   2.530  12.105 -0.8770 -0.0533  0.8937
 3285TIP3    H231271   2.831   2.387  12.100  0.0772 -0.3774  0.5715
 3286TIP3   OH231272   5.991   2.413  15.749  0.1521  0.1382 -0.2289
 3286TIP3    H131273   5.984   2.504  15.775  0.3985  0.4410 -1.2103
 3286TIP3    H231274   5.904   2.391  15.715 -0.6079 -0.6804  2.1532
 3287TIP3   OH231275   1.938   2.696  13.176 -0.1922 -0.6240 -0.2007
 3287TIP3    H131276   1.988   2.687  13.095  0.5731  1.0918  0.0386
 3287TIP3    H231277   2.004   2.709  13.244 -0.9009  2.4378  0.0118
 3288TIP3   OH231278   6.454   6.283   4.323 -0.0222 -0.1549  0.3557
 3288TIP3    H131279   6.502   6.366   4.328 -0.3796  0.0180  0.9797
 3288TIP3    H231280   6.389   6.289   4.393  0.0493 -1.0205  0.4942
 3289TIP3   OH231281   2.688   1.219  12.191 -0.2913 -0.1120 -0.3327
 3289TIP3    H131282   2.724   1.306  12.209  3.6120 -1.0371 -2.9225
 3289TIP3    H231283   2.729   1.162  12.255 -2.3992 -0.2116  0.9825
 3290TIP3   OH231284   0.088   6.078   5.965  0.3839 -0.1462 -0.1446
 3290TIP3    H131285   0.160   6.015   5.955  1.6853  1.6054 -2.2289
 3290TIP3    H231286   0.109   6.126   6.045  0.6220 -0.7785  0.1787
 3291TIP3   OH231287   6.167   0.860   0.051  0.6580  0.5787 -0.1708
 3291TIP3    H131288   6.111   0.792   0.015 -1.5913  2.2959  0.0048
 3291TIP3    H231289   6.253   0.819   0.059 -0.8825 -2.5666  0.9228
 3292TIP3   OH231290   1.585   1.977  14.287  0.1423 -0.0775  0.0214
 3292TIP3    H131291   1.522   2.043  14.314 -0.7114 -0.6067 -0.6649
 3292TIP3    H231292   1.553   1.895  14.326  1.5341  0.0132  1.3895
 3293TIP3   OH231293   0.713   5.172  12.439 -0.1891  0.0471  0.9429
 3293TIP3    H131294   0.719   5.114  12.515  0.9334  1.0320  1.6198
 3293TIP3    H231295   0.778   5.240  12.455 -0.5044  0.7205 -0.5197
 3294TIP3   OH231296   6.576   3.144   2.443  0.1543  0.7762 -0.1783
 3294TIP3    H131297   6.612   3.143   2.355  0.0951  0.7458 -0.2020
 3294TIP3    H231298   6.500   3.201   2.438  0.1632  0.7914 -0.1415
 3295TIP3   OH231299   1.606   3.374  17.125 -0.1602 -0.2374  0.4677
 3295TIP3    H131300   1.559   3.383  17.042 -0.0070 -1.5205  0.2374
 3295TIP3    H231301   1.541   3.396  17.192  0.1664  2.5047 -0.0306
 3296TIP3   OH231302   4.725   1.679   2.625  0.4863 -0.1409  0.2819
 3296TIP3    H131303   4.784   1.622   2.675 -1.3895 -0.3164  2.3967
 3296TIP3    H231304   4.759   1.767   2.638  1.6954 -0.4856 -0.5465
 3297TIP3   OH231305   4.170   1.911   3.404  0.2534  0.4145  0.4889
 3297TIP3    H131306   4.110   1.866   3.344  1.3491 -1.8449  1.0020
 3297TIP3    H231307   4.236   1.951   3.346 -2.2585  3.8329 -0.1407
 3298TIP3   OH231308   1.848   5.875  13.136 -0.3297  0.1019  0.2432
 3298TIP3    H131309   1.860   5.835  13.049  0.1522 -1.0539  0.8256
 3298TIP3    H231310   1.823   5.965  13.118 -2.2321 -0.6739 -1.1174
 3299TIP3   OH231311   5.774   5.515   2.161  0.2815 -0.4932 -0.2364
 3299TIP3    H131312   5.786   5.436   2.109 -1.3383  0.1333 -1.5778
 3299TIP3    H231313   5.829   5.501   2.238  0.4181 -2.6890 -0.7049
 3300TIP3   OH231314   6.646   5.479   1.042 -0.3655 -0.3253  0.0493
 3300TIP3    H131315   6.696   5.403   1.012 -0.3584 -0.6556  0.9029
 3300TIP3    H231316   6.711   5.550   1.048 -0.5057 -0.0396 -1.4661
 3301TIP3   OH231317   2.069   4.687  11.381 -0.6912  0.0114 -0.0984
 3301TIP3    H131318   2.083   4.735  11.463 -1.0807  0.0208 -0.0354
 3301TIP3    H231319   1.998   4.735  11.338  0.5928  0.9512 -1.1936
 3302TIP3   OH231320   5.448   0.234  13.667 -0.3513  0.5976  0.1765
 3302TIP3    H131321   5.539   0.253  13.691 -0.1111 -0.3982  0.0598
 3302TIP3    H231322   5.420   0.310  13.617  1.1814 -0.1289 -1.8674
 3303TIP3   OH231323   1.660   6.412   4.892 -0.2556 -0.1897  0.0387
 3303TIP3    H131324   1.736   6.455   4.852 -1.5863 -0.6639 -3.1545
 3303TIP3    H231325   1.611   6.483   4.933  1.4748  0.2365  1.4008
 3304TIP3   OH231326   6.615   4.588  12.271 -0.1442  0.4072 -0.3140
 3304TIP3    H131327   6.579   4.669  12.234  0.4028  0.8565  0.1408
 3304TIP3    H231328   6.699   4.613  12.308 -0.1707 -0.2844  0.2214
 3305TIP3   OH231329   6.073   4.868  14.199 -0.0911  0.1571  0.2825
 3305TIP3    H131330   6.132   4.857  14.124 -1.2027 -1.7690 -0.3385
 3305TIP3    H231331   5.989   4.836  14.167 -0.3251 -1.6990  2.7035
 3306TIP3   OH231332   6.189   2.042  16.196 -0.1427 -0.1409  0.6017
 3306TIP3    H131333   6.164   1.980  16.265 -1.9687  2.1073  2.0672
 3306TIP3    H231334   6.284   2.046  16.200 -0.0802 -1.9891  1.2508
 3307TIP3   OH231335   2.928   2.188   6.589  0.1103 -0.2049 -0.0876
 3307TIP3    H131336   2.955   2.106   6.631  2.3846  0.7510  0.3987
 3307TIP3    H231337   2.946   2.175   6.496  2.2370  0.3768  0.2161
 3308TIP3   OH231338   2.720   6.582  15.366 -0.2004  0.5743 -0.9091
 3308TIP3    H131339   2.707   6.648  15.298 -1.1848  0.0686 -1.2138
 3308TIP3    H231340   2.640   6.530  15.365 -0.3756  0.8036  0.9159
 3309TIP3   OH231341   5.667   1.325   4.286  0.4929 -0.0205 -0.1745
 3309TIP3    H131342   5.753   1.307   4.323  0.2131  0.6767  0.8247
 3309TIP3    H231343   5.609   1.260   4.328  0.1197  0.9631  0.8533
 3310TIP3   OH231344   6.490   3.315   2.978 -0.0603 -0.0906 -0.1400
 3310TIP3    H131345   6.433   3.313   2.901  0.4121 -0.2772 -0.4894
 3310TIP3    H231346   6.573   3.277   2.947  0.8040  1.7105 -0.0879
 3311TIP3   OH231347   3.230   3.812   4.060  0.0158  0.7920 -0.1224
 3311TIP3    H131348   3.263   3.745   4.002 -2.6785 -0.2739 -0.4980
 3311TIP3    H231349   3.235   3.893   4.009  0.7940  0.4261 -0.6256
 3312TIP3   OH231350   0.168   4.558  14.690  0.2224 -0.1956  0.5537
 3312TIP3    H131351   0.229   4.631  14.702  1.2438 -1.1142  1.0231
 3312TIP3    H231352   0.091   4.598  14.650  0.4789  1.2725  1.4833
 3313TIP3   OH231353   3.906   4.821   5.877 -0.6588  0.1289  0.4896
 3313TIP3    H131354   3.936   4.805   5.788 -2.4189  0.5497 -0.1917
 3313TIP3    H231355   3.811   4.808   5.874 -0.7603  0.2795  2.2633
 3314TIP3   OH231356   5.087   6.223   4.977 -0.3294  0.3163 -1.0235
 3314TIP3    H131357   5.150   6.170   4.927 -0.1428 -0.8753  0.4515
 3314TIP3    H231358   5.142   6.272   5.039 -0.6719  0.8216 -1.1220
 3315TIP3   OH231359   4.912   5.740   1.523 -0.0338 -0.4002 -0.5077
 3315TIP3    H131360   4.991   5.720   1.473  0.3600  0.4641 -0.2513
 3315TIP3    H231361   4.862   5.799   1.467 -0.6741 -1.2193 -0.8152
 3316TIP3   OH231362   1.879   5.296  12.597  0.2613  0.0319  0.2052
 3316TIP3    H131363   1.874   5.385  12.560  1.2473  0.0817  0.1762
 3316TIP3    H231364   1.831   5.242  12.535  0.4059  0.4078 -0.2386
 3317TIP3   OH231365   4.438   0.380   0.864  0.5903 -0.0413 -0.0871
 3317TIP3    H131366   4.417   0.427   0.783  0.7049 -1.9380 -1.2402
 3317TIP3    H231367   4.527   0.410   0.885  0.3537  0.8767 -0.3657
 3318TIP3   OH231368   5.995   1.459  11.681 -0.0479 -0.1116 -0.0769
 3318TIP3    H131369   5.922   1.503  11.636 -0.6616  1.2270  2.1630
 3318TIP3    H231370   6.071   1.514  11.662 -0.2617  0.3184  0.2863
 3319TIP3   OH231371   0.944   2.998   2.782  0.7821  0.0253  0.8762
 3319TIP3    H131372   0.950   3.088   2.815 -0.2209 -0.2496  1.8457
 3319TIP3    H231373   0.988   3.001   2.698  3.4494  0.7408  2.2426
 3320TIP3   OH231374   0.490   0.428   0.874 -0.0524  0.6774  0.4189
 3320TIP3    H131375   0.492   0.394   0.785  0.3482  1.1430  0.2427
 3320TIP3    H231376   0.543   0.367   0.925 -1.7350 -0.5863  0.7157
 3321TIP3   OH231377   1.078   2.178  11.889  0.0549  0.0243 -0.3416
 3321TIP3    H131378   1.145   2.241  11.917  0.4400  0.4704 -2.2246
 3321TIP3    H231379   1.114   2.139  11.809 -0.3115 -2.3845  0.6209
 3322TIP3   OH231380   2.690   6.109  13.622 -0.1301 -0.3146 -0.2372
 3322TIP3    H131381   2.636   6.171  13.673  0.5200  0.5568 -0.5931
 3322TIP3    H231382   2.694   6.148  13.535 -0.4036 -1.2982 -0.6961
 3323TIP3   OH231383   6.696   3.214  13.152 -0.3508  0.0954 -0.3671
 3323TIP3    H131384   6.645   3.170  13.083 -1.9700 -0.3070  1.0514
 3323TIP3    H231385   6.711   3.146  13.218 -2.3128  1.4413  1.5455
 3324TIP3   OH231386   0.991   0.185   1.992  0.4705  0.1103 -0.3695
 3324TIP3    H131387   0.969   0.198   1.900  0.0494 -1.3577 -0.4945
 3324TIP3    H231388   0.972   0.093   2.008 -0.6633  0.6477  1.5165
 3325TIP3   OH231389   5.286   0.975   4.310  0.4796 -0.4260  0.6393
 3325TIP3    H131390   5.280   0.880   4.318  0.1874 -0.2803  2.5446
 3325TIP3    H231391   5.267   0.994   4.218  1.3342 -2.2633  0.0739
 3326TIP3   OH231392   5.227   0.911  16.383  0.0669  0.2135 -0.3294
 3326TIP3    H131393   5.224   0.836  16.442  1.1268  0.3095 -0.1406
 3326TIP3    H231394   5.309   0.956  16.405 -0.0063  0.7987 -1.1990
 3327TIP3   OH231395   0.775   1.699   1.421 -0.1880 -0.1858 -0.1542
 3327TIP3    H131396   0.841   1.730   1.484 -0.4512  1.1372 -0.5228
 3327TIP3    H231397   0.716   1.644   1.473  0.3993 -0.2342  0.4640
 3328TIP3   OH231398   2.403   0.945   5.427  0.2496 -0.4015 -0.3556
 3328TIP3    H131399   2.342   0.929   5.355  1.1606 -0.3296 -1.1555
 3328TIP3    H231400   2.442   1.030   5.407 -0.9206  0.5687  1.2644
 3329TIP3   OH231401   1.273   1.874  13.210 -0.1356 -0.1567  0.6962
 3329TIP3    H131402   1.196   1.856  13.155  1.0163 -0.3730 -0.8983
 3329TIP3    H231403   1.260   1.820  13.288 -1.1633 -0.9058  0.0265
 3330TIP3   OH231404   6.423   3.047   4.929  0.5185  0.3245  0.5469
 3330TIP3    H131405   6.331   3.074   4.934  0.1754 -0.8588  1.0099
 3330TIP3    H231406   6.421   2.954   4.953  1.9256  0.4771  1.2770
 3331TIP3   OH231407   4.991   0.074   1.836 -0.0086 -0.2569 -0.2665
 3331TIP3    H131408   4.969   0.167   1.841 -0.7904 -0.4668  0.3616
 3331TIP3    H231409   5.052   0.068   1.763  0.8263  0.9021  0.3102
 3332TIP3   OH231410   1.123   4.316   1.820 -0.0911  0.5135 -0.6536
 3332TIP3    H131411   1.192   4.262   1.858  0.7414  2.0157  0.0106
 3332TIP3    H231412   1.046   4.298   1.873  0.2813  0.2912 -0.1896
 3333TIP3   OH231413   0.054   2.177  11.446 -0.1352 -0.3411  0.1010
 3333TIP3    H131414   0.103   2.149  11.368  0.6772 -1.1304  0.8773
 3333TIP3    H231415   0.121   2.205  11.508 -0.7656  0.1326  0.5716
 3334TIP3   OH231416   0.129   1.911   1.538 -0.2239  0.0567  0.1643
 3334TIP3    H131417   0.164   1.944   1.455  1.0681  0.2501  0.7806
 3334TIP3    H231418   0.046   1.958   1.549 -1.1067 -0.9784 -1.6879
 3335TIP3   OH231419   5.818   1.310  14.937 -0.6716  0.5428 -0.5223
 3335TIP3    H131420   5.742   1.369  14.940  0.2917  1.7978 -0.4082
 3335TIP3    H231421   5.888   1.359  14.982  0.0662 -0.7956 -0.2059
 3336TIP3   OH231422   1.955   6.545   2.162 -0.0557 -0.9350 -0.0685
 3336TIP3    H131423   1.925   6.526   2.074  0.7352 -0.5774 -0.4268
 3336TIP3    H231424   1.877   6.537   2.217 -0.5842 -0.9949 -0.8224
 3337TIP3   OH231425   1.030   1.209   0.108  0.7831  0.8741  0.8087
 3337TIP3    H131426   1.086   1.261   0.166  3.2991  0.3371 -1.0428
 3337TIP3    H231427   1.090   1.172   0.043 -1.5785 -0.6941 -0.5770
 3338TIP3   OH231428   6.445   4.720  17.170 -0.3353 -0.3196  0.3773
 3338TIP3    H131429   6.534   4.685  17.169 -0.7951 -1.4787  0.0025
 3338TIP3    H231430   6.457   4.814  17.157  0.8660 -0.3980  0.8222
 3339TIP3   OH231431   2.429   4.407   0.888 -0.1861 -0.1056 -0.2475
 3339TIP3    H131432   2.375   4.336   0.853  0.2342 -0.4713 -0.1550
 3339TIP3    H231433   2.514   4.396   0.845  0.0159  0.0697  0.1043
 3340TIP3   OH231434   3.346   5.060  13.135 -0.2790 -0.2813 -0.1039
 3340TIP3    H131435   3.362   5.125  13.203  1.8503 -0.5474 -0.3377
 3340TIP3    H231436   3.262   5.021  13.159 -0.7555  1.3693  0.9743
 3341TIP3   OH231437   5.094   3.609   1.765  1.0111  0.7017 -0.6267
 3341TIP3    H131438   5.045   3.534   1.732 -0.9471  2.6601 -2.3491
 3341TIP3    H231439   5.138   3.646   1.688  3.7692  0.0718  0.5798
 3342TIP3   OH231440   4.639   2.041  12.977 -0.3733 -0.0209 -0.6836
 3342TIP3    H131441   4.694   2.058  12.901  0.0286 -1.2457 -0.6673
 3342TIP3    H231442   4.609   1.951  12.967 -1.1624  0.1381  0.0846
 3343TIP3   OH231443   4.664   2.961   3.717  0.0031  0.2165 -0.4440
 3343TIP3    H131444   4.722   2.908   3.772  1.2282  1.2722 -0.7162
 3343TIP3    H231445   4.619   3.019   3.779 -0.8832 -0.6760 -0.2210
 3344TIP3   OH231446   0.819   2.395  11.904  0.3499  0.1990 -0.2210
 3344TIP3    H131447   0.782   2.437  11.982  0.3885 -0.1954  0.0110
 3344TIP3    H231448   0.799   2.302  11.915  0.8130  0.0730 -0.4271
 3345TIP3   OH231449   6.730   6.278  13.534  1.1130 -0.1119  0.1093
 3345TIP3    H131450   6.810   6.307  13.490  1.6053  0.3848  1.3245
 3345TIP3    H231451   6.724   6.332  13.612 -0.6684  0.1740 -0.1993
 3346TIP3   OH231452   1.681   5.960  14.477 -0.3888  0.2481  0.5028
 3346TIP3    H131453   1.673   5.866  14.494  1.0373 -0.4963 -2.6430
 3346TIP3    H231454   1.597   5.997  14.504 -0.9293 -1.9167  1.8424
 3347TIP3   OH231455   6.406   6.058   3.929 -0.3558 -0.7119 -0.8112
 3347TIP3    H131456   6.495   6.083   3.903 -0.0427 -1.1066 -0.1457
 3347TIP3    H231457   6.419   5.984   3.988 -0.9947  0.6710  1.1027
 3348TIP3   OH231458   0.540   4.118   6.330  0.3151 -0.1737 -0.1158
 3348TIP3    H131459   0.463   4.061   6.326  1.6551 -2.0238 -0.1869
 3348TIP3    H231460   0.513   4.197   6.283 -1.9538 -0.2716  0.9385
 3349TIP3   OH231461   0.234   4.178   2.342 -0.0745  0.4213 -0.8555
 3349TIP3    H131462   0.304   4.242   2.327  2.8212 -2.1228  1.1169
 3349TIP3    H231463   0.230   4.128   2.260  0.3639  0.6579 -1.0226
 3350TIP3   OH231464   0.280   3.966   2.135  0.2597 -0.2025 -0.7623
 3350TIP3    H131465   0.235   3.888   2.102 -1.0256  0.4187 -0.5102
 3350TIP3    H231466   0.333   3.996   2.061  1.1003 -1.5591 -0.7164
 3351TIP3   OH231467   3.244   1.088  16.742 -0.7558  0.0896 -1.0365
 3351TIP3    H131468   3.279   1.081  16.653  2.4737 -0.1077  0.2138
 3351TIP3    H231469   3.241   1.182  16.758  0.2029  0.0797 -0.7753
 3352TIP3   OH231470   6.691   4.417   4.606  0.3344 -0.1904 -0.2678
 3352TIP3    H131471   6.676   4.323   4.616 -1.4430  0.2187  1.0971
 3352TIP3    H231472   6.729   4.426   4.518  0.9492 -2.2159 -0.2308
 3353TIP3   OH231473   6.104   4.412   1.622 -0.5434 -0.8185 -0.4594
 3353TIP3    H131474   6.033   4.390   1.683  0.7954 -1.8504  0.7346
 3353TIP3    H231475   6.076   4.372   1.539 -1.4074 -1.1212 -0.0348
 3354TIP3   OH231476   4.258   5.104   4.133 -0.4477  0.3576 -0.1469
 3354TIP3    H131477   4.346   5.093   4.170 -0.6107 -0.0606  0.1121
 3354TIP3    H231478   4.217   5.018   4.141 -1.0925  0.7010  0.2708
 3355TIP3   OH231479   4.305   5.343  12.562 -0.0713  0.2627 -0.1363
 3355TIP3    H131480   4.329   5.388  12.643 -0.8124 -0.0583  0.2734
 3355TIP3    H231481   4.375   5.363  12.500  0.5664  0.3923  0.6335
 3356TIP3   OH231482   5.697   3.407   1.313  0.8723  0.1218 -0.0530
 3356TIP3    H131483   5.708   3.499   1.334  1.9849 -0.0187  0.0208
 3356TIP3    H231484   5.653   3.369   1.389  0.0004  0.6690 -0.2732
 3357TIP3   OH231485   6.460   0.387   5.517 -0.6456 -0.5161  0.0774
 3357TIP3    H131486   6.482   0.309   5.467 -0.7670 -0.3380 -0.2567
 3357TIP3    H231487   6.489   0.460   5.462  0.6534 -0.3501  0.9572
 3358TIP3   OH231488   4.102   6.740   4.396 -0.2370 -0.3615 -0.7456
 3358TIP3    H131489   4.127   6.719   4.307 -1.2474 -0.4113 -1.0220
 3358TIP3    H231490   4.069   6.830   4.392 -0.2034 -0.3299 -0.4048
 3359TIP3   OH231491   0.465   2.977   1.685  0.1096  0.3103  0.1098
 3359TIP3    H131492   0.547   2.993   1.638  0.2676  1.5256  0.7624
 3359TIP3    H231493   0.397   2.980   1.618  0.8188 -3.3726 -0.8662
 3360TIP3   OH231494   0.737   1.525  12.557  0.5473  0.4319  0.3230
 3360TIP3    H131495   0.786   1.522  12.474  0.5962 -1.5902  0.4002
 3360TIP3    H231496   0.805   1.518  12.625  0.3207 -0.5479  0.4627
 3361TIP3   OH231497   2.970   1.030  13.098  0.8748 -0.5205 -0.7103
 3361TIP3    H131498   2.886   0.985  13.100  0.3504  0.4625 -0.3727
 3361TIP3    H231499   3.023   0.986  13.164 -0.6296  1.2502  1.7734
 3362TIP3   OH231500   2.380   6.104   1.562  0.1422  0.2717  0.2767
 3362TIP3    H131501   2.442   6.115   1.633  3.0056 -1.9127 -1.7489
 3362TIP3    H231502   2.364   6.010   1.558 -1.4472  0.5618 -0.7453
 3363TIP3   OH231503   2.351   2.974   0.582  0.6366 -0.4680  0.2879
 3363TIP3    H131504   2.392   2.971   0.496 -0.5900 -0.3343 -0.3061
 3363TIP3    H231505   2.310   3.060   0.587 -1.2570 -1.3445  0.0910
 3364TIP3   OH231506   3.323   4.176  15.688 -0.4588 -0.5236  0.4085
 3364TIP3    H131507   3.318   4.192  15.782  0.4183  0.1370  0.3603
 3364TIP3    H231508   3.261   4.239  15.650 -0.8640 -0.8374  0.5487
 3365TIP3   OH231509   1.573   5.516  14.156  0.4482 -0.0877  0.0250
 3365TIP3    H131510   1.554   5.449  14.222  1.3114 -1.4080 -1.0272
 3365TIP3    H231511   1.658   5.553  14.182 -0.8111  1.8189  1.5511
 3366TIP3   OH231512   4.267   0.449  12.192  0.4653 -0.6099 -0.5777
 3366TIP3    H131513   4.241   0.448  12.100  0.1033 -1.2099 -0.4738
 3366TIP3    H231514   4.184   0.459  12.240  0.5353 -1.4329 -0.2800
 3367TIP3   OH231515   3.512   0.062  11.936 -0.1946  0.1614 -0.5187
 3367TIP3    H131516   3.531  -0.002  11.869  0.8492  0.9616 -1.0033
 3367TIP3    H231517   3.582   0.051  12.001 -0.1805  0.5997 -0.4556
 3368TIP3   OH231518   6.758   0.441   5.925  0.1381  0.0946  0.4427
 3368TIP3    H131519   6.737   0.483   6.008  1.5789 -0.0794  0.9175
 3368TIP3    H231520   6.682   0.456   5.870 -0.6414  0.6113  1.6476
 3369TIP3   OH231521   6.742   3.235  11.154 -0.0863  0.4568  0.0380
 3369TIP3    H131522   6.771   3.291  11.081  0.5778  0.4736  0.3085
 3369TIP3    H231523   6.713   3.297  11.221 -0.3979  0.4482 -0.0861
 3370TIP3   OH231524   5.071   2.108  11.833 -0.0124  0.0492  0.0048
 3370TIP3    H131525   5.001   2.044  11.844 -0.9156  0.9679 -0.4127
 3370TIP3    H231526   5.146   2.056  11.803  0.3212 -1.3737  3.1146
 3371TIP3   OH231527   2.173   4.522  12.943 -0.3956 -0.0641  0.1117
 3371TIP3    H131528   2.233   4.546  12.872 -1.4570 -3.0624 -1.8932
 3371TIP3    H231529   2.229   4.478  13.007  0.3164  1.3169  0.4633
 3372TIP3   OH231530   2.588   0.055   0.170  0.0883 -0.3721  0.8109
 3372TIP3    H131531   2.633   0.126   0.126  0.0513 -1.4263 -0.9544
 3372TIP3    H231532   2.643   0.035   0.246  0.4415  1.0602  0.9408
 3373TIP3   OH231533   4.955   2.935   2.824 -0.0544 -0.4197 -0.1527
 3373TIP3    H131534   4.973   2.868   2.890  1.6137 -0.8353 -1.0099
 3373TIP3    H231535   5.029   2.931   2.764 -0.1273  1.9121 -0.4530
 3374TIP3   OH231536   1.663   1.151  15.559  0.2226 -0.6883  0.0933
 3374TIP3    H131537   1.612   1.229  15.580  0.5232 -0.4934  0.1117
 3374TIP3    H231538   1.603   1.078  15.571 -0.0285 -0.4653  0.1836
 3375TIP3   OH231539   5.624   0.139  15.784 -0.5815 -0.0988 -0.5263
 3375TIP3    H131540   5.704   0.095  15.754  0.8522  2.3874 -0.4611
 3375TIP3    H231541   5.590   0.081  15.853  0.9229 -1.4020 -0.8398
 3376TIP3   OH231542   6.030   5.355   4.260  0.3564  0.0915 -0.2827
 3376TIP3    H131543   6.100   5.318   4.205  0.0727 -0.1462 -0.4862
 3376TIP3    H231544   6.002   5.281   4.315 -0.2926 -0.0319 -0.7706
 3377TIP3   OH231545   3.873   1.427   2.486 -0.1096 -0.3175  0.5688
 3377TIP3    H131546   3.791   1.387   2.514  0.0483  0.4033  2.1137
 3377TIP3    H231547   3.875   1.415   2.391 -0.7571 -2.6591  0.8241
 3378TIP3   OH231548   4.964   0.933   4.068 -0.1916  0.2366  0.0902
 3378TIP3    H131549   4.934   0.954   3.980  0.8673  0.6963 -0.1717
 3378TIP3    H231550   4.908   0.860   4.096 -3.6830  3.0776  0.8801
 3379TIP3   OH231551   3.191   4.103  11.647 -0.0555 -0.0181  0.1248
 3379TIP3    H131552   3.263   4.106  11.710 -0.6560 -1.5276  0.9317
 3379TIP3    H231553   3.181   4.010  11.628 -2.9272 -0.0155  1.3811
 3380TIP3   OH231554   0.043   5.032   0.007 -0.2459  0.4595 -0.4258
 3380TIP3    H131555   0.036   4.962  -0.057 -1.0254 -0.2053  0.3796
 3380TIP3    H231556   0.093   5.100  -0.038  1.1549 -0.8940 -0.9564
 3381TIP3   OH231557   1.194   3.058  11.827  0.4558  0.8637  0.0142
 3381TIP3    H131558   1.211   3.016  11.742  0.7800  0.2034  0.4033
 3381TIP3    H231559   1.101   3.041  11.843  0.9862 -1.2698  1.0033
 3382TIP3   OH231560   5.766   0.178   5.560  0.6306 -0.4058 -0.4863
 3382TIP3    H131561   5.817   0.244   5.607 -0.6589  1.2907 -1.4169
 3382TIP3    H231562   5.817   0.098   5.569  1.5916  0.4136  1.7604
 3383TIP3   OH231563   4.939   1.506  12.454  0.1145  0.2000 -0.4357
 3383TIP3    H131564   4.906   1.489  12.542  1.4175  0.4943  0.1290
 3383TIP3    H231565   4.978   1.594  12.460  2.8575 -0.9738 -0.4981
 3384TIP3   OH231566   2.332   0.874   1.526 -0.3852  0.1686  0.1145
 3384TIP3    H131567   2.358   0.943   1.587 -0.7102 -0.1132  0.5718
 3384TIP3    H231568   2.247   0.902   1.492 -0.4720  0.0484  0.2272
 3385TIP3   OH231569   6.392   4.591   1.409  0.5303  0.6153 -0.2924
 3385TIP3    H131570   6.343   4.565   1.330  2.3070  0.6696 -1.4357
 3385TIP3    H231571   6.436   4.510   1.437  0.8394  0.8778 -0.0254
 3386TIP3   OH231572   0.390   0.999  13.922  0.2283 -0.2127 -0.0046
 3386TIP3    H131573   0.445   1.067  13.883 -0.2886  0.0213 -0.3272
 3386TIP3    H231574   0.356   1.039  14.002  1.7559 -0.8942  1.0166
 3387TIP3   OH231575   6.034   6.017  15.365  0.3308 -0.1978 -0.1459
 3387TIP3    H131576   6.029   6.098  15.417 -2.2154  0.6784 -1.6745
 3387TIP3    H231577   6.117   6.025  15.318  0.8320  0.8018  0.8536
 3388TIP3   OH231578   4.975   3.205  14.740  0.1847 -0.3889 -0.6686
 3388TIP3    H131579   4.995   3.202  14.646  0.8563 -0.3500 -0.5263
 3388TIP3    H231580   4.904   3.141  14.751 -0.8983  0.6438 -1.4433
 3389TIP3   OH231581   5.918   5.592   0.482  0.1488  0.5207  0.3978
 3389TIP3    H131582   5.909   5.561   0.571  2.0211  1.3240  0.8902
 3389TIP3    H231583   5.829   5.616   0.455 -0.5704 -0.7404  1.6551
 3390TIP3   OH231584   6.363   2.802  13.537  0.3274  0.3207 -0.0262
 3390TIP3    H131585   6.416   2.794  13.617  0.2993  0.1365 -0.0249
 3390TIP3    H231586   6.395   2.731  13.480 -1.1993 -0.9998  0.7125
 3391TIP3   OH231587   3.127   4.219  15.170 -0.2602  0.2445 -0.0217
 3391TIP3    H131588   3.156   4.205  15.080  0.7971  0.3808  0.2887
 3391TIP3    H231589   3.199   4.184  15.224 -0.1568  1.6476  0.7679
 3392TIP3   OH231590   5.506   5.662  13.894  0.3575  0.9103  0.9123
 3392TIP3    H131591   5.423   5.676  13.939  0.5132  0.1694  1.4508
 3392TIP3    H231592   5.549   5.747  13.895 -0.5689  1.3817  0.2739
 3393TIP3   OH231593   5.630   0.355   2.950  0.2042  0.1291 -0.0348
 3393TIP3    H131594   5.689   0.418   2.992  0.8550  0.0977 -0.8730
 3393TIP3    H231595   5.687   0.307   2.889 -0.7575  0.2819 -1.0590
 3394TIP3   OH231596   1.587   5.453   1.884 -0.1619 -0.3646 -0.2451
 3394TIP3    H131597   1.592   5.439   1.979 -0.1310 -2.8823 -0.5799
 3394TIP3    H231598   1.596   5.365   1.847 -2.5896  0.2982 -2.5187
 3395TIP3   OH231599   3.396   0.052  13.864  0.6390 -0.2077 -0.1251
 3395TIP3    H131600   3.428   0.135  13.898  2.6725 -1.4287  1.0476
 3395TIP3    H231601   3.429  -0.014  13.925 -2.3305 -1.7663 -0.0834
 3396TIP3   OH231602   0.846   0.634   5.350 -0.5857  0.2892  0.0475
 3396TIP3    H131603   0.784   0.563   5.366  2.0971 -1.9023  1.2742
 3396TIP3    H231604   0.867   0.668   5.437  1.0733 -0.0691 -0.1826
 3397TIP3   OH231605   3.896   4.596  13.798  0.8006 -0.1635  0.5884
 3397TIP3    H131606   3.801   4.601  13.787  0.7286 -0.7689  0.8644
 3397TIP3    H231607   3.922   4.520  13.745  1.3048  0.7665 -0.5141
 3398TIP3   OH231608   4.490   4.860  11.758 -0.2260  0.5289  0.1269
 3398TIP3    H131609   4.404   4.902  11.750 -0.0676  0.8332  0.0581
 3398TIP3    H231610   4.500   4.846  11.852 -1.0336 -0.9099  0.0287
 3399TIP3   OH231611   3.845   4.829   0.327 -0.2262 -0.1014  0.2531
 3399TIP3    H131612   3.847   4.797   0.237 -1.5063 -2.5019  1.0517
 3399TIP3    H231613   3.752   4.839   0.347  0.0758  1.5685  0.9413
 3400TIP3   OH231614   4.567   6.770   0.300  0.0549 -0.7285 -0.6180
 3400TIP3    H131615   4.502   6.791   0.367 -1.2719 -0.8499 -1.8315
 3400TIP3    H231616   4.522   6.789   0.217  1.3647 -1.4085 -1.4944
 3401TIP3   OH231617   2.498   3.500  11.832  0.0648 -0.1342  0.0219
 3401TIP3    H131618   2.487   3.457  11.747  2.8962 -0.0102 -0.4529
 3401TIP3    H231619   2.454   3.584  11.822  2.5277  0.9576 -2.2417
 3402TIP3   OH231620   3.718   2.943   3.206 -0.3162 -0.2251  0.0560
 3402TIP3    H131621   3.788   2.880   3.221  0.6286  0.7187 -0.3050
 3402TIP3    H231622   3.659   2.900   3.145 -0.1075 -1.0699  0.4425
 3403TIP3   OH231623   5.316   3.168   1.530  1.2498 -0.4177 -0.2424
 3403TIP3    H131624   5.363   3.111   1.469  2.4982  0.6848 -0.3196
 3403TIP3    H231625   5.354   3.147   1.616  1.3683 -0.0351 -0.2043
 3404TIP3   OH231626   1.259   6.249   4.788 -0.2059  0.0970  0.2635
 3404TIP3    H131627   1.195   6.294   4.733 -1.3013 -3.1395 -1.2103
 3404TIP3    H231628   1.342   6.260   4.742 -0.5020  0.4034 -0.2027
 3405TIP3   OH231629   0.076   6.638  12.294  0.4258  0.4851  0.0104
 3405TIP3    H131630   0.010   6.575  12.324  0.2418 -0.4610 -2.2649
 3405TIP3    H231631   0.160   6.600  12.322  0.2129  0.0477  0.0656
 3406TIP3   OH231632   1.986   4.729  11.671  0.5059  0.2772 -0.2722
 3406TIP3    H131633   1.915   4.727  11.736  1.7502  2.0254  1.2136
 3406TIP3    H231634   1.996   4.822  11.650  1.6369 -0.0656 -1.2873
 3407TIP3   OH231635   1.710   3.924   6.412  0.3320 -0.2730 -0.2444
 3407TIP3    H131636   1.630   3.961   6.373  0.1554  0.7228  1.0347
 3407TIP3    H231637   1.678   3.856   6.471  0.5614 -1.2930 -1.2763
 3408TIP3   OH231638   3.029   6.728   2.294 -0.5178  0.4011  0.3531
 3408TIP3    H131639   2.995   6.811   2.263  0.3506  1.0469  1.1203
 3408TIP3    H231640   2.972   6.703   2.367 -1.1941 -0.0182 -0.3154
 3409TIP3   OH231641   2.345   3.666   0.879 -0.7201 -0.0844 -0.0425
 3409TIP3    H131642   2.295   3.617   0.944 -1.8003  3.7403  2.1779
 3409TIP3    H231643   2.431   3.677   0.919 -0.4065 -0.3699 -0.6375
 3410TIP3   OH231644   6.056   4.611  16.958 -0.4976 -0.2526  0.5023
 3410TIP3    H131645   6.079   4.704  16.966 -0.4423 -0.4272  2.4656
 3410TIP3    H231646   5.972   4.603  17.004  0.6512 -1.6322  2.3867
 3411TIP3   OH231647   2.996   3.785  16.293  0.1220 -0.0557 -0.3162
 3411TIP3    H131648   2.974   3.798  16.385  0.3038  1.1354 -0.4412
 3411TIP3    H231649   3.048   3.705  16.292 -0.5967 -0.5470  0.5052
 3412TIP3   OH231650   2.219   4.983  16.650 -0.3430  0.6087 -0.4747
 3412TIP3    H131651   2.200   5.024  16.566  0.6680  0.1685 -0.9193
 3412TIP3    H231652   2.145   5.008  16.706 -1.2455  0.5090 -1.6220
 3413TIP3   OH231653   6.631   1.008  14.601 -0.0001 -0.3916 -0.0118
 3413TIP3    H131654   6.632   0.923  14.557  0.1541 -0.5045  0.2023
 3413TIP3    H231655   6.566   0.998  14.671 -1.6289  0.4047 -1.3893
 3414TIP3   OH231656   0.506   3.239   3.419  0.2866  0.1090 -0.5546
 3414TIP3    H131657   0.412   3.222   3.418  0.0885  1.1488 -0.1210
 3414TIP3    H231658   0.515   3.324   3.462  1.4902 -0.3866  0.2190
 3415TIP3   OH231659   3.239   2.273  15.401 -0.8574 -0.4232  0.5309
 3415TIP3    H131660   3.189   2.316  15.331 -1.2258  1.7494  2.0867
 3415TIP3    H231661   3.330   2.278  15.371 -1.0396  0.2371  0.0608
 3416TIP3   OH231662   0.543   5.716   4.702  0.2908  0.0010 -0.3927
 3416TIP3    H131663   0.522   5.627   4.676 -0.8421  0.1903 -0.1373
 3416TIP3    H231664   0.467   5.768   4.677 -0.5590  0.3152  2.5845
 3417TIP3   OH231665   1.591   1.020   1.408 -0.1103  0.6541  0.2051
 3417TIP3    H131666   1.567   0.930   1.428  1.0921  0.4491  0.7778
 3417TIP3    H231667   1.527   1.074   1.454 -0.8398  0.0912 -0.1494
 3418TIP3   OH231668   0.674   0.817  15.585 -0.2724  0.5256 -0.0568
 3418TIP3    H131669   0.602   0.774  15.630 -0.1845 -0.6802 -1.0258
 3418TIP3    H231670   0.636   0.849  15.503 -0.0274  1.1183  0.0563
 3419TIP3   OH231671   5.862   5.482  15.493 -0.1168  0.0242 -0.1161
 3419TIP3    H131672   5.818   5.398  15.478 -0.7628  0.5457 -1.1759
 3419TIP3    H231673   5.818   5.543  15.434  2.1080  0.5405 -1.2927
 3420TIP3   OH231674   2.892   5.100   0.417 -0.1900  0.3528 -0.6045
 3420TIP3    H131675   2.901   5.159   0.492 -2.4158  0.1225 -0.1052
 3420TIP3    H231676   2.874   5.158   0.343  1.0412  0.5127 -0.7905
 3421TIP3   OH231677   2.530   4.481   5.112 -0.0920  0.9392 -0.1996
 3421TIP3    H131678   2.604   4.527   5.072  0.3485  0.4612  0.0620
 3421TIP3    H231679   2.525   4.518   5.200 -0.7635  1.6506 -0.5273
 3422TIP3   OH231680   0.225   0.470  16.325  0.1648  0.0321 -0.2968
 3422TIP3    H131681   0.162   0.464  16.397 -0.0690  1.0092 -0.4215
 3422TIP3    H231682   0.242   0.379  16.301 -2.4158 -0.2152 -1.3418
 3423TIP3   OH231683   4.692   5.370  16.316  0.2922 -0.4367  0.1927
 3423TIP3    H131684   4.636   5.415  16.253  0.2675 -0.4988  0.1699
 3423TIP3    H231685   4.650   5.384  16.401 -0.2262 -1.2130  0.0717
 3424TIP3   OH231686   2.330   5.214  12.156  0.0972 -0.6720 -0.1035
 3424TIP3    H131687   2.387   5.290  12.167 -1.6228  0.4818  1.0147
 3424TIP3    H231688   2.302   5.218  12.064  1.9347 -1.3572 -0.7107
 3425TIP3   OH231689   0.050   4.401  10.936  0.2190 -0.2374 -0.2408
 3425TIP3    H131690   0.131   4.389  10.887 -0.0126 -0.1174 -0.6547
 3425TIP3    H231691  -0.009   4.334  10.902 -0.1310  0.2116 -0.5304
 3426TIP3   OH231692   1.875   3.049   5.863  0.1290  0.1475  0.2240
 3426TIP3    H131693   1.858   3.133   5.905 -0.0291 -0.3302  1.1242
 3426TIP3    H231694   1.932   3.003   5.924  0.5249 -0.2540 -0.4440
 3427TIP3   OH231695   5.324   5.067  13.779 -0.8060  0.0276 -0.0605
 3427TIP3    H131696   5.372   5.142  13.744  1.5232 -1.7245 -0.8239
 3427TIP3    H231697   5.234   5.080  13.751 -0.4382  2.5327 -0.1500
 3428TIP3   OH231698   0.650   3.935   1.464  0.1351  0.1513  0.0672
 3428TIP3    H131699   0.672   3.965   1.375 -0.7529 -0.8500 -0.5063
 3428TIP3    H231700   0.656   4.014   1.518  0.4287  0.8240 -0.9333
 3429TIP3   OH231701   1.023   5.555   0.123  0.4318  0.1084  0.2262
 3429TIP3    H131702   0.981   5.633   0.087  1.4155  0.3469 -0.4287
 3429TIP3    H231703   1.090   5.589   0.183  2.3234 -0.1547 -1.6806
 3430TIP3   OH231704   3.615   3.611   5.757 -0.0017 -0.6671 -0.1542
 3430TIP3    H131705   3.696   3.623   5.707 -0.5606 -1.4651 -1.2986
 3430TIP3    H231706   3.610   3.687   5.814  1.7847 -0.8310  0.2527
 3431TIP3   OH231707   5.323   4.125  12.469 -0.7232 -0.5580 -0.6864
 3431TIP3    H131708   5.345   4.037  12.439  2.2398 -0.1213  0.0782
 3431TIP3    H231709   5.384   4.142  12.541 -0.7415  2.4055 -1.3059
 3432TIP3   OH231710   3.640   0.578  13.917 -0.8406  0.3276  0.1587
 3432TIP3    H131711   3.689   0.498  13.936 -2.9611 -1.3641 -1.1745
 3432TIP3    H231712   3.657   0.595  13.825  1.6869  2.9474  1.0726
 3433TIP3   OH231713   3.219   1.900  15.801  0.1758  0.0885 -0.0810
 3433TIP3    H131714   3.225   1.931  15.711  0.3628 -0.1522 -0.1523
 3433TIP3    H231715   3.222   1.979  15.854 -0.1319  0.2435 -0.2960
 3434TIP3   OH231716   5.789   2.298   1.933 -0.5569  0.1816  0.5953
 3434TIP3    H131717   5.877   2.323   1.905 -0.5997  0.3207  0.5845
 3434TIP3    H231718   5.752   2.253   1.857 -0.4431 -0.0039  0.6504
 3435TIP3   OH231719   5.154   3.954  13.817  0.0466  0.1232 -0.5970
 3435TIP3    H131720   5.099   3.885  13.854  0.0113  0.4477 -0.0295
 3435TIP3    H231721   5.095   4.029  13.805  0.0968  0.0728 -1.1527
 3436TIP3   OH231722   3.269   1.226  16.467 -0.8835 -0.2009  0.1651
 3436TIP3    H131723   3.252   1.247  16.375  1.4237 -0.9756 -0.4665
 3436TIP3    H231724   3.255   1.309  16.513 -0.9593  0.4702 -1.0405
 3437TIP3   OH231725   2.742   3.508  14.828 -0.5776  0.5355  0.5086
 3437TIP3    H131726   2.809   3.465  14.881 -0.9609 -0.1850  0.4063
 3437TIP3    H231727   2.659   3.480  14.866 -0.9261 -1.7113 -1.7800
 3438TIP3   OH231728   1.411   0.408   5.619 -0.1216 -0.2783  0.2844
 3438TIP3    H131729   1.386   0.494   5.585 -0.9329  0.4667  2.6539
 3438TIP3    H231730   1.332   0.355   5.608  0.0681 -0.4456 -0.2813
 3439TIP3   OH231731   3.959   1.772   4.203  0.0158  0.1413 -0.5054
 3439TIP3    H131732   3.988   1.841   4.143 -1.7027 -0.1403 -1.6976
 3439TIP3    H231733   4.024   1.702   4.191 -0.6975 -0.2112 -2.6303
 3440TIP3   OH231734   5.843   2.602  13.656 -0.5275  0.2098 -0.0799
 3440TIP3    H131735   5.876   2.673  13.601 -1.0252  0.6245  0.1498
 3440TIP3    H231736   5.920   2.550  13.678  0.1122  1.7217  1.2724
 3441TIP3   OH231737   2.903   3.776   3.765  0.5086 -0.0740 -0.1897
 3441TIP3    H131738   2.864   3.860   3.789  0.2178  0.1525 -1.4442
 3441TIP3    H231739   2.976   3.798   3.709  0.2114 -0.6752 -0.8275
 3442TIP3   OH231740   0.086   4.729  13.707  0.5638  0.0034  0.6118
 3442TIP3    H131741   0.135   4.683  13.639  1.9527  0.7970  1.0518
 3442TIP3    H231742   0.052   4.807  13.663  3.4343  1.7418  1.3487
 3443TIP3   OH231743   6.586   3.494  15.164 -0.3347  0.3704 -0.1027
 3443TIP3    H131744   6.558   3.413  15.206 -0.3035  0.3214 -0.1783
 3443TIP3    H231745   6.508   3.550  15.165  0.1677  1.1076  1.8038
 3444TIP3   OH231746   6.219   0.145  10.735 -0.1941 -0.5854  0.0899
 3444TIP3    H131747   6.131   0.136  10.698 -0.8058 -2.2511  1.8735
 3444TIP3    H231748   6.277   0.146  10.659 -1.7179  0.2138 -1.0933
 3445TIP3   OH231749   2.869   3.167  11.844 -0.1065 -0.0176  0.2710
 3445TIP3    H131750   2.830   3.186  11.758  0.2628  1.1953  0.3747
 3445TIP3    H231751   2.919   3.086  11.830 -0.2605  0.0308 -0.5906
 3446TIP3   OH231752   4.217   6.174  13.283 -0.5683 -0.0265  0.1816
 3446TIP3    H131753   4.189   6.084  13.298  1.1667 -0.7029 -0.6128
 3446TIP3    H231754   4.312   6.170  13.278 -0.4293  1.9228  0.5776
 3447TIP3   OH231755   0.259   6.344   5.639 -0.0749  0.1596 -0.1557
 3447TIP3    H131756   0.238   6.423   5.589  0.7189  1.1501  1.0160
 3447TIP3    H231757   0.232   6.272   5.583  0.5657  1.2292 -1.8953
 3448TIP3   OH231758   1.074   0.779  17.135 -0.1357  0.5830 -0.0627
 3448TIP3    H131759   1.072   0.865  17.095  0.8895  0.4076 -0.4906
 3448TIP3    H231760   1.021   0.724  17.077  0.8351  0.4711 -0.8475
 3449TIP3   OH231761   0.396   6.784  10.851  0.3239  0.0274  0.2509
 3449TIP3    H131762   0.356   6.837  10.919 -1.6925 -1.6664  0.4499
 3449TIP3    H231763   0.382   6.833  10.770 -0.8125  0.1748  0.5338
 3450TIP3   OH231764   3.428   5.391   2.269 -0.1075  0.7378  0.1870
 3450TIP3    H131765   3.421   5.454   2.342  0.6625  0.1816  0.7422
 3450TIP3    H231766   3.447   5.308   2.312  0.4040  0.4184 -0.6679
 3451TIP3   OH231767   1.418   2.946  10.705 -0.2193  0.3486  0.2940
 3451TIP3    H131768   1.438   2.854  10.721 -1.9390 -0.0715  0.1404
 3451TIP3    H231769   1.443   2.991  10.785  1.0101 -0.1772  0.2226
 3452TIP3   OH231770   0.180   5.950   3.008  0.5725 -0.1219 -0.0084
 3452TIP3    H131771   0.132   5.942   3.091 -0.6526  1.2914 -0.5654
 3452TIP3    H231772   0.233   6.029   3.019  1.1868 -0.5066 -0.1910
 3453TIP3   OH231773   2.206   0.699  15.324 -0.7158 -0.5550 -0.9330
 3453TIP3    H131774   2.167   0.787  15.325  1.2735  0.3368 -0.9540
 3453TIP3    H231775   2.218   0.677  15.416 -1.9025 -1.1417 -0.9021
 3454TIP3   OH231776   6.608   5.762  11.997 -0.4000 -0.1641 -0.0676
 3454TIP3    H131777   6.671   5.790  12.063  0.2773  1.3701 -1.3407
 3454TIP3    H231778   6.534   5.822  12.008 -0.2620  0.1259 -0.7337
 3455TIP3   OH231779   0.781   2.643   2.845  0.5068 -0.5289  0.7419
 3455TIP3    H131780   0.769   2.738   2.847  1.9327 -0.3461  2.7878
 3455TIP3    H231781   0.868   2.631   2.807  0.0381 -1.0487 -0.1593
 3456TIP3   OH231782   2.940   2.823   0.130 -0.0288  0.1509  0.1412
 3456TIP3    H131783   2.938   2.901   0.073  1.5087 -0.0795 -0.2744
 3456TIP3    H231784   2.849   2.794   0.135 -0.1269 -0.3461 -2.9862
 3457TIP3   OH231785   3.476   2.933  14.870  0.3866 -1.0939 -0.2584
 3457TIP3    H131786   3.403   2.950  14.931 -0.2939 -2.8646 -0.5699
 3457TIP3    H231787   3.460   2.993  14.797  0.4042  0.0046  0.6137
 3458TIP3   OH231788   2.375   3.659  11.288  0.3221  0.5930 -0.3099
 3458TIP3    H131789   2.450   3.660  11.230 -0.2645  0.9343 -1.0712
 3458TIP3    H231790   2.322   3.733  11.260 -1.8212 -1.4492 -1.7802
 3459TIP3   OH231791   2.074   4.828   0.435 -0.8029 -0.0107  0.0282
 3459TIP3    H131792   2.146   4.885   0.409 -0.6505  0.3152  1.1021
 3459TIP3    H231793   2.057   4.773   0.359 -1.4548  1.9808 -1.3066
 3460TIP3   OH231794   6.620   3.872   5.312 -0.2138 -0.0262 -0.2070
 3460TIP3    H131795   6.696   3.815   5.324  0.3894  1.0604  1.3468
 3460TIP3    H231796   6.655   3.960   5.319 -1.2246  0.5514 -2.0449
 3461TIP3   OH231797   0.563   0.892  15.305  0.8659 -0.5170 -0.1197
 3461TIP3    H131798   0.557   0.985  15.281  2.5746 -0.6976 -1.3363
 3461TIP3    H231799   0.484   0.853  15.268  1.6778 -0.1055 -2.3662
 3462TIP3   OH231800   5.869   5.213   3.241 -0.2021 -0.1482 -0.5379
 3462TIP3    H131801   5.886   5.140   3.181 -1.8576  1.0646 -2.5400
 3462TIP3    H231802   5.774   5.209   3.256  0.2155 -0.5925  2.2484
 3463TIP3   OH231803   3.615   4.034  15.047 -0.5492 -0.1647  0.0461
 3463TIP3    H131804   3.595   4.090  14.973  0.9768 -0.3788 -0.5465
 3463TIP3    H231805   3.640   3.950  15.008 -0.5453 -0.5307  0.8246
 3464TIP3   OH231806   0.390   2.563  12.188  0.3185  0.0079  0.2011
 3464TIP3    H131807   0.306   2.523  12.164  2.4236 -4.1313 -0.8241
 3464TIP3    H231808   0.413   2.522  12.272  1.4247  0.9584  0.3742
 3465TIP3   OH231809   5.955   1.159  16.982  0.0487 -0.4642  0.0807
 3465TIP3    H131810   5.913   1.227  17.036  0.1278  1.7865 -2.5627
 3465TIP3    H231811   5.882   1.122  16.931  0.5575  0.2747 -1.2014
 3466TIP3   OH231812   1.532   1.430   2.208 -0.1118  0.5327  0.0015
 3466TIP3    H131813   1.627   1.433   2.199 -0.0217 -0.8582  0.4653
 3466TIP3    H231814   1.517   1.424   2.302 -0.5675 -2.0978 -0.2139
 3467TIP3   OH231815   0.378   1.370  15.432  0.1602  0.5858  0.0206
 3467TIP3    H131816   0.303   1.334  15.479  0.1657 -0.0734 -0.4722
 3467TIP3    H231817   0.396   1.454  15.476  0.8503 -0.5260  1.9056
 3468TIP3   OH231818   1.693   3.420  13.089 -0.5332 -0.6778 -0.1393
 3468TIP3    H131819   1.641   3.398  13.167 -1.7399 -0.2499 -0.8002
 3468TIP3    H231820   1.737   3.338  13.066 -1.6363 -1.3006 -0.0915
 3469TIP3   OH231821   4.152   1.204  16.251 -0.9588 -0.2087 -0.0649
 3469TIP3    H131822   4.156   1.111  16.230 -0.1639  0.1279 -1.5172
 3469TIP3    H231823   4.213   1.215  16.324 -1.7260 -0.9696  0.6914
 3470TIP3   OH231824   4.210   2.329  13.105  0.4905 -0.0126  0.0862
 3470TIP3    H131825   4.180   2.308  13.017 -2.4764 -0.9827  1.2392
 3470TIP3    H231826   4.285   2.271  13.119  1.2858  0.4865 -1.9383
 3471TIP3   OH231827   6.315   1.252   2.355 -0.0987 -0.4696  0.0816
 3471TIP3    H131828   6.317   1.265   2.450 -1.1132 -2.1667  0.3552
 3471TIP3    H231829   6.349   1.334   2.319 -0.0844  0.3462  1.8943
 3472TIP3   OH231830   0.604   0.914   4.588  0.1464  0.0005 -0.3451
 3472TIP3    H131831   0.638   1.003   4.587 -0.9086  0.4098 -0.3361
 3472TIP3    H231832   0.626   0.880   4.675 -0.0900  0.5071 -0.0870
 3473TIP3   OH231833   0.019   4.989  12.906 -0.4996 -0.3366  0.0382
 3473TIP3    H131834   0.083   4.928  12.942 -0.2395  0.0058  0.1627
 3473TIP3    H231835   0.015   4.968  12.813 -0.5133 -0.6370  0.1073
 3474TIP3   OH231836   1.448   2.062  15.421 -0.1099 -0.2148 -0.0355
 3474TIP3    H131837   1.422   2.138  15.369 -0.0475 -0.4969 -0.4870
 3474TIP3    H231838   1.539   2.079  15.444 -0.1746 -0.0302  0.0807
 3475TIP3   OH231839   6.739   3.195   0.422 -0.0521  0.1078  0.6959
 3475TIP3    H131840   6.787   3.205   0.504  0.3858  0.3629  0.4094
 3475TIP3    H231841   6.768   3.110   0.388  2.7593  1.7479 -1.1442
 3476TIP3   OH231842   2.180   2.313  12.990  0.3487 -0.4874 -0.2105
 3476TIP3    H131843   2.164   2.219  12.990 -1.1171 -0.2565  1.1310
 3476TIP3    H231844   2.127   2.347  12.919  0.6815 -0.6354 -0.5324
 3477TIP3   OH231845   6.571   5.868  12.588  0.1323  0.0541 -0.0706
 3477TIP3    H131846   6.563   5.922  12.509 -0.2294 -0.0889 -0.1305
 3477TIP3    H231847   6.481   5.852  12.615  0.2250 -1.0088 -0.3831
 3478TIP3   OH231848   6.621   6.755   2.017  0.4711  0.1041  0.4257
 3478TIP3    H131849   6.694   6.695   2.005  1.1116  1.3830 -2.5317
 3478TIP3    H231850   6.547   6.712   1.974 -0.1070 -0.4261  1.9328
 3479TIP3   OH231851   1.196   3.147   4.755  0.5006 -0.0648  0.0159
 3479TIP3    H131852   1.247   3.195   4.820 -1.4570  1.5992  0.3895
 3479TIP3    H231853   1.252   3.142   4.678  2.1362 -0.4353  1.2191
 3480TIP3   OH231854   0.727   3.548  11.238 -0.4920 -0.2777 -0.3406
 3480TIP3    H131855   0.732   3.496  11.318  0.0379 -0.7750 -0.6903
 3480TIP3    H231856   0.734   3.484  11.167 -2.0765  0.0296 -0.8023
 3481TIP3   OH231857   1.165   6.699   5.594  0.2772 -0.2667 -0.2233
 3481TIP3    H131858   1.199   6.703   5.504  0.3330  1.9216 -0.1261
 3481TIP3    H231859   1.077   6.664   5.585  0.3761 -0.3049 -1.0945
 3482TIP3   OH231860   4.561   0.404  10.623 -0.3248 -0.1528  0.1862
 3482TIP3    H131861   4.625   0.402  10.552 -0.9789  1.8364 -0.4982
 3482TIP3    H231862   4.547   0.497  10.640 -2.2497 -0.5712  1.0201
 3483TIP3   OH231863   4.660   0.712  17.086  0.3667 -0.4004  0.5717
 3483TIP3    H131864   4.666   0.634  17.032 -0.9115 -0.8630  1.0960
 3483TIP3    H231865   4.600   0.770  17.039 -0.3298 -0.5875  1.2347
 3484TIP3   OH231866   2.953   3.891  11.030  0.0416 -0.0259 -0.2413
 3484TIP3    H131867   2.896   3.907  11.105 -0.0223 -0.2388 -0.2460
 3484TIP3    H231868   2.965   3.796  11.027  1.8516  0.1542  0.8243
 3485TIP3   OH231869   5.524   3.810  11.425  0.6279 -0.0192 -0.3715
 3485TIP3    H131870   5.488   3.758  11.497  1.2285 -0.7309 -0.5665
 3485TIP3    H231871   5.469   3.787  11.350 -0.5970  1.4418  0.0441
 3486TIP3   OH231872   2.275   3.933  13.382  0.1421  0.2493 -0.3791
 3486TIP3    H131873   2.248   4.019  13.413  0.8857  1.0360 -1.8691
 3486TIP3    H231874   2.203   3.904  13.326 -0.0160 -0.0262 -0.0399
 3487TIP3   OH231875   6.412   6.682  13.999 -0.7532 -0.2128  0.6794
 3487TIP3    H131876   6.406   6.594  14.036  0.5024 -1.1214 -1.2040
 3487TIP3    H231877   6.323   6.703  13.971 -1.0993 -0.7655  1.3570
 3488TIP3   OH231878   6.584   2.313  17.190  0.0928  0.2553 -0.3113
 3488TIP3    H131879   6.576   2.393  17.137 -0.1887  0.0627 -0.5631
 3488TIP3    H231880   6.531   2.249  17.144  1.6019 -0.5316 -0.9725
 3489TIP3   OH231881   2.731   2.710  15.870  0.4074  0.0044  0.6597
 3489TIP3    H131882   2.640   2.740  15.880  0.4474  0.3064  0.1379
 3489TIP3    H231883   2.728   2.617  15.893  0.0169  0.0792  0.9130
 3490TIP3   OH231884   1.773   5.397   0.271 -0.3404  0.5998  0.1005
 3490TIP3    H131885   1.784   5.315   0.318  1.0211  0.7280  0.0113
 3490TIP3    H231886   1.833   5.458   0.314  1.6569  0.4565 -2.3655
 3491TIP3   OH231887   6.456   1.544   3.108 -0.0103  0.3335  0.4063
 3491TIP3    H131888   6.385   1.491   3.143  2.2160 -1.2624  2.6476
 3491TIP3    H231889   6.414   1.626   3.081 -3.0084 -1.4120 -0.3658
 3492TIP3   OH231890   6.500   2.089   2.404 -0.2598 -0.1057  0.5864
 3492TIP3    H131891   6.517   2.122   2.493  1.3208 -0.3183  0.3849
 3492TIP3    H231892   6.584   2.098   2.359 -0.8448 -0.7365 -0.6595
 3493TIP3   OH231893   3.896   2.962   1.919  0.6361 -0.4639 -0.5406
 3493TIP3    H131894   3.823   2.962   1.981  1.1096 -0.0254  0.0228
 3493TIP3    H231895   3.941   3.045   1.936 -0.0866  0.3478 -2.4784
 3494TIP3   OH231896   0.879   1.481  12.333  0.2364 -0.0417 -0.2274
 3494TIP3    H131897   0.968   1.449  12.319 -0.8223 -2.7657 -0.9575
 3494TIP3    H231898   0.842   1.490  12.245 -0.3544  0.7018  0.0892
 3495TIP3   OH231899   3.603   3.579  12.621 -0.2964 -0.0952 -0.4961
 3495TIP3    H131900   3.569   3.534  12.698 -0.9736 -0.5314 -1.0502
 3495TIP3    H231901   3.580   3.671  12.635 -1.2391 -0.3156 -0.6312
 3496TIP3   OH231902   1.846   3.654   0.013 -0.1044  0.0083 -0.4329
 3496TIP3    H131903   1.815   3.612   0.093 -0.3720  0.1256 -0.4745
 3496TIP3    H231904   1.940   3.666   0.026 -0.1262 -0.0997 -0.1938
 3497TIP3   OH231905   0.672   4.216   5.110  0.1053 -0.0786 -0.2339
 3497TIP3    H131906   0.594   4.259   5.145  0.7664  1.2001 -0.3046
 3497TIP3    H231907   0.716   4.179   5.187  0.6111  1.1667  0.0811
 3498TIP3   OH231908   4.935   4.919   1.659 -0.4581  0.1588  0.2724
 3498TIP3    H131909   4.858   4.904   1.604  0.4423  0.9753 -1.2630
 3498TIP3    H231910   5.003   4.864   1.619  0.4383  1.4298  0.0474
 3499TIP3   OH231911   4.215   1.146   2.032 -0.1100  0.4382  0.1883
 3499TIP3    H131912   4.228   1.237   2.006 -0.7075  0.5602  0.3180
 3499TIP3    H231913   4.175   1.105   1.955 -2.1346  0.8598  0.9783
 3500TIP3   OH231914   2.022   4.451  12.046  0.5143 -1.0218 -0.1668
 3500TIP3    H131915   2.065   4.536  12.053  1.4793 -1.5241  0.2471
 3500TIP3    H231916   2.021   4.418  12.136 -2.3508 -0.2702  0.1102
 3501TIP3   OH231917   4.312   4.501  11.824 -0.0755 -0.1401  0.0041
 3501TIP3    H131918   4.313   4.537  11.913 -0.3611 -0.2299  0.0459
 3501TIP3    H231919   4.303   4.406  11.837  1.5840 -0.3270 -0.0851
 3502TIP3   OH231920   6.181   4.259   3.414 -0.3578 -0.0071  0.2598
 3502TIP3    H131921   6.154   4.276   3.323 -1.6162  0.7320  0.7594
 3502TIP3    H231922   6.099   4.240   3.460  0.0138  1.6590  1.6806
 3503TIP3   OH231923   5.610   3.193   5.266 -0.3135  0.5449 -0.3112
 3503TIP3    H131924   5.574   3.111   5.233 -0.4971 -0.4359  2.2171
 3503TIP3    H231925   5.697   3.169   5.299  0.1501  1.6410 -0.7236
 3504TIP3   OH231926   0.619   2.485  16.173 -0.5335 -0.5890  0.0284
 3504TIP3    H131927   0.649   2.471  16.083 -2.4066 -1.6107 -0.4477
 3504TIP3    H231928   0.668   2.421  16.225 -3.2053 -3.5454 -1.0103
 3505TIP3   OH231929   0.843   2.444   4.665  0.1227 -0.1364  0.6307
 3505TIP3    H131930   0.862   2.517   4.605  2.2840 -2.2429 -1.3459
 3505TIP3    H231931   0.849   2.483   4.752  0.4496  2.2117 -0.3884
 3506TIP3   OH231932   2.447   3.278   1.924 -0.3533  0.3899  0.0959
 3506TIP3    H131933   2.504   3.354   1.914  0.1749 -0.1723 -1.3055
 3506TIP3    H231934   2.486   3.228   1.996 -0.8087  1.5142  1.1469
 3507TIP3   OH231935   6.184   3.359   0.409  0.0577 -0.6085 -0.3082
 3507TIP3    H131936   6.254   3.312   0.454  0.7285  0.3303 -0.3625
 3507TIP3    H231937   6.139   3.292   0.358 -0.2517 -1.5549  1.1853
 3508TIP3   OH231938   5.473   1.626  12.071 -0.2646 -0.1434 -0.4084
 3508TIP3    H131939   5.438   1.599  11.986 -2.1085  1.4828 -0.2064
 3508TIP3    H231940   5.522   1.706  12.051  0.2510 -0.3901 -0.1166
 3509TIP3   OH231941   1.984   1.287  13.759 -0.3496  0.3329  0.5381
 3509TIP3    H131942   1.922   1.224  13.723  2.9629 -4.5503  2.8309
 3509TIP3    H231943   1.988   1.265  13.852  1.9201  3.1722  1.1740
 3510TIP3   OH231944   1.458   4.746   2.504  0.1847 -0.8483 -0.2760
 3510TIP3    H131945   1.423   4.665   2.467 -1.4012  0.0865 -0.9090
 3510TIP3    H231946   1.510   4.784   2.433 -0.7011 -0.3534 -0.6754
 3511TIP3   OH231947   5.260   0.234  13.223  0.7613 -0.1943  0.1086
 3511TIP3    H131948   5.224   0.304  13.170  0.2306 -1.4393 -1.2147
 3511TIP3    H231949   5.188   0.208  13.281  1.2706  1.0138  1.2995
 3512TIP3   OH231950   0.609   2.662  11.963 -0.4977  0.2996 -0.2626
 3512TIP3    H131951   0.615   2.653  12.058  0.5417 -0.3175 -0.3853
 3512TIP3    H231952   0.558   2.586  11.935 -0.9213  0.5540 -0.1922
 3513TIP3   OH231953   5.435   2.108  14.765  0.1204  0.0797  0.3857
 3513TIP3    H131954   5.402   2.192  14.733  0.8197  0.3928  0.4771
 3513TIP3    H231955   5.357   2.054  14.774 -0.2231  0.3905 -0.6535
 3514TIP3   OH231956   1.092   5.419   5.506  0.2911  0.1097 -0.1555
 3514TIP3    H131957   1.039   5.490   5.471 -0.1625  1.0222  2.3257
 3514TIP3    H231958   1.183   5.450   5.497  0.1349  0.6824  0.1959
 3515TIP3   OH231959   0.770   6.034  10.901  0.6537 -0.3766  1.0595
 3515TIP3    H131960   0.708   6.099  10.866  0.4448 -2.0232 -1.8280
 3515TIP3    H231961   0.830   6.085  10.956 -0.6733  1.9446  0.4155
 3516TIP3   OH231962   2.835   3.430  14.573  0.2741 -0.1031  0.1783
 3516TIP3    H131963   2.800   3.453  14.659 -0.3724 -1.0630  0.1807
 3516TIP3    H231964   2.767   3.458  14.511  1.5779  2.3626 -0.1794
 3517TIP3   OH231965   4.780   6.506  11.942 -0.4433 -0.1226  0.0801
 3517TIP3    H131966   4.706   6.510  11.881 -1.6787 -0.7495  1.5056
 3517TIP3    H231967   4.795   6.597  11.967 -2.4262 -0.1924  1.7282
 3518TIP3   OH231968   1.713   6.235  17.054  0.2946  0.1900 -0.1847
 3518TIP3    H131969   1.678   6.243  16.965 -0.0620 -1.4629 -0.2125
 3518TIP3    H231970   1.679   6.151  17.086  1.4877  0.1467  1.0321
 3519TIP3   OH231971   4.777   6.450  15.270 -0.0369 -0.5691  0.2075
 3519TIP3    H131972   4.755   6.449  15.177  0.7253 -0.1710  0.0189
 3519TIP3    H231973   4.788   6.542  15.291 -1.4281 -0.5768  0.9902
 3520TIP3   OH231974   0.181   4.993  16.239 -0.4410  0.2798 -0.3912
 3520TIP3    H131975   0.182   5.023  16.148  0.2150 -0.5593 -0.6580
 3520TIP3    H231976   0.266   5.019  16.275 -0.1412 -0.6448 -0.4260
 3521TIP3   OH231977   3.647   6.523  13.225  0.0995  0.1497 -0.6612
 3521TIP3    H131978   3.553   6.534  13.213 -0.0714 -2.3343 -1.9427
 3521TIP3    H231979   3.664   6.431  13.204  2.3771 -0.2328  2.3824
 3522TIP3   OH231980   2.432   5.750  15.687 -0.2834  0.2251  0.0577
 3522TIP3    H131981   2.415   5.734  15.594  0.3394 -0.5833  0.0738
 3522TIP3    H231982   2.356   5.798  15.718 -1.6828 -1.7093 -0.2880
 3523TIP3   OH231983   4.645   6.713  16.782  1.1217 -0.1859 -0.3831
 3523TIP3    H131984   4.585   6.783  16.809 -0.3434 -0.4314 -2.8253
 3523TIP3    H231985   4.627   6.642  16.842 -1.5316 -0.4597 -1.4285
 3524TIP3   OH231986   1.553   5.548   0.245 -0.1493 -0.0353  0.4252
 3524TIP3    H131987   1.519   5.570   0.158 -2.3325 -1.1309  0.9643
 3524TIP3    H231988   1.623   5.486   0.229  0.9086  1.3956 -0.6623
 3525TIP3   OH231989   2.046   3.253  11.033 -0.0036 -0.1305  0.0220
 3525TIP3    H131990   1.959   3.254  10.994 -0.2927 -2.9881  0.4973
 3525TIP3    H231991   2.094   3.187  10.983  1.4476  0.3546  0.7348
 3526TIP3   OH231992   6.071   3.927  16.230 -0.5674 -0.7673  0.2679
 3526TIP3    H131993   6.152   3.943  16.279  0.1718 -0.9179 -0.8988
 3526TIP3    H231994   6.097   3.927  16.138 -1.6628 -2.2171 -0.0655
 3527TIP3   OH231995   2.141   0.839  14.087 -0.0615 -0.1104 -0.0394
 3527TIP3    H131996   2.057   0.877  14.111 -0.4146 -1.1187  0.3468
 3527TIP3    H231997   2.126   0.798  14.002 -0.3971 -1.6515  0.7418
 3528TIP3   OH231998   5.475   3.094   0.374 -0.3962 -0.0683  0.0467
 3528TIP3    H131999   5.406   3.064   0.433 -0.1240  1.1941  1.0365
 3528TIP3    H232000   5.551   3.039   0.394 -1.0102 -1.2801 -0.8595
 3529TIP3   OH232001   3.630   2.668   2.126  0.1427 -0.1232 -0.3645
 3529TIP3    H132002   3.687   2.688   2.200  0.7699 -0.0837 -0.8516
 3529TIP3    H232003   3.612   2.575   2.133 -1.7270  0.3207  1.1759
 3530TIP3   OH232004   2.800   2.559   6.508  0.0332 -0.0321 -0.1702
 3530TIP3    H132005   2.798   2.546   6.603 -0.0199  1.0497 -0.0169
 3530TIP3    H232006   2.890   2.540   6.483  0.1936  0.2583  0.1814
 3531TIP3   OH232007   3.552   4.447  12.825 -0.0817  0.1553  0.4939
 3531TIP3    H132008   3.525   4.444  12.733  0.4296  0.3075  0.3370
 3531TIP3    H232009   3.481   4.403  12.873 -0.0135 -0.5576 -0.0501
 3532TIP3   OH232010   6.205   4.854  16.963  0.5536 -0.3826  0.3549
 3532TIP3    H132011   6.146   4.900  17.024 -0.1602 -1.4387  0.4667
 3532TIP3    H232012   6.292   4.881  16.991  0.2074 -0.3131  1.4264
 3533TIP3   OH232013   1.024   5.390  15.339  0.1621  0.0871 -0.2983
 3533TIP3    H132014   1.095   5.405  15.402  1.4197  0.0197 -1.6924
 3533TIP3    H232015   1.065   5.346  15.265 -1.8224 -2.2643 -0.0695
 3534TIP3   OH232016   2.220   1.059   2.147 -0.3902  0.1042  0.5194
 3534TIP3    H132017   2.265   1.144   2.146  0.5929 -0.3755  2.2662
 3534TIP3    H232018   2.229   1.028   2.237  0.5895 -2.5672 -0.4355
 3535TIP3   OH232019   1.978   6.665  14.304  0.4854 -0.4271  0.5837
 3535TIP3    H132020   1.936   6.729  14.362 -1.9064 -0.8350 -0.6338
 3535TIP3    H232021   1.911   6.644  14.240  1.1040 -4.4982  1.1809
 3536TIP3   OH232022   3.972   2.673   5.073  0.4396 -0.1262  0.0390
 3536TIP3    H132023   4.038   2.741   5.059  1.1045 -0.4487  1.5306
 3536TIP3    H232024   3.889   2.715   5.049  0.8909  1.0768  0.5570
 3537TIP3   OH232025   2.182   5.713   0.659 -0.2890 -0.9285 -0.3638
 3537TIP3    H132026   2.190   5.722   0.564 -0.6150  0.5289 -0.2542
 3537TIP3    H232027   2.089   5.699   0.674 -0.7179  2.0349 -0.0176
 3538TIP3   OH232028   1.786   2.186   4.378  0.1766  0.0717  0.4637
 3538TIP3    H132029   1.695   2.213   4.389  0.5113  0.7486  1.6199
 3538TIP3    H232030   1.823   2.248   4.315 -0.1428 -0.1716  0.0353
 3539TIP3   OH232031   6.706   3.165   1.469 -0.1684 -0.1407 -0.5399
 3539TIP3    H132032   6.770   3.141   1.536  0.5031  1.7896 -0.4572
 3539TIP3    H232033   6.753   3.226   1.412 -1.4489  0.0380 -1.4167
 3540TIP3   OH232034   5.559   4.918   5.846  0.1395 -0.4706  0.1009
 3540TIP3    H132035   5.595   4.891   5.930  0.6659 -0.8188 -0.2340
 3540TIP3    H232036   5.624   4.890   5.782  0.1448  0.5504 -0.3480
 3541TIP3   OH232037   5.661   5.288  16.433 -0.5465 -0.4394 -0.4138
 3541TIP3    H132038   5.642   5.196  16.453 -2.3280  0.0538  0.2462
 3541TIP3    H232039   5.757   5.293  16.432 -0.4362 -2.0641  0.5958
 3542TIP3   OH232040   3.175   4.669  15.455  0.3731  0.4652  0.1763
 3542TIP3    H132041   3.251   4.712  15.494 -0.1248 -1.2958  3.2673
 3542TIP3    H232042   3.110   4.668  15.525 -1.1718 -1.3651 -1.2335
 3543TIP3   OH232043   4.552   4.868  16.631  0.2253  0.1871 -0.9144
 3543TIP3    H132044   4.609   4.815  16.575 -0.4678 -0.7545 -0.7245
 3543TIP3    H232045   4.571   4.958  16.604  2.2125 -0.0746 -0.4856
 3544TIP3   OH232046   4.065   6.512  13.692  0.3081 -0.3479 -0.4231
 3544TIP3    H132047   3.989   6.459  13.716  0.1900 -1.4965 -3.1286
 3544TIP3    H232048   4.101   6.469  13.614  1.3400  2.4730 -1.5902
 3545TIP3   OH232049   2.516   1.941   1.603  0.5459 -0.1896  0.0734
 3545TIP3    H132050   2.590   1.950   1.663  0.1178  0.2475  0.5370
 3545TIP3    H232051   2.513   2.024   1.556 -0.9591  0.6321  1.5622
 3546TIP3   OH232052   0.536   0.344   0.600  0.1218 -0.2330 -0.1577
 3546TIP3    H132053   0.630   0.333   0.582 -0.1643 -0.4497 -1.5978
 3546TIP3    H232054   0.494   0.326   0.516 -1.1592  0.6101  0.2968
 3547TIP3   OH232055   3.355   4.061   3.583 -0.3639 -0.3916  0.4876
 3547TIP3    H132056   3.301   4.041   3.659 -0.8744  1.3474  0.6025
 3547TIP3    H232057   3.296   4.104   3.521  0.4642 -0.0781 -0.1087
 3548TIP3   OH232058   1.745   6.546   5.747 -0.1980 -0.8177  0.0825
 3548TIP3    H132059   1.700   6.575   5.826  0.3420  0.7402 -0.1624
 3548TIP3    H232060   1.679   6.497   5.698 -1.1711  0.1053  0.4567
 3549TIP3   OH232061   1.691   1.491   3.797  0.6827 -0.2455 -0.3723
 3549TIP3    H132062   1.653   1.404   3.803  0.4880 -0.0439  1.4356
 3549TIP3    H232063   1.751   1.497   3.872 -0.5962  1.7938  0.5171
 3550TIP3   OH232064   1.961   5.776   3.543  0.4636  0.3034  0.6617
 3550TIP3    H132065   1.982   5.738   3.629  2.3102 -1.4106 -0.4849
 3550TIP3    H232066   2.044   5.813   3.513 -0.4035  1.7277  0.0255
 3551TIP3   OH232067   1.560   6.088  13.387 -0.3361 -0.2785 -0.3033
 3551TIP3    H132068   1.594   6.084  13.297 -0.6575  0.1020 -0.4440
 3551TIP3    H232069   1.594   6.170  13.422  1.3327 -1.3082  0.5610
 3552TIP3   OH232070   5.872   3.066  13.284 -0.2236 -0.4204 -0.2001
 3552TIP3    H132071   5.906   3.041  13.197  0.2185  0.0109 -0.1562
 3552TIP3    H232072   5.943   3.116  13.323 -1.3565  1.5308 -0.5738
 3553TIP3   OH232073   6.555   5.349  16.152 -0.3242  0.0332 -0.7347
 3553TIP3    H132074   6.519   5.397  16.077  1.8156  0.2023 -1.6872
 3553TIP3    H232075   6.547   5.411  16.225 -1.8485  0.0983 -0.9435
 3554TIP3   OH232076   6.512   4.277   2.571  0.3017 -0.0144 -0.3277
 3554TIP3    H132077   6.579   4.265   2.504 -0.5701  0.0831 -1.2426
 3554TIP3    H232078   6.429   4.261   2.525 -0.4030  1.6157  0.3475
 3555TIP3   OH232079   3.355   0.677   6.543  0.2231 -0.2143  0.1092
 3555TIP3    H132080   3.271   0.674   6.588 -0.5427  1.4433 -1.1370
 3555TIP3    H232081   3.404   0.747   6.587 -0.1123  0.6679 -0.8797
 3556TIP3   OH232082   1.311   6.013  12.373 -0.6613 -0.3515  0.4181
 3556TIP3    H132083   1.236   6.030  12.430 -1.1865 -1.7372  0.1710
 3556TIP3    H232084   1.366   6.091  12.382 -1.0762 -0.2303  2.2830
 3557TIP3   OH232085   6.534   5.748   0.154  0.0839 -0.0758  0.0293
 3557TIP3    H132086   6.467   5.767   0.220  0.2365 -1.1094  0.5064
 3557TIP3    H232087   6.510   5.661   0.121 -0.7542  0.9973 -2.2496
 3558TIP3   OH232088   0.527   6.536   4.733 -0.1230  0.6021 -0.1368
 3558TIP3    H132089   0.540   6.550   4.639 -0.7334  0.2727 -0.2746
 3558TIP3    H232090   0.575   6.455   4.752  1.8690  1.8607  0.2918
 3559TIP3   OH232091   5.576   5.353   1.828  0.7097 -0.2190  0.0651
 3559TIP3    H132092   5.615   5.433   1.864  0.8494 -0.8353  1.3078
 3559TIP3    H232093   5.639   5.323   1.763 -0.6195  2.1552 -2.4080
 3560TIP3   OH232094   5.901   3.016  13.885 -0.4999  0.0490  0.5983
 3560TIP3    H132095   5.843   2.949  13.849 -2.5240  1.9197  0.2598
 3560TIP3    H232096   5.911   2.991  13.977 -0.6544 -1.0836  0.3249
 3561TIP3   OH232097   0.874   4.281  16.830  0.3299 -0.0654  0.4964
 3561TIP3    H132098   0.866   4.235  16.913 -0.4769  1.7667  1.4673
 3561TIP3    H232099   0.900   4.370  16.854  1.9473  0.0061 -1.3355
 3562TIP3   OH232100   6.136   4.602  12.101  0.4566  0.5107 -0.4228
 3562TIP3    H132101   6.126   4.683  12.050 -2.2797 -0.0835 -0.9199
 3562TIP3    H232102   6.131   4.630  12.192 -0.3611  0.9571 -0.5911
 3563TIP3   OH232103   4.967   4.841  13.695  0.0692 -0.0083 -0.6598
 3563TIP3    H132104   5.035   4.853  13.628  1.5200  2.7561  1.2231
 3563TIP3    H232105   5.001   4.771  13.750  2.3924  2.6439  1.3920
 3564TIP3   OH232106   5.940   4.451   0.439 -0.1858 -0.6928  0.6924
 3564TIP3    H132107   5.972   4.529   0.395 -1.0245 -1.0142 -0.4986
 3564TIP3    H232108   5.986   4.378   0.397  0.5297 -0.8668  1.7384
 3565TIP3   OH232109   4.606   2.799   2.200  0.3138 -0.4394 -0.1590
 3565TIP3    H132110   4.556   2.749   2.265  0.1205  0.3792  0.3327
 3565TIP3    H232111   4.659   2.734   2.156  1.8758 -0.7721  2.1059
 3566TIP3   OH232112   5.847   4.191   1.133  0.2019 -0.0657  0.2370
 3566TIP3    H132113   5.829   4.145   1.051  1.2281 -2.0363  1.0685
 3566TIP3    H232114   5.837   4.124   1.201 -0.6550  1.5457  1.7253
 3567TIP3   OH232115   1.632   4.263  10.545 -0.0548  0.1066 -0.6297
 3567TIP3    H132116   1.706   4.240  10.601 -1.7773 -0.4265  1.4736
 3567TIP3    H232117   1.610   4.181  10.500 -1.4302 -0.5849  1.2364
 3568TIP3   OH232118   4.600   4.807  17.128  0.5219 -0.9045 -0.2249
 3568TIP3    H132119   4.598   4.886  17.182  1.3168 -1.7761  1.1243
 3568TIP3    H232120   4.634   4.836  17.044 -2.0565  0.7543 -0.7666
 3569TIP3   OH232121   1.683   6.296  15.349 -0.1694  0.1084 -0.4311
 3569TIP3    H132122   1.608   6.346  15.381 -0.3710 -1.2931  1.3792
 3569TIP3    H232123   1.649   6.248  15.273 -0.6915  0.6742 -0.5598
 3570TIP3   OH232124   2.653   1.341   2.762  0.1299  0.2444 -0.2706
 3570TIP3    H132125   2.735   1.336   2.810  0.4675 -2.1030 -1.0382
 3570TIP3    H232126   2.591   1.379   2.824  1.1015 -0.6609  1.2678
 3571TIP3   OH232127   4.648   5.131   5.987  0.0995 -0.6914  0.1131
 3571TIP3    H132128   4.711   5.181   6.039 -1.5264 -0.0214  1.4922
 3571TIP3    H232129   4.568   5.183   5.989 -0.6812 -1.8011 -1.1315
 3572TIP3   OH232130   3.371   3.500   1.507 -0.2084 -0.4269 -0.1923
 3572TIP3    H132131   3.458   3.460   1.515 -0.4125 -0.8467 -0.0301
 3572TIP3    H232132   3.362   3.519   1.414  0.2492  0.0582 -0.1372
 3573TIP3   OH232133   1.254   1.517   3.189  0.5388  0.3444  0.3208
 3573TIP3    H132134   1.327   1.458   3.172 -0.3074  0.1774 -3.2589
 3573TIP3    H232135   1.294   1.594   3.229  1.9007 -1.8307  3.2524
 3574TIP3   OH232136   2.951   0.670   5.908 -1.4434  0.1596 -0.1681
 3574TIP3    H132137   2.954   0.600   5.843 -1.3129  1.1732 -1.2880
 3574TIP3    H232138   2.921   0.628   5.989 -3.3563 -0.7946 -1.3351
 3575TIP3   OH232139   1.092   1.307   2.802  0.2208  0.8530 -0.2938
 3575TIP3    H132140   1.122   1.311   2.711  0.8931  1.1505 -0.0637
 3575TIP3    H232141   1.116   1.220   2.832  1.6970  1.4062  0.1695
 3576TIP3   OH232142   2.679   5.238   3.059  0.4800 -0.2026  0.5268
 3576TIP3    H132143   2.653   5.182   3.132 -0.9777 -0.7869 -0.4174
 3576TIP3    H232144   2.774   5.245   3.067  0.2803  0.2128  2.8085
 3577TIP3   OH232145   1.731   5.144   2.299  0.1428  0.0298 -0.1062
 3577TIP3    H132146   1.771   5.206   2.359 -2.1338  0.9339  0.5620
 3577TIP3    H232147   1.765   5.168   2.213 -1.0749  2.6167  0.0656
 3578TIP3   OH232148   1.320   2.879  11.012 -0.5354  0.5493 -0.0193
 3578TIP3    H132149   1.385   2.923  11.067 -0.6369  0.0529  0.5083
 3578TIP3    H232150   1.274   2.950  10.967 -0.1878  0.9407  0.2368
 3579TIP3   OH232151   1.375   2.999   1.906  0.1546 -0.5897 -0.0085
 3579TIP3    H132152   1.350   3.052   1.830  2.1421  1.0205  0.4353
 3579TIP3    H232153   1.465   2.973   1.888  0.2020 -1.2790  1.2043
 3580TIP3   OH232154   0.642   4.186   0.935  0.0590 -0.2594 -0.0113
 3580TIP3    H132155   0.664   4.261   0.990 -1.5780 -0.6591  1.2392
 3580TIP3    H232156   0.726   4.142   0.920  0.7748  0.8443  0.7239
 3581TIP3   OH232157   0.390   1.504   6.781  0.6573  0.5378  0.1725
 3581TIP3    H132158   0.405   1.572   6.717  4.1389  0.6100  0.9283
 3581TIP3    H232159   0.310   1.530   6.827  1.0485  3.2538 -0.6132
 3582TIP3   OH232160   4.103   0.900   3.068 -0.3467  0.0622  0.4539
 3582TIP3    H132161   4.046   0.968   3.106 -0.4533  1.5954 -2.3004
 3582TIP3    H232162   4.169   0.949   3.019 -0.6805 -1.8259 -1.9776
 3583TIP3   OH232163   3.445   2.494  14.557 -0.3520 -0.1762  0.2371
 3583TIP3    H132164   3.354   2.485  14.528  0.0803 -1.5438 -0.7590
 3583TIP3    H232165   3.451   2.436  14.633 -0.2698 -0.2026  0.2107
 3584TIP3   OH232166   5.233   4.649  17.172  0.7194 -0.2786 -0.3973
 3584TIP3    H132167   5.196   4.659  17.259  0.0237  0.4047 -0.7714
 3584TIP3    H232168   5.165   4.605  17.121 -0.1771  2.2274 -1.4594
 3585TIP3   OH232169   3.382   6.772  14.168 -0.0643 -0.0299 -0.5386
 3585TIP3    H132170   3.454   6.833  14.156  0.7473 -0.8573  0.0119
 3585TIP3    H232171   3.314   6.823  14.212 -0.2230  1.0279 -1.9882
 3586TIP3   OH232172   2.655   2.018  13.589 -0.0473  0.8867  0.1680
 3586TIP3    H132173   2.596   1.993  13.517 -1.1865  2.1237  0.6563
 3586TIP3    H232174   2.677   2.109  13.572 -0.1817  1.1341  1.2907
 3587TIP3   OH232175   0.733   3.474   2.611  0.1334 -0.8485  0.1425
 3587TIP3    H132176   0.671   3.517   2.553  0.9335 -0.3083 -0.3275
 3587TIP3    H232177   0.758   3.394   2.565  0.9036 -0.3325 -0.3606
 3588TIP3   OH232178   5.330   5.122  15.715  0.5117  0.2670  0.3772
 3588TIP3    H132179   5.299   5.032  15.700 -0.8711  0.8065 -0.1113
 3588TIP3    H232180   5.321   5.164  15.629 -1.1906  1.5539  1.1642
 3589TIP3   OH232181   3.340   3.906  16.890 -0.1011  0.1796 -0.2930
 3589TIP3    H132182   3.257   3.868  16.863 -0.1652 -0.0387  0.2072
 3589TIP3    H232183   3.337   3.996  16.859 -0.7060  0.2965  0.1129
 3590TIP3   OH232184   4.274   1.353  13.437 -0.6304  0.0746 -0.0680
 3590TIP3    H132185   4.293   1.435  13.391 -1.3559 -0.3947 -1.2245
 3590TIP3    H232186   4.329   1.288  13.394  0.9194  0.1795  1.7017
 3591TIP3   OH232187   1.156   4.519  14.525 -0.2046  0.4215 -0.0524
 3591TIP3    H132188   1.134   4.573  14.601  0.3668 -0.7171  0.9271
 3591TIP3    H232189   1.106   4.439  14.537 -0.7776  0.5810 -1.3259
 3592TIP3   OH232190   2.309   4.245  13.375  0.0934 -0.1400  1.0035
 3592TIP3    H132191   2.380   4.186  13.399  1.5908  0.2673 -2.1655
 3592TIP3    H232192   2.309   4.312  13.443  0.2156 -2.2200  3.0914
 3593TIP3   OH232193   3.402   5.586   1.378  0.4659 -0.6609  0.4404
 3593TIP3    H132194   3.382   5.517   1.315  0.8506 -0.3444 -0.0362
 3593TIP3    H232195   3.484   5.625   1.346 -1.4670  2.2434 -1.2439
 3594TIP3   OH232196   4.487   0.775   5.534  0.3422  0.5772 -0.4411
 3594TIP3    H132197   4.526   0.818   5.610  3.6074 -1.3843 -0.9327
 3594TIP3    H232198   4.441   0.699   5.570  0.3683  0.6572 -0.2412
 3595TIP3   OH232199   6.214   2.171   6.107 -0.1480 -0.0960 -0.0090
 3595TIP3    H132200   6.167   2.129   6.179 -1.3018  1.5307  0.2156
 3595TIP3    H232201   6.280   2.226   6.150 -1.0640  1.1443 -0.1546
 3596TIP3   OH232202   6.430   6.028   5.748  0.0599  0.2062  0.0555
 3596TIP3    H132203   6.425   6.076   5.665 -0.8453  0.6708  0.3713
 3596TIP3    H232204   6.524   6.012   5.760  0.0869 -1.1621 -1.7746
 3597TIP3   OH232205   0.991   0.573  13.260  0.0473 -0.3711  0.2491
 3597TIP3    H132206   1.038   0.651  13.288  0.6548 -0.7563  0.3178
 3597TIP3    H232207   1.049   0.531  13.196 -0.8196 -0.1158 -0.7038
 3598TIP3   OH232208   6.345   1.264   1.790 -0.2083 -0.0911 -1.3380
 3598TIP3    H132209   6.411   1.322   1.827 -0.5347  0.0786 -1.0240
 3598TIP3    H232210   6.272   1.321   1.769 -0.6867 -0.4474 -0.6617
 3599TIP3   OH232211   0.159   1.433  14.064 -0.9084  0.4539  0.2631
 3599TIP3    H132212   0.159   1.353  14.011  0.1890  0.4934  0.1781
 3599TIP3    H232213   0.245   1.433  14.107 -1.7526  0.4683  1.9879
 3600TIP3   OH232214   4.849   1.357  15.005 -0.0916 -0.1313 -0.0634
 3600TIP3    H132215   4.769   1.378  14.958 -0.4203 -0.9726  0.1099
 3600TIP3    H232216   4.841   1.264  15.026  1.5817 -0.6161 -1.3593
 3601TIP3   OH232217   1.518   2.042  13.050 -0.3347  0.4541 -0.1408
 3601TIP3    H132218   1.449   2.011  13.109 -1.0489  2.6894  0.2156
 3601TIP3    H232219   1.569   2.103  13.101  1.5449 -0.6660 -0.6276
 3602TIP3   OH232220   6.298   2.612   3.981  0.6482  0.2453 -0.0883
 3602TIP3    H132221   6.338   2.688   3.939 -0.8008  0.2784 -1.4662
 3602TIP3    H232222   6.345   2.537   3.945 -0.0928  0.3191 -1.2436
 3603TIP3   OH232223   2.669   5.979  15.422 -0.9418  0.4108 -0.1052
 3603TIP3    H132224   2.588   5.998  15.468 -1.5694 -0.9612 -0.5939
 3603TIP3    H232225   2.710   5.910  15.474 -0.5041  0.5098 -0.3201
 3604TIP3   OH232226   0.227   4.133   2.709 -0.0632 -0.0167  0.0290
 3604TIP3    H132227   0.314   4.152   2.675  0.1568 -1.7389 -0.3998
 3604TIP3    H232228   0.189   4.219   2.728  1.6125  0.7498 -0.0459
 3605TIP3   OH232229   1.050   5.555  11.236  0.1912 -0.0090  0.1872
 3605TIP3    H132230   1.088   5.489  11.178 -0.7267  0.0636 -0.5056
 3605TIP3    H232231   1.100   5.635  11.218  1.2367 -0.4703  0.9548
 3606TIP3   OH232232   4.509   2.800  13.916  0.0657  0.4500 -0.3989
 3606TIP3    H132233   4.422   2.837  13.933 -0.4907 -0.5543 -1.0003
 3606TIP3    H232234   4.558   2.817  13.997 -1.2951 -0.6876  0.6959
 3607TIP3   OH232235   2.522   0.945   4.038 -0.2384 -0.1395 -0.5139
 3607TIP3    H132236   2.505   1.037   4.060 -1.3520 -0.9110  2.0228
 3607TIP3    H232237   2.455   0.923   3.974 -0.2933  0.6629 -0.7403
 3608TIP3   OH232238   0.290   3.036  11.820 -0.2196  0.8456  0.0326
 3608TIP3    H132239   0.250   3.049  11.734  0.5916 -1.4494 -0.7431
 3608TIP3    H232240   0.378   3.002  11.801  0.4166  1.4350  1.7579
 3609TIP3   OH232241   6.733   0.788   3.701  0.8968  0.0389 -0.4140
 3609TIP3    H132242   6.785   0.715   3.668 -0.3072 -0.1998 -1.8789
 3609TIP3    H232243   6.666   0.801   3.634 -1.1479  0.1081  1.6034
 3610TIP3   OH232244   4.226   5.696   4.813  0.1658  0.9369  0.4616
 3610TIP3    H132245   4.239   5.717   4.906  2.5552 -0.6046  0.5134
 3610TIP3    H232246   4.301   5.736   4.769  0.6525 -0.9202 -0.4090
 3611TIP3   OH232247   2.702   3.550   5.218  0.1798  0.2003 -0.4532
 3611TIP3    H132248   2.642   3.615   5.253  0.5718 -0.0232  0.6671
 3611TIP3    H232249   2.664   3.466   5.244  0.9354  0.0572  0.2316
 3612TIP3   OH232250   6.716   5.120  15.530 -0.2222  0.4506  0.3018
 3612TIP3    H132251   6.793   5.140  15.584 -0.2561 -0.3890  0.6724
 3612TIP3    H232252   6.642   5.126  15.591 -0.3140  0.0105  0.2399
 3613TIP3   OH232253   5.474   3.437  15.849 -0.3572 -0.0835  0.3056
 3613TIP3    H132254   5.454   3.365  15.909 -1.5110 -1.3912 -1.6235
 3613TIP3    H232255   5.389   3.473  15.826  0.1524  1.1793  0.3363
 3614TIP3   OH232256   3.849   2.352  15.281 -0.0358 -0.8218  0.6089
 3614TIP3    H132257   3.771   2.307  15.313  0.3429  0.1519  3.0226
 3614TIP3    H232258   3.908   2.282  15.254 -1.7055 -1.5668 -1.1872
 3615TIP3   OH232259   3.488   1.154   5.895  0.2640  0.0511  0.7987
 3615TIP3    H132260   3.429   1.216   5.938  0.3652  1.7858 -1.5027
 3615TIP3    H232261   3.575   1.189   5.911  0.3537  0.2103 -0.0010
 3616TIP3   OH232262   6.508   5.236  14.623 -0.2072 -0.6541 -0.5603
 3616TIP3    H132263   6.433   5.176  14.622 -1.9540  1.4144  1.3547
 3616TIP3    H232264   6.483   5.305  14.561 -0.0126  0.1653  0.2673
 3617TIP3   OH232265   1.714   5.700   3.277 -0.4502  0.3638  0.0747
 3617TIP3    H132266   1.787   5.757   3.253 -1.7876  3.0080  1.9868
 3617TIP3    H232267   1.725   5.622   3.223  1.5009  2.3909 -2.5845
 3618TIP3   OH232268   5.920   4.843  12.558  0.0416  0.0246  0.5017
 3618TIP3    H132269   5.923   4.769  12.618  1.4133 -0.5113 -0.2210
 3618TIP3    H232270   5.895   4.805  12.473  0.7458  0.3857  0.1288
 3619TIP3   OH232271   1.425   5.914  15.678  0.4047  0.8537 -0.3445
 3619TIP3    H132272   1.363   5.986  15.666  0.1930  0.6965 -0.1965
 3619TIP3    H232273   1.414   5.889  15.770  0.1203  0.3008 -0.5284
 3620TIP3   OH232274   4.775   6.063  14.545  0.4621 -0.4661 -0.1627
 3620TIP3    H132275   4.736   6.142  14.509  0.9552 -0.3862 -0.5188
 3620TIP3    H232276   4.797   6.010  14.468  0.9238 -0.5736  0.0416
 3621TIP3   OH232277   2.096   4.103  13.549 -0.0404 -0.0210  0.3227
 3621TIP3    H132278   2.113   4.173  13.611  2.0444 -0.1072 -0.1298
 3621TIP3    H232279   2.073   4.028  13.604  0.8030  0.1739  0.9492
 3622TIP3   OH232280   3.674   4.294   1.852  0.4836 -0.1322  0.7318
 3622TIP3    H132281   3.730   4.223   1.883  0.6897  0.7872  2.5265
 3622TIP3    H232282   3.735   4.358   1.814  0.3614 -0.5332 -0.1683
 3623TIP3   OH232283   1.946   1.394   0.327  0.4816  1.0806  0.3992
 3623TIP3    H132284   1.934   1.467   0.266 -1.3802  0.2616 -0.2724
 3623TIP3    H232285   1.985   1.324   0.274  1.4807  1.3181  0.8309
 3624TIP3   OH232286   2.515   5.625   3.065  0.5932  0.7704  0.1269
 3624TIP3    H132287   2.460   5.574   3.124  1.2944 -0.9387 -0.6798
 3624TIP3    H232288   2.470   5.621   2.981  1.0253  0.9003 -0.1100
 3625TIP3   OH232289   0.228   4.419   2.804 -0.2110  0.2676 -0.2924
 3625TIP3    H132290   0.167   4.492   2.820  0.8459  2.0086 -3.7120
 3625TIP3    H232291   0.287   4.420   2.879 -2.2523  0.7702  1.3533
 3626TIP3   OH232292   3.874   5.080  16.616 -0.3727 -0.4159 -0.0875
 3626TIP3    H132293   3.829   5.024  16.552  2.6778 -3.8190  0.5905
 3626TIP3    H232294   3.957   5.102  16.574  0.0429  0.4703  1.1902
 3627TIP3   OH232295   1.058   3.842  13.786  0.0642  0.1446  0.1379
 3627TIP3    H132296   1.145   3.825  13.823 -0.4847  0.1923  1.5139
 3627TIP3    H232297   1.040   3.766  13.731  1.4279  0.6596 -1.0398
 3628TIP3   OH232298   5.228   5.437   3.714 -0.0255  0.4826 -0.3254
 3628TIP3    H132299   5.139   5.404   3.725  0.5517 -0.7402  0.7501
 3628TIP3    H232300   5.284   5.360   3.725  1.1287  1.0231 -2.0802
 3629TIP3   OH232301   2.110   2.063  12.847 -0.4855  0.3676 -0.2213
 3629TIP3    H132302   2.026   2.060  12.893 -1.9021 -3.4955 -2.7911
 3629TIP3    H232303   2.096   2.125  12.775 -0.1096  2.0418  1.1213
 3630TIP3   OH232304   6.742   6.554  11.466  0.1624  0.2450  0.2573
 3630TIP3    H132305   6.794   6.479  11.497 -0.2669  0.6563  2.0467
 3630TIP3    H232306   6.671   6.562  11.530  0.5692  2.5745  0.4648
 3631TIP3   OH232307   1.723   1.126  12.609 -0.4605 -0.1708  0.5940
 3631TIP3    H132308   1.795   1.064  12.604 -0.7119 -0.3103 -1.9932
 3631TIP3    H232309   1.646   1.075  12.584 -0.9380  0.7291  0.2038
 3632TIP3   OH232310   5.833   1.394   5.718  0.1406  0.5298 -0.0544
 3632TIP3    H132311   5.756   1.448   5.702 -2.1353 -2.0916  1.7262
 3632TIP3    H232312   5.895   1.453   5.761 -1.2492  2.3753 -0.5339
 3633TIP3   OH232313   5.808   0.611  14.753  0.2865  0.5069  0.1387
 3633TIP3    H132314   5.789   0.626  14.845  0.4773 -1.5523  0.5311
 3633TIP3    H232315   5.776   0.523  14.735  1.0745  0.5340 -1.5321
 3634TIP3   OH232316   5.321   5.956  13.129 -0.1700  0.1404  0.0540
 3634TIP3    H132317   5.367   6.025  13.177 -1.5828  0.5910  0.7868
 3634TIP3    H232318   5.342   5.972  13.037 -1.1667  2.0708  0.1370
 3635TIP3   OH232319   1.166   6.095  12.862  0.2135 -0.1603  0.2132
 3635TIP3    H132320   1.184   6.025  12.798 -3.1404 -0.5212 -0.4326
 3635TIP3    H232321   1.181   6.054  12.947  0.1880 -1.0866 -0.2183
 3636TIP3   OH232322   5.454   0.648  16.660  0.3586 -0.2756  0.5381
 3636TIP3    H132323   5.518   0.719  16.661  0.1339 -0.0684  0.2361
 3636TIP3    H232324   5.435   0.634  16.567  0.4035 -0.7275  0.5979
 3637TIP3   OH232325   2.729   2.941  14.005  0.1735  0.2087 -0.0012
 3637TIP3    H132326   2.756   2.858  13.968 -0.9479  1.0853 -2.9652
 3637TIP3    H232327   2.811   2.987  14.024  0.7947 -0.5226 -0.8627
 3638TIP3   OH232328   5.364   6.484  17.207  0.1613  0.2139  0.1676
 3638TIP3    H132329   5.431   6.415  17.211 -0.7102 -0.6399  0.3694
 3638TIP3    H232330   5.340   6.499  17.299  0.0835  0.5126  0.0975
 3639TIP3   OH232331   3.812   3.534   3.691 -0.4340 -0.0740 -0.1787
 3639TIP3    H132332   3.829   3.617   3.646 -1.9524 -0.2436 -1.1088
 3639TIP3    H232333   3.781   3.560   3.778 -1.5132  0.3555 -0.6849
 3640TIP3   OH232334   3.691   5.563  11.010 -0.0078  0.3913  0.0258
 3640TIP3    H132335   3.683   5.535  10.919 -1.2470  1.5333 -0.2255
 3640TIP3    H232336   3.614   5.618  11.026 -0.9916 -1.6064  2.4426
 3641TIP3   OH232337   0.637   5.566  16.502 -0.0651  0.0761  0.5716
 3641TIP3    H132338   0.605   5.649  16.468  0.5987 -0.3254 -1.0536
 3641TIP3    H232339   0.574   5.501  16.473  0.2553 -0.2080  0.5070
 3642TIP3   OH232340   4.018   1.873  11.364 -0.2907 -0.1453  0.6151
 3642TIP3    H132341   4.079   1.811  11.405 -0.9154 -0.6767  0.7540
 3642TIP3    H232342   3.989   1.829  11.284  0.6575  0.7420 -0.2326
 3643TIP3   OH232343   3.736   2.579  11.652 -0.0516  0.3269  0.0355
 3643TIP3    H132344   3.773   2.656  11.609 -0.8255  0.5314 -0.2739
 3643TIP3    H232345   3.781   2.505  11.612 -0.1437  0.5627 -0.5080
 3644TIP3   OH232346   0.723   1.654   2.419 -0.0630 -0.0396 -0.1602
 3644TIP3    H132347   0.701   1.733   2.468  0.3825 -0.1960  0.3038
 3644TIP3    H232348   0.786   1.684   2.353  0.6157 -0.1131  0.4397
 3645TIP3   OH232349   5.547   6.523   5.669  0.6573 -0.0079  0.2552
 3645TIP3    H132350   5.586   6.508   5.755  1.7768  0.0497 -0.2302
 3645TIP3    H232351   5.498   6.604   5.678 -1.0017 -1.1236  1.4223
 3646TIP3   OH232352   5.911   2.123  16.872 -0.6043 -0.2335  0.3388
 3646TIP3    H132353   5.892   2.091  16.783 -0.3337  1.9119 -0.5282
 3646TIP3    H232354   5.861   2.065  16.929  0.7232 -2.8913 -1.0543
 3647TIP3   OH232355   4.729   5.377  16.018  0.3697 -0.1206  0.2173
 3647TIP3    H132356   4.708   5.379  15.925 -1.8817  3.0521  0.7176
 3647TIP3    H232357   4.657   5.328  16.058  0.2516  0.3231  0.5469
 3648TIP3   OH232358   4.562   3.741  15.461  0.0322 -0.2791  0.5242
 3648TIP3    H132359   4.508   3.760  15.538 -1.0198 -0.4807 -0.1463
 3648TIP3    H232360   4.562   3.822  15.411  0.9893 -0.0493  0.9008
 3649TIP3   OH232361   5.107   1.873   1.593 -0.1675 -0.2073  0.5903
 3649TIP3    H132362   5.035   1.854   1.533 -0.8162 -0.3253  1.3808
 3649TIP3    H232363   5.178   1.816   1.565 -0.5211 -0.3812  0.0416
 3650TIP3   OH232364   4.505   2.927   1.234 -0.3498 -0.2179  0.0735
 3650TIP3    H132365   4.481   2.844   1.195 -0.6068 -0.2353  0.2683
 3650TIP3    H232366   4.579   2.958   1.182  1.5620 -1.9006  1.6845
 3651TIP3   OH232367   4.298   0.369  11.625  0.2934  0.3038 -0.5038
 3651TIP3    H132368   4.371   0.326  11.670  0.0640 -0.6964 -1.0545
 3651TIP3    H232369   4.304   0.461  11.651  2.3028  0.4106 -1.2581
 3652TIP3   OH232370   3.402   3.471   6.914  0.1442 -0.3954 -0.0601
 3652TIP3    H132371   3.448   3.516   6.843 -0.0046 -0.9688 -0.5212
 3652TIP3    H232372   3.472   3.429   6.964  0.3921  1.2630  1.0381
 3653TIP3   OH232373   6.529   4.858   5.830  0.3928 -0.6697  0.0741
 3653TIP3    H132374   6.612   4.873   5.876  0.7259  2.0137 -1.3073
 3653TIP3    H232375   6.544   4.778   5.780  1.9759 -0.5063  0.2594
 3654TIP3   OH232376   3.344   6.230  13.235  0.8124 -0.6260  0.0544
 3654TIP3    H132377   3.422   6.277  13.205  1.2194 -1.9017 -0.8845
 3654TIP3    H232378   3.348   6.145  13.192 -1.3849 -0.5114 -0.4370
 3655TIP3   OH232379   1.039   5.911  14.360 -0.3312  0.1305  0.0871
 3655TIP3    H132380   0.989   5.844  14.407 -0.2097  0.4366  0.6527
 3655TIP3    H232381   0.977   5.946  14.296  0.1546 -1.8562 -1.5430
 3656TIP3   OH232382   2.182   3.407  14.009  0.5477 -0.3896  0.0831
 3656TIP3    H132383   2.264   3.399  13.961 -0.4761 -0.3736 -1.7096
 3656TIP3    H232384   2.187   3.339  14.076  2.0212 -0.3712  0.0079
 3657TIP3   OH232385   5.801   0.753   3.494  1.0078 -0.2649 -0.2208
 3657TIP3    H132386   5.821   0.842   3.466 -0.8333 -0.3475 -1.8459
 3657TIP3    H232387   5.785   0.761   3.588  0.0410  1.2724 -0.4963
 3658TIP3   OH232388   5.898   4.706   2.277  0.0185 -0.0088 -0.0301
 3658TIP3    H132389   5.886   4.616   2.305  1.2101 -0.2326 -0.2191
 3658TIP3    H232390   5.828   4.754   2.321  0.1136 -0.8289  1.0445
 3659TIP3   OH232391   5.025   6.268  11.633  0.0429  0.2932 -0.1664
 3659TIP3    H132392   5.086   6.237  11.566  0.8416  1.8472 -0.1612
 3659TIP3    H232393   5.008   6.191  11.687 -0.5172 -0.9671 -2.0678
 3660TIP3   OH232394   4.172   0.247  12.807 -0.8435  0.2514 -0.2620
 3660TIP3    H132395   4.216   0.322  12.848 -1.3037 -0.5166  1.6558
 3660TIP3    H232396   4.110   0.287  12.745 -0.7958  1.4474  0.4440
 3661TIP3   OH232397   4.628   0.828   3.542 -0.2549  0.3297 -0.1859
 3661TIP3    H132398   4.621   0.905   3.487 -2.6088  0.7032  0.5602
 3661TIP3    H232399   4.566   0.844   3.614 -0.9934 -2.3505 -0.1644
 3662TIP3   OH232400   1.909   5.149   2.047  0.5667 -0.7343  0.5608
 3662TIP3    H132401   2.003   5.156   2.031  0.0166  2.2946 -1.6377
 3662TIP3    H232402   1.877   5.092   1.977  0.4353  0.0557 -0.0228
 3663TIP3   OH232403   1.025   2.196  12.493  0.2249 -0.6743 -0.1161
 3663TIP3    H132404   1.107   2.241  12.477  0.5625 -1.0175  0.5971
 3663TIP3    H232405   0.983   2.247  12.563 -0.6263  0.0655 -1.1503
 3664TIP3   OH232406   3.199   6.647   1.442 -0.0843 -0.0575 -0.1698
 3664TIP3    H132407   3.209   6.559   1.407  0.9828  0.7518 -1.9483
 3664TIP3    H232408   3.112   6.647   1.484  0.9212 -2.6444  2.0227
 3665TIP3   OH232409   4.990   0.438  11.481 -0.0264 -0.5872  0.7869
 3665TIP3    H132410   4.999   0.532  11.495  0.9785 -0.3537 -1.3329
 3665TIP3    H232411   4.899   0.426  11.456  0.2342  0.0260 -0.4657
 3666TIP3   OH232412   2.411   1.137   4.807  0.4260 -0.3745 -0.8929
 3666TIP3    H132413   2.454   1.074   4.749  1.8660 -0.7293  0.5326
 3666TIP3    H232414   2.471   1.147   4.881 -0.4571  1.5770 -0.4051
 3667TIP3   OH232415   0.967   5.820   1.763 -0.2059 -0.9155 -0.4723
 3667TIP3    H132416   0.872   5.819   1.762 -0.2030 -1.4415 -0.1997
 3667TIP3    H232417   0.991   5.877   1.690 -0.7475  0.6248  0.5094
 3668TIP3   OH232418   5.839   5.443   0.082  0.6534 -0.3577 -0.0370
 3668TIP3    H132419   5.805   5.367   0.130  0.9583 -0.2519  0.3544
 3668TIP3    H232420   5.766   5.472   0.028 -0.3165  0.6298  1.7419
 3669TIP3   OH232421   6.370   5.327   1.955  0.3561 -0.3301  0.3624
 3669TIP3    H132422   6.321   5.403   1.924  0.4642 -0.4058 -0.0080
 3669TIP3    H232423   6.441   5.363   2.007 -0.0956 -0.2184  0.9089
 3670TIP3   OH232424   1.080   4.197   4.867 -0.4070 -0.2424  0.0321
 3670TIP3    H132425   1.006   4.249   4.897 -1.5699 -2.1500  0.5668
 3670TIP3    H232426   1.045   4.109   4.858  1.7850 -1.1610  0.2263
 3671TIP3   OH232427   5.488   1.433   6.114 -0.3080  0.1625  0.3619
 3671TIP3    H132428   5.435   1.396   6.185 -0.3479  1.5729  1.0830
 3671TIP3    H232429   5.425   1.453   6.045 -0.3381 -0.7239  0.1230
 3672TIP3   OH232430   1.806   4.462   3.002 -0.2132 -0.2061 -0.3786
 3672TIP3    H132431   1.850   4.417   3.074  0.2497 -0.6097 -0.8997
 3672TIP3    H232432   1.827   4.554   3.014 -0.1236 -0.2755 -0.0084
 3673TIP3   OH232433   3.953   3.178  12.488 -0.1464 -0.0019  0.0953
 3673TIP3    H132434   3.929   3.242  12.554 -1.2326 -0.3596  0.0738
 3673TIP3    H232435   3.979   3.230  12.412  1.9771  0.4116  1.0734
 3674TIP3   OH232436   1.253   6.639   2.465  0.1699 -0.0587  0.3814
 3674TIP3    H132437   1.211   6.690   2.396  0.8726 -0.9073 -0.7018
 3674TIP3    H232438   1.258   6.698   2.540  0.7917  1.3875 -0.7798
 3675TIP3   OH232439   3.435   0.624  17.207 -0.4370  0.9792 -0.3212
 3675TIP3    H132440   3.367   0.632  17.274  0.3536  1.3925  0.4440
 3675TIP3    H232441   3.492   0.698  17.222  0.9014 -0.0720 -0.1379
 3676TIP3   OH232442   5.871   4.151   4.904 -0.4601  0.0551  0.2998
 3676TIP3    H132443   5.807   4.203   4.951 -0.2987 -1.2537  1.9969
 3676TIP3    H232444   5.823   4.074   4.875  0.3795 -1.0924  1.8696
 3677TIP3   OH232445   4.127   6.196  15.956  0.6885 -0.4160  0.0156
 3677TIP3    H132446   4.121   6.105  15.927 -0.0161 -0.4667  0.3097
 3677TIP3    H232447   4.042   6.234  15.932  0.5015 -0.1752  1.0309
 3678TIP3   OH232448   3.044   0.387   5.986  0.2511  0.8625  0.6229
 3678TIP3    H132449   3.115   0.361   5.927  0.0819 -3.4394  2.1006
 3678TIP3    H232450   2.965   0.385   5.932  0.5083 -0.0599  0.2749
 3679TIP3   OH232451   1.894   5.247  14.221  0.1828  0.1842  0.2307
 3679TIP3    H132452   1.885   5.215  14.131  4.3851 -1.0978  0.1833
 3679TIP3    H232453   1.842   5.186  14.273  0.3533 -1.0209 -0.9730
 3680TIP3   OH232454   6.661   1.469  16.298 -0.5483  0.1576  0.0674
 3680TIP3    H132455   6.611   1.449  16.219 -0.2867 -2.9680  0.6242
 3680TIP3    H232456   6.599   1.453  16.370 -0.0683  0.6053  0.5841
 3681TIP3   OH232457   1.075   2.891   2.144  0.0993  0.0787 -0.8804
 3681TIP3    H132458   1.004   2.869   2.205 -1.1188  1.4320 -1.7789
 3681TIP3    H232459   1.146   2.832   2.169 -1.3250 -1.3003  0.0587
 3682TIP3   OH232460   3.238   1.499   2.214  0.1421 -0.0032  0.1131
 3682TIP3    H132461   3.328   1.467   2.207 -0.1207 -1.1378  1.5255
 3682TIP3    H232462   3.191   1.455   2.144 -0.3295 -3.2456  2.3652
 3683TIP3   OH232463   1.000   2.433   2.946  0.1125  1.3144 -0.3442
 3683TIP3    H132464   1.005   2.341   2.971 -0.0892  1.1322 -0.9858
 3683TIP3    H232465   1.076   2.474   2.988  1.4814  0.4272 -1.9502
 3684TIP3   OH232466   5.646   6.141  13.386 -0.2502 -0.0319  0.0379
 3684TIP3    H132467   5.740   6.158  13.389 -0.1564 -0.3892 -0.8502
 3684TIP3    H232468   5.638   6.048  13.407 -0.4255  0.0695  0.4129
 3685TIP3   OH232469   1.449   6.441   5.203  0.0132  0.0727 -0.2130
 3685TIP3    H132470   1.525   6.396   5.165  0.2588 -0.8905  1.3984
 3685TIP3    H232471   1.486   6.499   5.269 -0.4000  1.8859 -1.5550
 3686TIP3   OH232472   4.376   3.204   5.383 -0.1623  0.0644  0.3003
 3686TIP3    H132473   4.362   3.265   5.455 -0.0248 -1.4216  1.6195
 3686TIP3    H232474   4.288   3.187   5.348 -0.2129  0.8989  0.0263
 3687TIP3   OH232475   5.670   1.080   5.114  0.2735 -0.4717  0.2302
 3687TIP3    H132476   5.594   1.044   5.068  1.2687 -0.4914 -1.4548
 3687TIP3    H232477   5.735   1.010   5.114  0.2091 -0.5364  1.8717
 3688TIP3   OH232478   4.245   6.243  11.899 -0.7289  0.2909 -0.2770
 3688TIP3    H132479   4.248   6.248  11.995  2.0605  3.1575 -0.4469
 3688TIP3    H232480   4.174   6.302  11.874  0.0614  1.3502 -0.0518
 3689TIP3   OH232481   0.477   4.003   1.946  0.0587  0.4922  0.1660
 3689TIP3    H132482   0.482   3.909   1.931 -0.8195  0.6804 -1.3505
 3689TIP3    H232483   0.567   4.034   1.935  0.1135  0.0326 -0.7020
 3690TIP3   OH232484   1.727   4.547   4.188  0.2451 -0.0799 -0.2668
 3690TIP3    H132485   1.777   4.628   4.196 -1.8252  1.0015  2.4006
 3690TIP3    H232486   1.665   4.564   4.117 -0.9805  1.1501  1.0720
 3691TIP3   OH232487   3.334   2.071   4.689  0.4251 -0.4171 -0.0870
 3691TIP3    H132488   3.260   2.117   4.648 -0.2670 -1.3055  0.1366
 3691TIP3    H232489   3.308   2.063   4.781  1.2352  0.1096  0.1888
 3692TIP3   OH232490   0.992   1.228  12.459 -0.0507  0.0244  0.3032
 3692TIP3    H132491   1.004   1.134  12.470 -1.1406  0.0197  1.4763
 3692TIP3    H232492   0.921   1.236  12.395  1.5174  0.0636 -1.4723
 3693TIP3   OH232493   4.981   5.215   6.349  0.2096  0.2373 -0.0148
 3693TIP3    H132494   4.946   5.300   6.376  1.7154  1.1099 -0.7358
 3693TIP3    H232495   5.075   5.224   6.359  0.3547 -1.5106  0.3093
 3694TIP3   OH232496   6.545   1.683   2.576  0.3205 -0.0389  0.3502
 3694TIP3    H132497   6.483   1.737   2.625  0.1393 -0.3024  0.4137
 3694TIP3    H232498   6.561   1.731   2.495 -1.6123 -1.0033 -0.6213
 3695TIP3   OH232499   1.765   1.864   6.392 -0.1657  0.2329 -0.4492
 3695TIP3    H132500   1.749   1.779   6.351 -0.2739  0.9751 -2.0133
 3695TIP3    H232501   1.770   1.925   6.318 -0.9923  1.7216  0.6898
 3696TIP3   OH232502   3.909   6.283  17.098 -0.5575  0.3441  0.1741
 3696TIP3    H132503   3.830   6.238  17.069 -1.2825  1.8508 -0.2553
 3696TIP3    H232504   3.922   6.253  17.188 -1.9372  0.4816  0.4379
 3697TIP3   OH232505   0.149   2.330  12.029 -0.0251 -1.0240 -0.4363
 3697TIP3    H132506   0.225   2.278  12.055  1.6253  0.9835 -1.0811
 3697TIP3    H232507   0.152   2.330  11.933  1.3761  2.1244 -0.4505
 3698TIP3   OH232508   2.446   3.446  13.920 -0.1263  0.1958  0.0368
 3698TIP3    H132509   2.499   3.523  13.940 -0.4730  1.1723 -2.5219
 3698TIP3    H232510   2.502   3.392  13.865 -0.9982  0.2285 -0.9215
 3699TIP3   OH232511   5.602   5.649  11.247 -0.0559 -0.0173  0.3654
 3699TIP3    H132512   5.508   5.655  11.266  0.1145 -0.0876  1.2505
 3699TIP3    H232513   5.643   5.643  11.333  0.9433  2.3131  0.0791
 3700TIP3   OH232514   4.841   1.728   4.245 -0.0244 -0.1983  0.7699
 3700TIP3    H132515   4.812   1.666   4.313  1.1821 -2.3034 -0.5744
 3700TIP3    H232516   4.913   1.683   4.201 -0.1844  1.5125 -1.3177
 3701TIP3   OH232517   3.257   5.324   3.535 -0.3334 -0.1583 -0.1589
 3701TIP3    H132518   3.219   5.259   3.476 -1.5055  0.0657  0.3328
 3701TIP3    H232519   3.195   5.396   3.536  0.1118  0.2288  0.6432
 3702TIP3   OH232520   4.954   4.917  12.585  0.5747 -0.6788 -0.6538
 3702TIP3    H132521   4.876   4.968  12.562  0.8821  0.2895  0.4566
 3702TIP3    H232522   4.920   4.845  12.639  0.7562  1.3247  2.2254
 3703TIP3   OH232523   2.310   3.546   1.711  0.1815 -0.0067  0.3412
 3703TIP3    H132524   2.348   3.459   1.693 -1.9296 -1.1532  1.2864
 3703TIP3    H232525   2.347   3.571   1.795  1.1299  0.2185 -0.1332
 3704TIP3   OH232526   4.935   2.263  13.709 -0.1567 -0.8316  1.2315
 3704TIP3    H132527   4.870   2.229  13.647 -1.1162  2.1020  0.5657
 3704TIP3    H232528   4.885   2.322  13.765  1.7125  0.5824  1.4358
 3705TIP3   OH232529   2.523   4.352  15.475 -0.8016  0.3239  0.1901
 3705TIP3    H132530   2.434   4.328  15.450  0.1336 -1.9960 -1.0380
 3705TIP3    H232531   2.567   4.269  15.494  1.9830  1.1493 -2.2551
 3706TIP3   OH232532   3.828   5.260   5.085 -0.2779 -0.6368  0.5253
 3706TIP3    H132533   3.837   5.345   5.129  1.9056 -1.3339  1.4679
 3706TIP3    H232534   3.873   5.198   5.143  3.1755 -1.4861 -2.8958
 3707TIP3   OH232535   0.175   5.809  16.370 -0.1884  0.2462 -0.3924
 3707TIP3    H132536   0.269   5.826  16.374 -0.2775  0.6351  0.1672
 3707TIP3    H232537   0.136   5.895  16.353 -0.3506 -0.1414 -2.0406
 3708TIP3   OH232538   0.883   1.377   4.883  0.5523  0.4045  0.2887
 3708TIP3    H132539   0.884   1.294   4.930  0.6852  0.6667  0.7562
 3708TIP3    H232540   0.971   1.385   4.848  0.1328 -0.3176 -0.9464
 3709TIP3   OH232541   6.151   6.658  13.698 -0.0556  0.4980 -0.2538
 3709TIP3    H132542   6.104   6.702  13.627 -1.1590 -0.6061 -0.2132
 3709TIP3    H232543   6.196   6.729  13.744 -1.1003  1.4781 -0.7180
 3710TIP3   OH232544   1.945   3.566  15.633 -1.0240  0.1380  0.1525
 3710TIP3    H132545   1.922   3.612  15.552  0.8529 -0.9810 -1.0343
 3710TIP3    H232546   1.983   3.483  15.604  0.3849  0.0564  2.1575
 3711TIP3   OH232547   2.909   3.455   2.957  0.2606 -0.2507 -0.4714
 3711TIP3    H132548   2.974   3.523   2.940 -0.3650  0.1307 -1.3503
 3711TIP3    H232549   2.864   3.443   2.874 -0.9235 -0.3739  0.1737
 3712TIP3   OH232550   5.326   4.787  13.216  0.2545  0.2369  0.2699
 3712TIP3    H132551   5.291   4.767  13.129  2.8553  0.0857 -0.7899
 3712TIP3    H232552   5.250   4.786  13.274 -2.0376  3.4465 -2.5164
 3713TIP3   OH232553   5.440   0.260  14.185 -0.0646 -0.1898 -0.5656
 3713TIP3    H132554   5.352   0.280  14.218  0.4736  0.3630  0.5619
 3713TIP3    H232555   5.430   0.259  14.089 -1.3535 -0.4250 -0.4345
 3714TIP3   OH232556   4.287   4.900   6.214  0.1052  0.0935  0.1241
 3714TIP3    H132557   4.381   4.889   6.201  0.0213 -1.1634  0.4784
 3714TIP3    H232558   4.276   4.991   6.239  1.0066  0.7980 -1.9244
 3715TIP3   OH232559   1.894   2.664  16.777 -0.3369 -0.0054  0.9641
 3715TIP3    H132560   1.822   2.638  16.720  0.5948 -0.4561 -0.0116
 3715TIP3    H232561   1.908   2.757  16.759  0.2444 -0.2508  0.1322
 3716TIP3   OH232562   3.021   3.970  15.923 -0.2272 -0.0574 -0.5050
 3716TIP3    H132563   2.956   3.925  15.869  0.3401 -0.5798 -0.7583
 3716TIP3    H232564   3.010   4.063  15.901 -0.4657 -0.2049 -1.0098
 3717TIP3   OH232565   2.211   1.235   0.699  0.2888 -0.1862 -0.4935
 3717TIP3    H132566   2.159   1.214   0.621 -1.8293  2.0292  0.2471
 3717TIP3    H232567   2.213   1.331   0.702  0.5867 -0.2227  1.9676
 3718TIP3   OH232568   3.000   2.953  14.409 -0.1951 -0.0854  0.2133
 3718TIP3    H132569   2.974   3.024  14.468 -0.8181 -0.8319  0.8569
 3718TIP3    H232570   2.921   2.900  14.399  0.4859 -1.1486  0.4075
 3719TIP3   OH232571   2.521   4.844  12.023 -0.2989 -0.3193 -0.5969
 3719TIP3    H132572   2.510   4.936  12.000 -1.8693 -0.1035  0.8389
 3719TIP3    H232573   2.535   4.845  12.118 -2.7427 -1.6605 -0.1621
 3720TIP3   OH232574   3.286   6.458  11.062 -0.0923  0.0006  0.0346
 3720TIP3    H132575   3.307   6.550  11.047 -1.7329  0.1713 -1.3813
 3720TIP3    H232576   3.362   6.423  11.109  2.0154  1.2956 -2.2976
 3721TIP3   OH232577   4.530   4.290   3.269  0.1380  0.1532 -0.1844
 3721TIP3    H132578   4.581   4.371   3.272 -0.5883  0.5935  0.8004
 3721TIP3    H232579   4.451   4.313   3.219  0.3640 -0.2104 -0.7161
 3722TIP3   OH232580   5.555   5.623   5.982  0.4930  0.4119  0.0172
 3722TIP3    H132581   5.509   5.574   6.051 -0.1996  1.8079  0.5683
 3722TIP3    H232582   5.648   5.605   5.997  0.3435  0.7376  1.3348
 3723TIP3   OH232583   5.971   2.866   4.108  0.0153 -0.1029  0.2004
 3723TIP3    H132584   5.987   2.783   4.062 -2.3243 -1.4576  1.7297
 3723TIP3    H232585   5.894   2.849   4.162 -0.2339  2.9576  0.8977
 3724TIP3   OH232586   6.190   4.868  16.378 -0.0462  0.6256  0.0111
 3724TIP3    H132587   6.260   4.928  16.401 -1.1675  1.8794  0.2392
 3724TIP3    H232588   6.125   4.879  16.447 -0.7821  0.0149 -0.5720
 3725TIP3   OH232589   1.570   6.033   4.045  0.0644 -0.5823  0.3271
 3725TIP3    H132590   1.660   6.001   4.055  1.1476  2.1938 -0.3383
 3725TIP3    H232591   1.564   6.062   3.955 -0.8025  1.3157  0.9735
 3726TIP3   OH232592   3.014   2.733  14.031  0.0082  0.0600 -0.1598
 3726TIP3    H132593   3.049   2.778  13.954  0.1270 -0.4004 -0.3711
 3726TIP3    H232594   2.923   2.713  14.007  0.0771 -0.1777 -0.2149
 3727TIP3   OH232595   6.345   4.062  12.252 -0.3448  0.2240  0.2256
 3727TIP3    H132596   6.431   4.072  12.211 -0.3735 -2.5432 -0.6636
 3727TIP3    H232597   6.365   4.033  12.341 -0.3235 -1.2306 -0.2336
 3728TIP3   OH232598   3.963   4.059  17.224  0.5683 -0.3862  0.2702
 3728TIP3    H132599   3.902   4.029  17.291 -0.8307  1.0113 -0.3661
 3728TIP3    H232600   4.049   4.056  17.268 -0.4583  1.6515  2.5218
 3729TIP3   OH232601   0.101   5.658  15.297  0.3753  0.0273 -0.5171
 3729TIP3    H132602   0.007   5.678  15.304  0.6030  1.0418 -0.1930
 3729TIP3    H232603   0.108   5.609  15.215 -0.6190 -1.2256  0.1342
 3730TIP3   OH232604   6.147   1.156   0.887 -0.3053  0.2894  0.0058
 3730TIP3    H132605   6.167   1.116   0.972 -0.4352  0.4927  0.1319
 3730TIP3    H232606   6.217   1.125   0.829 -1.3095 -1.4482 -0.3204
 3731TIP3   OH232607   2.874   4.949  14.267 -0.4435 -0.1694  0.3886
 3731TIP3    H132608   2.827   4.892  14.206 -0.7745  0.9590 -0.4301
 3731TIP3    H232609   2.952   4.899  14.291 -0.3895 -0.6946 -0.8410
 3732TIP3   OH232610   5.611   3.137  13.226 -0.3530 -0.0589 -0.5335
 3732TIP3    H132611   5.694   3.092  13.242  0.2853  1.6704  1.1783
 3732TIP3    H232612   5.559   3.122  13.305 -1.2893 -0.2387 -1.1616
 3733TIP3   OH232613   5.108   6.000   1.583  0.0976 -0.0231  0.0800
 3733TIP3    H132614   5.204   6.007   1.575  0.1488  1.3927  1.7532
 3733TIP3    H232615   5.094   5.962   1.669 -0.8851  1.3775  0.5518
 3734TIP3   OH232616   6.702   1.731  14.985 -0.0713 -0.4386  0.3392
 3734TIP3    H132617   6.714   1.636  14.990 -1.8928 -0.6825  0.2291
 3734TIP3    H232618   6.764   1.760  14.919 -0.1147 -1.6646 -0.2422
 3735TIP3   OH232619   6.205   5.168  10.314  0.0559 -0.2259  0.2230
 3735TIP3    H132620   6.169   5.237  10.370  2.1167  1.0401  0.0455
 3735TIP3    H232621   6.294   5.153  10.348  0.3571 -1.3345 -1.0245
 3736TIP3   OH232622   4.695   6.091  10.756  0.7016  0.8051 -0.2391
 3736TIP3    H132623   4.630   6.081  10.686 -0.1943 -1.0380  0.8049
 3736TIP3    H232624   4.703   6.185  10.770 -1.4238  1.0593 -0.6937
 3737TIP3   OH232625   4.702   2.900   5.230 -0.4262 -0.2353  0.1664
 3737TIP3    H132626   4.684   2.880   5.323 -0.9417  0.0542  0.1318
 3737TIP3    H232627   4.632   2.960   5.205 -1.3997 -1.7713 -0.9316
 3738TIP3   OH232628   5.627   4.811  13.635 -0.3071  0.9052  0.0710
 3738TIP3    H132629   5.609   4.717  13.647 -1.0866  1.1021  0.5072
 3738TIP3    H232630   5.609   4.850  13.721  3.2195  1.0072  0.8409
 3739TIP3   OH232631   5.380   4.040  10.335  0.2016  0.3711  0.2948
 3739TIP3    H132632   5.416   4.069  10.419  3.2799 -0.3092 -0.7265
 3739TIP3    H232633   5.363   4.120  10.286  0.9632  0.6827  0.5435
 3740TIP3   OH232634   6.592   4.831   4.866  0.0330  0.0576 -0.2064
 3740TIP3    H132635   6.529   4.807   4.934  0.8187  1.0784  0.8779
 3740TIP3    H232636   6.546   4.895   4.812 -0.0300  0.4678  0.3263
 3741TIP3   OH232637   2.669   2.254   3.181  0.5493 -0.2741  0.2213
 3741TIP3    H132638   2.689   2.249   3.088 -1.1263  0.4448 -0.2038
 3741TIP3    H232639   2.583   2.213   3.189  1.1757 -1.3718  1.6420
 3742TIP3   OH232640   1.121   2.490  11.574  0.2331 -0.0143  0.1550
 3742TIP3    H132641   1.150   2.568  11.621 -0.0572 -0.2021  0.6451
 3742TIP3    H232642   1.173   2.419  11.612  1.5040  0.1237 -1.2318
 3743TIP3   OH232643   4.364   2.731   3.545 -0.2801 -0.5968 -0.6005
 3743TIP3    H132644   4.430   2.733   3.475 -0.0367  1.6764 -0.3264
 3743TIP3    H232645   4.407   2.773   3.620 -1.8333  0.3974 -0.2468
 3744TIP3   OH232646   6.029   4.846  12.002 -0.0225 -0.1183  0.0064
 3744TIP3    H132647   6.040   4.876  12.092 -1.0114 -0.6316  0.3042
 3744TIP3    H232648   5.945   4.801  12.002 -0.1028  0.0132 -1.2106
 3745TIP3   OH232649   5.542   0.678   2.993  0.2504  0.5328 -0.5782
 3745TIP3    H132650   5.518   0.731   2.917  1.4766  1.5423 -0.2756
 3745TIP3    H232651   5.559   0.742   3.063 -1.2830 -0.3891  0.6940
 3746TIP3   OH232652   6.278   1.962   1.097  0.3169  0.2624  0.4792
 3746TIP3    H132653   6.311   1.891   1.042 -1.8879 -1.5011  1.3573
 3746TIP3    H232654   6.330   1.957   1.177  1.5000  0.9280 -0.2298
 3747TIP3   OH232655   5.897   5.601  11.059 -0.9418  0.0198  0.0184
 3747TIP3    H132656   5.887   5.556  11.142  0.8845 -1.9230 -0.7512
 3747TIP3    H232657   5.964   5.667  11.075  0.7891 -1.5966 -0.3201
 3748TIP3   OH232658   4.454   3.824  11.747 -0.1193  0.2246  0.5223
 3748TIP3    H132659   4.447   3.868  11.662 -1.6065 -0.0320  0.5012
 3748TIP3    H232660   4.527   3.868  11.790 -0.2047  1.2694 -0.3641
 3749TIP3   OH232661   4.419   4.931  15.382  0.5301  0.1867  0.3670
 3749TIP3    H132662   4.356   4.886  15.438  1.7491 -2.1156 -0.0737
 3749TIP3    H232663   4.429   4.874  15.306  0.8600  2.0171 -0.9976
 3750TIP3   OH232664   6.465   6.557   0.555 -0.2968 -0.0344  0.0983
 3750TIP3    H132665   6.520   6.635   0.547  0.7526 -0.5175  2.2554
 3750TIP3    H232666   6.388   6.587   0.604  0.6614 -0.5836  1.9876
 3751TIP3   OH232667   3.432   4.669  14.041 -0.3601  0.2940  0.5516
 3751TIP3    H132668   3.450   4.653  14.133  1.0345  0.3586  0.2994
 3751TIP3    H232669   3.444   4.763  14.029 -1.5953  0.4568  0.5234
 3752TIP3   OH232670   5.105   5.105  16.908 -0.0473  0.5087 -0.7724
 3752TIP3    H132671   5.153   5.023  16.921  0.2321  0.5935 -1.2491
 3752TIP3    H232672   5.052   5.089  16.830 -0.5545  0.5302 -0.4385
 3753TIP3   OH232673   1.131   0.709   5.709  0.6748  0.4682  0.1543
 3753TIP3    H132674   1.124   0.679   5.618 -1.3899  0.5203  0.2748
 3753TIP3    H232675   1.170   0.796   5.703  1.5020  0.0600 -0.5955
 3754TIP3   OH232676   1.277   0.381  15.703  0.5582 -0.3172 -0.1403
 3754TIP3    H132677   1.212   0.428  15.755 -1.4998 -0.2741 -2.6479
 3754TIP3    H232678   1.323   0.449  15.654  0.4321 -0.5947 -0.6423
 3755TIP3   OH232679   3.988   5.706  14.202 -0.9901  0.2197  0.2329
 3755TIP3    H132680   3.967   5.719  14.110 -1.5821  0.7814  0.4446
 3755TIP3    H232681   3.964   5.788  14.245  2.3641  1.2084  0.3781
 3756TIP3   OH232682   0.735   5.505  10.628 -0.2819  0.1299  0.3891
 3756TIP3    H132683   0.761   5.417  10.656 -0.6645  0.0251  0.4178
 3756TIP3    H232684   0.811   5.560  10.647  0.3674 -0.3936 -0.6177
 3757TIP3   OH232685   5.519   4.606   4.687 -0.3734 -0.2403  0.2168
 3757TIP3    H132686   5.610   4.625   4.666  0.0912 -3.2286 -0.6467
 3757TIP3    H232687   5.508   4.633   4.778  1.4607 -0.2004  0.4279
 3758TIP3   OH232688   5.466   5.598   4.588  0.4973 -0.4027  0.1296
 3758TIP3    H132689   5.375   5.574   4.571 -0.0454  0.7304  1.3339
 3758TIP3    H232690   5.509   5.589   4.503 -1.4991  2.3652 -1.2648
 3759TIP3   OH232691   2.261   0.013  12.840  0.1363 -0.2583 -0.2241
 3759TIP3    H132692   2.309  -0.053  12.889  2.6337  0.9229 -1.0194
 3759TIP3    H232693   2.293   0.004  12.750  2.1589  3.4407  0.0376
 3760TIP3   OH232694   2.855   0.755   4.948 -0.0210  0.0622  0.5123
 3760TIP3    H132695   2.835   0.833   4.999 -0.8267 -0.7401  1.4438
 3760TIP3    H232696   2.821   0.682   5.000  2.9961 -1.1472  0.8847
 3761TIP3   OH232697   5.752   5.287  16.900 -0.0518 -0.1560 -0.4692
 3761TIP3    H132698   5.718   5.290  16.811 -0.3216  0.4956 -0.3474
 3761TIP3    H232699   5.714   5.363  16.943 -0.1233 -0.6057  0.2805
 3762TIP3   OH232700   4.517   1.844   4.669  0.3414 -0.2517 -0.6031
 3762TIP3    H132701   4.470   1.803   4.742  0.1676  0.4144 -0.3324
 3762TIP3    H232702   4.585   1.896   4.711 -1.4081  2.2486 -0.7548
 3763TIP3   OH232703   4.646   1.753  13.170  0.1774 -0.5483  0.3606
 3763TIP3    H132704   4.643   1.667  13.128 -0.9661  1.9349 -5.1170
 3763TIP3    H232705   4.554   1.772  13.191  0.4435 -0.6892  1.6797
 3764TIP3   OH232706   3.385   3.953  12.203 -0.5110  0.0444  0.1934
 3764TIP3    H132707   3.478   3.975  12.212 -0.0458 -1.2312 -1.2181
 3764TIP3    H232708   3.372   3.945  12.108 -1.7161 -1.2545  0.4602
 3765TIP3   OH232709   5.942   2.155  15.534  0.1868 -0.0425 -0.5024
 3765TIP3    H132710   5.918   2.109  15.453 -1.5054  1.8610 -1.1313
 3765TIP3    H232711   5.865   2.209  15.554  1.7969  1.8735  0.6436
 3766TIP3   OH232712   4.017   1.372  12.822  0.1800 -0.0664 -0.1036
 3766TIP3    H132713   4.031   1.360  12.916 -0.9338 -2.7585 -0.2240
 3766TIP3    H232714   4.104   1.365  12.784  0.3769 -1.2932  0.5395
 3767TIP3   OH232715   1.853   0.377  16.705 -0.1047  0.1114  0.1137
 3767TIP3    H132716   1.928   0.318  16.708  0.5059  0.8542 -0.4414
 3767TIP3    H232717   1.779   0.320  16.683  0.1374 -0.7609  1.4513
 3768TIP3   OH232718   0.878   6.740  11.644  0.0043  0.0961 -0.0338
 3768TIP3    H132719   0.871   6.759  11.550 -1.3181 -1.1332 -0.2112
 3768TIP3    H232720   0.918   6.818  11.681  1.8689  0.0433 -1.8213
 3769TIP3   OH232721   5.420   1.495  15.545  0.4615  0.0116 -0.3516
 3769TIP3    H132722   5.514   1.511  15.543  0.3912  0.7899  1.1878
 3769TIP3    H232723   5.380   1.583  15.548 -0.2646 -0.3136 -0.1858
 3770TIP3   OH232724   3.199   6.069   4.562 -0.0754  0.2742  0.0643
 3770TIP3    H132725   3.288   6.075   4.528  0.1121  1.4371  0.7508
 3770TIP3    H232726   3.146   6.047   4.485  0.9537 -1.6480 -0.1216
 3771TIP3   OH232727   6.274   4.316   0.982  0.1808  0.0458  0.0204
 3771TIP3    H132728   6.310   4.227   0.986  1.4810  0.5258 -0.5530
 3771TIP3    H232729   6.351   4.372   0.970 -0.4649  1.4046  2.0705
 3772TIP3   OH232730   2.966   2.667   0.403  0.6297 -0.3863  0.3609
 3772TIP3    H132731   2.953   2.708   0.488  1.9342  1.2838 -0.2155
 3772TIP3    H232732   2.932   2.731   0.340  2.3360 -0.3216 -0.5233
 3773TIP3   OH232733   6.546   2.502  16.213 -0.0958 -0.3538  0.0939
 3773TIP3    H132734   6.552   2.541  16.300 -0.7394 -2.2041  0.9907
 3773TIP3    H232735   6.549   2.577  16.153 -0.7433  1.0219  1.7323
 3774TIP3   OH232736   4.994   2.578   4.381  0.8715  0.4806 -0.3876
 3774TIP3    H132737   4.944   2.523   4.442  1.1905 -1.1710 -1.5949
 3774TIP3    H232738   4.928   2.635   4.342  0.0812 -0.8672 -1.0886
 3775TIP3   OH232739   4.542   1.567   0.700 -0.5467  0.6474 -0.9027
 3775TIP3    H132740   4.489   1.605   0.771  1.3249 -0.7450  1.2832
 3775TIP3    H232741   4.506   1.480   0.687 -0.2898  0.5564 -1.0093
 3776TIP3   OH232742   6.220   6.443   4.014  0.3230  0.1676 -0.5918
 3776TIP3    H132743   6.249   6.362   4.057 -1.0465 -0.1969 -0.3375
 3776TIP3    H232744   6.183   6.415   3.931 -1.1720  0.4077 -0.0212
 3777TIP3   OH232745   4.372   5.034   0.780  0.5055 -0.1811 -0.0596
 3777TIP3    H132746   4.320   5.017   0.702 -0.9917  0.0678  0.8641
 3777TIP3    H232747   4.329   5.108   0.823  1.4960 -0.0950  0.8258
 3778TIP3   OH232748   5.110   1.108  14.898 -0.1116 -0.5156 -0.1422
 3778TIP3    H132749   5.042   1.145  14.955  1.4955  0.6082  1.0815
 3778TIP3    H232750   5.108   1.164  14.821 -0.2590 -0.1944  0.0900
 3779TIP3   OH232751   5.277   3.931   0.990 -0.7059  0.3129 -0.1289
 3779TIP3    H132752   5.203   3.960   0.937 -0.3581 -0.2355 -0.9365
 3779TIP3    H232753   5.295   4.003   1.049  0.4438  1.9560 -2.4018
 3780TIP3   OH232754   5.334   2.141  12.483  0.7196  0.1950  0.5488
 3780TIP3    H132755   5.359   2.155  12.574  3.2709 -0.1198 -0.0639
 3780TIP3    H232756   5.360   2.051  12.465  0.2687  0.2733 -0.5241
 3781TIP3   OH232757   0.437   3.807  15.883  0.3726  0.5281  0.3050
 3781TIP3    H132758   0.375   3.735  15.872  1.4510 -0.5882  1.3447
 3781TIP3    H232759   0.490   3.806  15.804  0.7189 -0.1764  0.5365
 3782TIP3   OH232760   5.322   3.034  13.973 -0.1933  0.1697 -0.1475
 3782TIP3    H132761   5.300   3.024  14.066 -1.7594  0.0473 -0.5259
 3782TIP3    H232762   5.289   2.955  13.932  2.3946 -0.7761 -0.5043
 3783TIP3   OH232763   3.507   4.747   0.117 -0.0336  0.0828  0.2290
 3783TIP3    H132764   3.556   4.773   0.040  0.3887  0.3477  0.5885
 3783TIP3    H232765   3.415   4.758   0.091  0.1191  1.2367  0.1304
 3784TIP3   OH232766   1.529   5.830  16.410 -0.3792 -0.2442  0.2110
 3784TIP3    H132767   1.514   5.737  16.426  0.2915 -0.3889  0.0303
 3784TIP3    H232768   1.482   5.875  16.480  0.9088 -0.7899  1.4231
 3785TIP3   OH232769   3.963   4.379  16.492  0.5929  0.6582  0.4685
 3785TIP3    H132770   4.052   4.352  16.516  1.4088  0.3964 -2.5443
 3785TIP3    H232771   3.906   4.327  16.549  2.3312 -0.7569  0.9875
 3786TIP3   OH232772   2.748   4.862   2.388  0.1095 -0.1804 -0.5972
 3786TIP3    H132773   2.663   4.871   2.431  0.3328  1.1880 -0.4453
 3786TIP3    H232774   2.741   4.779   2.341 -1.1203 -0.3461 -0.1518
 3787TIP3   OH232775   0.086   3.698  14.831 -0.1003 -0.4856  0.0696
 3787TIP3    H132776   0.009   3.712  14.885 -0.5827 -0.0037 -0.7310
 3787TIP3    H232777   0.151   3.760  14.864 -0.5239  0.0745 -0.1450
 3788TIP3   OH232778   5.447   0.001   4.960 -0.3430  0.1016  0.8742
 3788TIP3    H132779   5.482  -0.067   5.018  0.4770 -0.7993 -0.6319
 3788TIP3    H232780   5.524   0.052   4.934 -0.8353  1.0778  1.3182
 3789TIP3   OH232781   2.258   2.944   3.803  0.3219  0.3164  0.2140
 3789TIP3    H132782   2.349   2.933   3.775 -0.3392 -0.1644 -1.8219
 3789TIP3    H232783   2.235   3.033   3.777 -0.0850  0.1115 -0.1362
 3790TIP3   OH232784   5.262   4.964   4.924  0.6196 -0.9228 -0.4397
 3790TIP3    H132785   5.241   4.901   4.993  0.0645 -1.2648 -0.9127
 3790TIP3    H232786   5.358   4.968   4.924  0.6554 -1.7001 -0.3383
 3791TIP3   OH232787   2.097   2.029   0.423 -0.2694 -0.2592 -0.4258
 3791TIP3    H132788   2.168   2.061   0.478 -0.0732 -1.2578 -0.0856
 3791TIP3    H232789   2.031   2.099   0.425 -0.4897 -0.5067  1.4834
 3792TIP3   OH232790   2.801   1.625   2.308 -0.5164  0.0581 -0.3139
 3792TIP3    H132791   2.835   1.611   2.396  1.0961  0.4572 -0.8478
 3792TIP3    H232792   2.797   1.720   2.298 -2.1999  0.0290 -0.1302
 3793TIP3   OH232793   6.223   0.164  16.828  0.5874  0.3137 -0.9337
 3793TIP3    H132794   6.156   0.185  16.893  1.2126 -1.3260  0.2942
 3793TIP3    H232795   6.179   0.105  16.766  0.2520  1.1188 -1.4607
 3794TIP3   OH232796   1.171   0.224   1.413 -0.6934  0.2673  0.1778
 3794TIP3    H132797   1.139   0.159   1.351  0.8673  1.9206 -2.4650
 3794TIP3    H232798   1.260   0.197   1.434 -0.3086  1.1138 -0.3353
 3795TIP3   OH232799   6.297   2.578   4.840 -0.0501 -0.1896  0.2530
 3795TIP3    H132800   6.217   2.606   4.886 -0.4379  0.3469 -0.7341
 3795TIP3    H232801   6.278   2.594   4.748  1.0909 -0.3654 -0.0130
 3796TIP3   OH232802   0.225   1.695   0.886 -0.5313 -0.7425  0.4077
 3796TIP3    H132803   0.147   1.650   0.917 -1.8358  1.4187  0.3597
 3796TIP3    H232804   0.238   1.767   0.948  0.7240 -0.3673 -0.2673
 3797TIP3   OH232805   2.956   2.245  14.945 -0.4515  0.1990 -0.8529
 3797TIP3    H132806   2.971   2.155  14.973 -0.8602 -0.3190 -2.2823
 3797TIP3    H232807   2.979   2.298  15.021 -0.5983 -1.1342  0.1281
 3798TIP3   OH232808   3.817   2.086  13.977 -0.3841  0.4565 -0.0243
 3798TIP3    H132809   3.873   2.155  14.013 -1.3101  1.5167 -0.5650
 3798TIP3    H232810   3.761   2.132  13.914  0.7022 -1.2434 -2.2799
 3799TIP3   OH232811   4.148   1.997  13.398 -0.0384 -0.0027  0.2287
 3799TIP3    H132812   4.238   1.984  13.366  0.4925 -0.5644  1.9193
 3799TIP3    H232813   4.147   2.086  13.433  0.0405 -0.2155  0.7778
 3800TIP3   OH232814   2.189   4.672   6.576  0.8138  0.2545  0.2393
 3800TIP3    H132815   2.283   4.668   6.561  0.5409  0.0552 -1.5048
 3800TIP3    H232816   2.159   4.581   6.569  0.4997  0.3055  0.8730
 3801TIP3   OH232817   2.080   3.289  12.375  0.0010 -0.3972 -0.3784
 3801TIP3    H132818   2.077   3.384  12.373  0.7283 -0.3732 -0.5146
 3801TIP3    H232819   1.990   3.261  12.360 -0.6056  0.2905  1.7793
 3802TIP3   OH232820   1.095   1.269   2.059 -0.0555  0.1731  0.0376
 3802TIP3    H132821   1.063   1.319   1.984 -1.1384  0.1541  0.4777
 3802TIP3    H232822   1.121   1.185   2.022  1.4034  0.9149 -0.6416
 3803TIP3   OH232823   0.170   6.208  12.902 -0.0208 -0.1303 -0.2237
 3803TIP3    H132824   0.205   6.123  12.929  0.2960 -0.3120 -1.1790
 3803TIP3    H232825   0.109   6.187  12.831  0.1413  0.4486 -0.5382
 3804TIP3   OH232826   1.058   4.973  10.687  0.3395  0.1470  0.3121
 3804TIP3    H132827   1.115   4.982  10.611  0.1563 -1.4677 -0.0209
 3804TIP3    H232828   1.013   5.057  10.692  1.9579  1.0559 -0.0514
 3805TIP3   OH232829   4.597   4.529  15.714 -0.0691 -0.2804 -0.5813
 3805TIP3    H132830   4.690   4.507  15.714 -0.0393 -0.1508  0.4791
 3805TIP3    H232831   4.558   4.466  15.653  0.5778 -0.8723 -0.3943
 3806TIP3   OH232832   2.236   5.529   0.104  0.2939 -0.1303  0.1697
 3806TIP3    H132833   2.186   5.464   0.056 -1.3713  0.3672  1.2049
 3806TIP3    H232834   2.326   5.496   0.102 -0.2079 -1.4790 -0.9427
 3807TIP3   OH232835   3.264   5.056   6.378  0.1828 -0.6685 -0.1689
 3807TIP3    H132836   3.318   5.126   6.415 -0.6720  1.3966 -2.6376
 3807TIP3    H232837   3.315   4.976   6.391  1.8566  0.6113  1.3996
 3808TIP3   OH232838   5.430   2.514   4.332  0.1594 -0.5784  0.2438
 3808TIP3    H132839   5.513   2.553   4.302  0.0398 -0.4524  0.0748
 3808TIP3    H232840   5.415   2.553   4.418 -0.5653  0.6548 -0.4291
 3809TIP3   OH232841   4.126   5.138  16.380  0.2715  0.4411  0.6745
 3809TIP3    H132842   4.062   5.166  16.315  2.1638  1.2460 -0.8634
 3809TIP3    H232843   4.134   5.044  16.366  0.4031  0.5526 -0.0049
 3810TIP3   OH232844   4.100   4.029   2.034  0.0026 -0.1365  0.4097
 3810TIP3    H132845   4.083   4.066   2.120  0.0517 -0.0190  0.3683
 3810TIP3    H232846   4.041   3.953   2.028  1.3504 -1.2907  1.3236
 3811TIP3   OH232847   4.959   2.739   6.712 -0.5092 -0.3603 -0.4715
 3811TIP3    H132848   4.978   2.828   6.682 -3.1282  1.5615  3.1619
 3811TIP3    H232849   4.864   2.732   6.704 -0.0638 -4.0222 -3.6020
 3812TIP3   OH232850   3.228   1.814   1.141 -0.1553  0.1650  1.2672
 3812TIP3    H132851   3.304   1.854   1.099  0.5413 -0.6110  1.7547
 3812TIP3    H232852   3.165   1.801   1.071  0.7299 -0.4830  0.5793
 3813TIP3   OH232853   1.982   6.578   0.606 -0.4055 -0.4882  0.1015
 3813TIP3    H132854   2.040   6.654   0.620 -0.7111 -0.0934 -0.7342
 3813TIP3    H232855   1.900   6.602   0.649 -0.6091 -0.2074 -0.4412
 3814TIP3   OH232856   0.807   1.990   6.178  0.3298 -0.2326  0.3610
 3814TIP3    H132857   0.838   1.911   6.222  1.2047 -0.2811 -0.3188
 3814TIP3    H232858   0.874   2.056   6.197 -0.8509  0.5928  1.6694
 3815TIP3   OH232859   3.808   0.096   5.109 -0.1698  0.3345 -0.3552
 3815TIP3    H132860   3.758   0.175   5.089  0.6444  1.4565  1.8978
 3815TIP3    H232861   3.785   0.076   5.200  1.9040 -0.2888  0.0549
 3816TIP3   OH232862   1.710   0.082   1.115 -0.4352  0.2160 -0.4895
 3816TIP3    H132863   1.710  -0.009   1.084  0.7561  0.4553 -1.2125
 3816TIP3    H232864   1.766   0.129   1.053  0.3214  1.1141  0.8455
 3817TIP3   OH232865   0.723   1.233   1.885  0.2120 -0.0085  0.1147
 3817TIP3    H132866   0.757   1.151   1.922  2.1500 -0.3364 -2.2827
 3817TIP3    H232867   0.641   1.208   1.842  1.3009 -0.9210 -1.4721
 3818TIP3   OH232868   4.391   3.715  16.844  0.3394  0.1503  0.0877
 3818TIP3    H132869   4.474   3.707  16.891  0.0609 -0.5705  0.4733
 3818TIP3    H232870   4.326   3.680  16.905 -0.5167  2.4545  0.5567
 3819TIP3   OH232871   1.180   5.922   2.882 -0.0923 -0.0615  0.5426
 3819TIP3    H132872   1.215   5.936   2.970  0.0482 -0.1038  0.4939
 3819TIP3    H232873   1.086   5.910   2.895  0.1550 -1.7346  0.8542
 3820TIP3   OH232874   2.524   6.273  11.142 -0.2439  0.3483  0.8497
 3820TIP3    H132875   2.549   6.244  11.230 -0.4813 -0.0757  0.7790
 3820TIP3    H232876   2.595   6.330  11.115  0.8843 -1.2152  0.4659
 3821TIP3   OH232877   5.996   0.457  12.542 -0.6931  0.1814  0.5083
 3821TIP3    H132878   5.991   0.365  12.515  0.9202 -0.0419  0.9332
 3821TIP3    H232879   5.978   0.456  12.636  2.7431 -0.1438  1.2184
 3822TIP3   OH232880   4.882   0.504  11.931  0.3515 -0.2863  0.0461
 3822TIP3    H132881   4.804   0.504  11.986  0.4008 -1.3371  0.1211
 3822TIP3    H232882   4.924   0.587  11.950 -0.6482  0.2054  0.1506
 3823TIP3   OH232883   1.857   5.506  16.267 -0.2542  0.0398 -0.6318
 3823TIP3    H132884   1.931   5.462  16.226  2.1936  1.8733  1.6071
 3823TIP3    H232885   1.827   5.445  16.335  1.2164  0.5169  0.4831
 3824TIP3   OH232886   4.465   2.431   0.534 -0.2071  0.3940  0.4905
 3824TIP3    H132887   4.391   2.445   0.593  0.2272  0.5878  0.9948
 3824TIP3    H232888   4.540   2.467   0.582  0.0007  1.3775 -0.5559
 3825TIP3   OH232889   1.492   6.492   3.618 -0.8179 -0.4561  0.0260
 3825TIP3    H132890   1.400   6.471   3.630 -1.6272  2.3935 -0.9252
 3825TIP3    H232891   1.515   6.455   3.533 -1.2993 -0.4931 -0.0855
 3826TIP3   OH232892   4.425   6.043   0.833  0.2531  0.5043 -0.1445
 3826TIP3    H132893   4.356   6.028   0.897 -1.2342  0.7589 -1.6435
 3826TIP3    H232894   4.476   6.115   0.869  0.4464 -0.4563  1.5371
 3827TIP3   OH232895   4.106   5.977   3.747 -1.2344  0.4936 -0.0728
 3827TIP3    H132896   4.142   5.913   3.808 -0.0586 -0.1391 -1.4047
 3827TIP3    H232897   4.031   6.015   3.794  0.1916  0.7074  2.1290
 3828TIP3   OH232898   0.459   5.039  12.958 -0.0573  0.4554 -0.0694
 3828TIP3    H132899   0.488   5.103  13.023  0.3038 -0.5936  0.8351
 3828TIP3    H232900   0.536   4.985  12.942 -0.3811  0.1839 -0.7429
 3829TIP3   OH232901   5.916   4.038  16.490  0.1992  0.1322  0.1471
 3829TIP3    H132902   5.941   4.006  16.403 -1.2393  1.3655 -0.7489
 3829TIP3    H232903   5.821   4.049  16.485  0.2816  1.6000  1.4120
 3830TIP3   OH232904   0.568   2.995   5.936 -0.0679  0.0940  0.1826
 3830TIP3    H132905   0.553   2.905   5.907  1.0763 -0.1810  0.4125
 3830TIP3    H232906   0.605   3.039   5.860  0.1261  0.1609  0.3155
 3831TIP3   OH232907   3.857   0.032   1.331  0.1102 -0.2778 -0.6548
 3831TIP3    H132908   3.782   0.090   1.320  0.0433 -0.1850  0.2623
 3831TIP3    H232909   3.932   0.086   1.308  0.2661  0.9332  2.5374
 3832TIP3   OH232910   6.401   1.527   2.348  0.0649 -0.0500  0.8725
 3832TIP3    H132911   6.399   1.568   2.262  0.6103 -1.2159  0.3017
 3832TIP3    H232912   6.494   1.512   2.365 -0.0853 -0.4388  1.3648
 3833TIP3   OH232913   6.048   0.270  11.992  0.4376 -0.0464  0.4384
 3833TIP3    H132914   6.029   0.189  11.946 -0.6722  0.0042  0.7935
 3833TIP3    H232915   6.080   0.329  11.925  1.2966 -0.7935  0.1849
 3834TIP3   OH232916   2.146   3.200   3.715 -0.0735  0.1928 -0.3649
 3834TIP3    H132917   2.072   3.173   3.661  1.1865 -1.6717 -1.1935
 3834TIP3    H232918   2.181   3.277   3.670 -0.9291  0.5214 -0.4789
 3835TIP3   OH232919   3.834   6.724  15.058  0.1342  0.1620  0.2549
 3835TIP3    H132920   3.815   6.817  15.060 -1.0145 -0.0561  0.1416
 3835TIP3    H232921   3.912   6.715  15.003  2.0151  1.3343  2.6578
 3836TIP3   OH232922   6.330   4.239   4.709 -0.2217 -0.0242 -0.2008
 3836TIP3    H132923   6.320   4.160   4.762 -1.0928  0.2735  0.0863
 3836TIP3    H232924   6.410   4.280   4.742  0.2992 -0.8298 -0.4251
 3837TIP3   OH232925   2.568   0.248   1.159  0.1194 -0.8621  0.1628
 3837TIP3    H132926   2.478   0.265   1.186  0.3951 -0.8826  1.0934
 3837TIP3    H232927   2.616   0.327   1.183  0.3304 -0.8073 -0.4271
 3838TIP3   OH232928   1.012   2.368   1.209 -0.8671  0.6107  0.4386
 3838TIP3    H132929   0.920   2.382   1.186 -0.3568 -0.0682 -2.1695
 3838TIP3    H232930   1.058   2.445   1.174  0.2838 -1.6657 -3.4020
 3839TIP3   OH232931   3.342   0.082  16.368 -0.1187 -0.1156 -0.4542
 3839TIP3    H132932   3.397   0.126  16.432  0.4185 -0.4360 -0.6866
 3839TIP3    H232933   3.404   0.041  16.308 -0.6143  0.5419 -1.4288
 3840TIP3   OH232934   0.874   0.054  12.467 -0.2012 -0.4153  0.2152
 3840TIP3    H132935   0.969   0.049  12.456  0.0358  0.0975  1.8585
 3840TIP3    H232936   0.839   0.039  12.379  1.4093 -0.2213 -0.4836
 3841TIP3   OH232937   2.329   2.925   2.668 -0.2757  0.1303 -0.3333
 3841TIP3    H132938   2.262   2.939   2.602 -0.5865  3.2283  0.6068
 3841TIP3    H232939   2.282   2.919   2.751  0.3349 -1.1389 -0.0583
 3842TIP3   OH232940   4.772   0.744   2.591 -0.5154 -0.3075  0.2359
 3842TIP3    H132941   4.709   0.816   2.585 -1.9011 -1.5051  0.2850
 3842TIP3    H232942   4.846   0.773   2.538 -2.1469  0.0311 -1.9232
 3843TIP3   OH232943   4.394   1.068   3.186  0.4228 -0.2629 -0.3468
 3843TIP3    H132944   4.422   1.126   3.115 -0.4125 -0.9452 -1.2482
 3843TIP3    H232945   4.405   0.979   3.150 -0.8096 -0.5935  0.0564
 3844TIP3   OH232946   6.050   2.038  13.734  0.4014  0.3918 -0.1578
 3844TIP3    H132947   5.980   2.104  13.733 -0.7145 -0.7786 -1.6738
 3844TIP3    H232948   6.012   1.962  13.691  0.9882 -2.0089  3.4052
 3845TIP3   OH232949   5.521   4.506   1.408 -0.1442  0.4939 -0.3735
 3845TIP3    H132950   5.512   4.491   1.314 -0.1091  1.5938 -0.5537
 3845TIP3    H232951   5.433   4.494   1.443 -0.2156  0.3897 -0.5895
 3846TIP3   OH232952   5.845   0.564   1.137  0.3138  0.2013 -0.5241
 3846TIP3    H132953   5.824   0.657   1.126 -1.5264 -0.1302 -0.0507
 3846TIP3    H232954   5.849   0.551   1.232  0.4489 -0.2270 -0.5871
 3847TIP3   OH232955   4.087   1.765   0.361 -0.0194  0.1640 -0.1314
 3847TIP3    H132956   4.030   1.727   0.427 -1.1643  0.3391 -1.0216
 3847TIP3    H232957   4.132   1.836   0.407 -1.1599  0.5903  0.3299
 3848TIP3   OH232958   6.737   3.332  11.598 -0.1054 -0.4728  0.5006
 3848TIP3    H132959   6.697   3.414  11.568  0.2655 -0.3399  0.3603
 3848TIP3    H232960   6.666   3.285  11.641 -0.1220  0.2779  1.2930
 3849TIP3   OH232961   1.631   2.550  15.784 -0.1742 -0.3244  0.1767
 3849TIP3    H132962   1.569   2.483  15.757 -1.3153  0.4227  0.8935
 3849TIP3    H232963   1.681   2.509  15.855 -0.0239 -0.8403 -0.2273
 3850TIP3   OH232964   3.361   6.477   0.148  0.2467 -0.3520 -0.0501
 3850TIP3    H132965   3.396   6.496   0.060  1.2570 -1.6264  0.0541
 3850TIP3    H232966   3.267   6.465   0.135  0.3149 -0.0109 -0.8762
 3851TIP3   OH232967   3.638   1.852   3.589 -0.3224  0.0276  0.6054
 3851TIP3    H132968   3.643   1.932   3.536  0.6923  1.4960  2.8266
 3851TIP3    H232969   3.728   1.838   3.619 -1.1053  0.0241  3.0443
 3852TIP3   OH232970   5.116   4.258  15.185 -0.0948 -0.4229 -0.4657
 3852TIP3    H132971   5.082   4.180  15.142  1.1840 -1.2943  0.0804
 3852TIP3    H232972   5.123   4.233  15.277  3.0150 -0.6588 -0.7001
 3853TIP3   OH232973   4.165   3.609  14.859 -0.1025 -0.1098 -0.5888
 3853TIP3    H132974   4.185   3.664  14.782 -0.3597 -1.5208 -1.6890
 3853TIP3    H232975   4.072   3.590  14.850 -0.4537  0.9053  0.8704
 3854TIP3   OH232976   2.650   2.187  15.904 -0.2457  0.1371  0.1954
 3854TIP3    H132977   2.637   2.093  15.897 -0.7499  0.3486 -2.7575
 3854TIP3    H232978   2.564   2.225  15.885  0.4330  1.2107 -0.8307
 3855TIP3   OH232979   5.120   0.361   3.300 -0.2841  0.6470  0.1958
 3855TIP3    H132980   5.141   0.284   3.352  0.0685 -0.1987 -1.1516
 3855TIP3    H232981   5.039   0.395   3.337 -0.5188 -0.4587  0.6972
 3856TIP3   OH232982   5.419   2.858  12.267 -0.2740  0.4725 -0.2954
 3856TIP3    H132983   5.362   2.843  12.342 -0.6750  0.7974 -0.5346
 3856TIP3    H232984   5.380   2.932  12.221  0.3389  0.6935 -0.4621
 3857TIP3   OH232985   1.824   4.288   5.629 -0.1746 -0.3964 -0.2051
 3857TIP3    H132986   1.887   4.233   5.583  0.0171 -1.7855  1.6739
 3857TIP3    H232987   1.866   4.310   5.712 -1.4495  0.1338  0.3263
 3858TIP3   OH232988   5.267   0.307   3.760  0.3981 -0.7912  0.2523
 3858TIP3    H132989   5.212   0.292   3.837  0.7185 -0.7186  0.4943
 3858TIP3    H232990   5.331   0.237   3.762  2.1171  0.7759  1.5777
 3859TIP3   OH232991   0.614   4.322  15.873  0.2291  0.2913 -0.2209
 3859TIP3    H132992   0.582   4.399  15.920  0.7991  1.6285 -1.9443
 3859TIP3    H232993   0.637   4.260  15.941 -0.7173  1.4696  1.1962
 3860TIP3   OH232994   1.129   0.104   0.252  0.2322 -0.2311 -0.2225
 3860TIP3    H132995   1.088   0.168   0.195 -0.0861  0.9035  1.2538
 3860TIP3    H232996   1.057   0.046   0.278  0.2509 -0.3543 -0.4436
 3861TIP3   OH232997   3.004   4.376   1.418 -0.3361  0.0401 -0.3235
 3861TIP3    H132998   3.085   4.391   1.370  0.5673  1.8276  1.7002
 3861TIP3    H232999   3.032   4.340   1.502 -1.6824  0.1650  0.1957
 3862TIP3   OH233000   3.766   4.866  16.756 -0.9945 -0.8063  0.1163
 3862TIP3    H133001   3.763   4.854  16.851  0.6658 -2.1990  0.0133
 3862TIP3    H233002   3.846   4.917  16.741 -2.0689  0.7637 -0.4273
 3863TIP3   OH233003   0.178   3.117   4.242  1.0304  0.2344  0.3307
 3863TIP3    H133004   0.112   3.136   4.309  0.1263  1.2871 -0.8456
 3863TIP3    H233005   0.163   3.026   4.219  1.1266 -0.0385  1.3073
 3864TIP3   OH233006   5.555   0.530  11.031  0.9373 -0.5164  0.1845
 3864TIP3    H133007   5.489   0.558  11.094 -1.6944 -2.8742 -1.3927
 3864TIP3    H233008   5.532   0.575  10.950  1.7090 -0.7885 -0.1916
 3865TIP3   OH233009   4.304   6.135  11.324 -0.1839  0.1829  0.1232
 3865TIP3    H133010   4.379   6.105  11.274 -0.7906  1.1144 -1.4041
 3865TIP3    H233011   4.287   6.065  11.387  1.4142 -0.4142 -0.0832
 3866TIP3   OH233012   3.819   4.069   3.167  0.4265  0.6293  0.2060
 3866TIP3    H133013   3.880   4.128   3.212  0.7386  0.5864 -0.1473
 3866TIP3    H233014   3.737   4.117   3.164  0.3510  0.5512  0.9864
 3867TIP3   OH233015   4.752   4.128   4.628 -0.1789 -0.1871  0.4714
 3867TIP3    H133016   4.712   4.055   4.674 -1.7023  0.0501 -0.4647
 3867TIP3    H233017   4.681   4.192   4.616  0.8460  0.9353  0.2375
 3868TIP3   OH233018   5.895   2.333  17.101 -0.0580 -0.1286  0.3266
 3868TIP3    H133019   5.900   2.273  17.026  0.0498 -0.4670  0.6014
 3868TIP3    H233020   5.838   2.404  17.072  1.8866  0.9720 -0.9196
 3869TIP3   OH233021   5.651   1.796   5.602 -0.2028  0.0457 -0.5820
 3869TIP3    H133022   5.654   1.876   5.550  0.0798 -0.2847 -1.0810
 3869TIP3    H233023   5.675   1.727   5.541  0.4146 -0.3152  0.0560
 3870TIP3   OH233024   6.124   2.117  15.710 -0.0260 -0.0305 -0.2875
 3870TIP3    H133025   6.068   2.149  15.640  0.9908  1.4928 -0.4105
 3870TIP3    H233026   6.094   2.163  15.789 -0.6825 -1.1956  0.1670
 3871TIP3   OH233027   1.402   1.662  11.001  0.5360  0.1112 -0.2200
 3871TIP3    H133028   1.463   1.608  10.951  1.1236 -0.1904  0.8254
 3871TIP3    H233029   1.337   1.690  10.936  1.7222  0.3702 -1.3140
 3872TIP3   OH233030   2.944   6.219  10.983  0.6384 -0.3918  0.3020
 3872TIP3    H133031   2.906   6.141  10.943  0.3270 -0.3447  0.5053
 3872TIP3    H233032   3.027   6.231  10.937  0.5220 -0.6343  0.0250
 3873TIP3   OH233033   4.100   4.807  14.292  0.2933 -0.2947  0.1631
 3873TIP3    H133034   4.139   4.725  14.323 -0.9244  0.0779  2.7785
 3873TIP3    H233035   4.060   4.784  14.208  1.4154 -1.9549  0.0490
 3874TIP3   OH233036   3.648   2.208  16.684 -0.1489  0.0960 -0.2823
 3874TIP3    H133037   3.555   2.205  16.707 -0.3054  1.2975 -0.7536
 3874TIP3    H233038   3.651   2.179  16.593  0.1286 -1.5134  0.2155
 3875TIP3   OH233039   0.744   5.315   3.074  0.0526 -0.9460 -0.1035
 3875TIP3    H133040   0.764   5.345   2.986 -0.8574 -1.2128 -0.4046
 3875TIP3    H233041   0.665   5.263   3.065 -1.1429  0.5635  1.1386
 3876TIP3   OH233042   3.224   1.891   3.620 -0.1122  0.3413 -0.2594
 3876TIP3    H133043   3.302   1.879   3.675 -0.2387  1.4464  0.1894
 3876TIP3    H233044   3.152   1.861   3.675 -0.0005 -0.7550 -0.7039
 3877TIP3   OH233045   2.297   5.574  14.794 -0.1917 -0.9169  0.0120
 3877TIP3    H133046   2.326   5.482  14.796  0.9800 -0.6085 -1.5879
 3877TIP3    H233047   2.293   5.596  14.701 -0.3292  0.6964  0.3818
 3878TIP3   OH233048   3.989   6.611  15.800 -0.6281  0.8025  0.1208
 3878TIP3    H133049   3.918   6.643  15.856 -1.5104 -0.5093 -0.2208
 3878TIP3    H233050   4.035   6.690  15.773 -0.8876  1.5437  1.7602
 3879TIP3   OH233051   4.266   3.985  14.438  0.3752  0.9685  0.0413
 3879TIP3    H133052   4.211   3.964  14.514  0.7268  1.6750  0.5015
 3879TIP3    H233053   4.204   4.006  14.369  0.0493  2.3590  0.7328
 3880TIP3   OH233054   0.413   3.077   5.609  0.8318 -0.3029  0.0163
 3880TIP3    H133055   0.506   3.068   5.630  0.6458 -0.9650  0.5847
 3880TIP3    H233056   0.370   3.012   5.664  0.3469 -2.3030 -2.5762
 3881TIP3   OH233057   4.322   1.810   0.200 -0.0118 -0.0220  0.5026
 3881TIP3    H133058   4.400   1.816   0.255  1.0326 -2.8871 -0.6009
 3881TIP3    H233059   4.254   1.777   0.259 -0.0515  1.1605  1.1323
 3882TIP3   OH233060   0.625   2.175  17.199 -0.1248 -0.0351  0.0605
 3882TIP3    H133061   0.578   2.203  17.121 -0.0502  0.9531  0.3580
 3882TIP3    H233062   0.585   2.091  17.222 -0.5316 -0.0578 -0.7112
 3883TIP3   OH233063   2.268   3.755   2.782  0.1290 -0.3907  0.3589
 3883TIP3    H133064   2.176   3.729   2.776 -0.0814  0.1445  1.2798
 3883TIP3    H233065   2.267   3.850   2.780  0.5072 -0.3166  2.2246
 3884TIP3   OH233066   0.478   0.613  13.446 -0.5470  0.4358  0.4636
 3884TIP3    H133067   0.412   0.581  13.385  0.8536 -0.2082 -0.7465
 3884TIP3    H233068   0.486   0.707  13.426 -1.0606  0.5061  0.5914
 3885TIP3   OH233069   5.764   0.592  11.191  0.1128  0.5480 -0.8880
 3885TIP3    H133070   5.773   0.507  11.232 -0.8551  0.8039 -0.1279
 3885TIP3    H233071   5.691   0.582  11.129 -2.4083  1.7572  1.7667
 3886TIP3   OH233072   3.137   1.304  14.750  0.3814  0.5213 -0.3929
 3886TIP3    H133073   3.231   1.311  14.766  0.1956  0.4586  0.7474
 3886TIP3    H233074   3.126   1.218  14.708  0.8383  0.5842 -0.6464
 3887TIP3   OH233075   0.231   5.456   3.726  0.0752  0.0856 -0.0139
 3887TIP3    H133076   0.165   5.389   3.709  0.8618 -0.6594 -0.2037
 3887TIP3    H233077   0.236   5.462   3.821  2.2823 -2.4839  0.1116
 3888TIP3   OH233078   3.920   3.911   0.993  0.8400  0.6980  0.0578
 3888TIP3    H133079   3.868   3.955   1.060 -1.6384  0.1051 -1.4222
 3888TIP3    H233080   3.915   3.968   0.916  1.3799  0.0471 -0.4723
 3889TIP3   OH233081   4.399   3.263   4.909  0.1677 -0.0634  0.3374
 3889TIP3    H133082   4.398   3.197   4.978  1.4411 -0.9734 -0.4938
 3889TIP3    H233083   4.339   3.229   4.843  0.2367 -0.0183  0.2518
 3890TIP3   OH233084   6.135   1.921   1.946 -0.5970  0.2658  0.1371
 3890TIP3    H133085   6.187   1.880   1.877 -0.4484  1.5038 -0.5035
 3890TIP3    H233086   6.193   1.923   2.022  0.3466  1.7090 -0.5922
 3891TIP3   OH233087   6.242   4.006   4.815 -0.1128  0.6647 -0.1205
 3891TIP3    H133088   6.191   3.977   4.739  0.4979 -1.1557  0.1177
 3891TIP3    H233089   6.244   3.929   4.872  0.8097  1.4965  0.9867
 3892TIP3   OH233090   5.615   5.398  15.976 -0.4121 -0.4119  0.3789
 3892TIP3    H133091   5.651   5.327  16.029 -2.5782 -2.5748 -0.9503
 3892TIP3    H233092   5.520   5.392  15.989 -0.6872  1.7867 -0.3637
 3893TIP3   OH233093   3.138   3.353   1.589  0.4946  0.8406  0.4782
 3893TIP3    H133094   3.161   3.294   1.660 -0.4302  0.6211  0.5966
 3893TIP3    H233095   3.213   3.412   1.581 -0.1714  2.0850  2.9218
 3894TIP3   OH233096   5.162   4.674  11.652  0.2221  0.4635 -0.8138
 3894TIP3    H133097   5.175   4.754  11.702 -0.6901 -1.0972  2.0364
 3894TIP3    H233098   5.141   4.608  11.718  3.3067 -2.6765 -2.7862
 3895TIP3   OH233099   6.672   1.322   0.519  0.1302  0.1974 -0.5835
 3895TIP3    H133100   6.765   1.324   0.539 -0.2446  0.4839  1.2404
 3895TIP3    H233101   6.649   1.412   0.499 -0.0461  0.3920  0.4552
 3896TIP3   OH233102   0.597   3.704  11.528 -0.5188  0.1156  0.3376
 3896TIP3    H133103   0.672   3.763  11.539  0.1334 -0.3732 -1.2950
 3896TIP3    H233104   0.571   3.682  11.618  1.5969 -0.0612  0.9505
 3897TIP3   OH233105   2.555   1.304  15.637  0.3097 -0.1869 -0.5127
 3897TIP3    H133106   2.545   1.242  15.565  0.5832  0.9887 -1.5903
 3897TIP3    H233107   2.641   1.344  15.622 -0.1992  1.0138 -0.2980
 3898TIP3   OH233108   3.179   2.096  11.868 -0.7117  0.2593  0.0818
 3898TIP3    H133109   3.126   2.078  11.791 -0.7200  1.2916 -0.1603
 3898TIP3    H233110   3.193   2.191  11.866  1.9900 -0.1153 -0.4230
 3899TIP3   OH233111   0.415   0.814   1.714  0.2288 -0.2155  0.2011
 3899TIP3    H133112   0.341   0.762   1.744  0.3297 -1.0076 -0.9172
 3899TIP3    H233113   0.438   0.777   1.629  2.0255 -0.1162  0.6221
 3900TIP3   OH233114   2.179   1.606  14.281  0.3970 -0.0119 -0.4680
 3900TIP3    H133115   2.117   1.617  14.209  1.1228 -0.0468 -1.1130
 3900TIP3    H233116   2.265   1.620  14.240  0.7792  0.6218  0.5257
 3901TIP3   OH233117   5.014   5.662   5.442  0.0882 -0.4587  0.3305
 3901TIP3    H133118   5.065   5.653   5.361  0.1306 -1.1132  0.4247
 3901TIP3    H233119   5.062   5.609   5.506 -0.8176 -1.2615  0.3677
 3902TIP3   OH233120   2.987   1.254   0.487  0.1978  0.0984 -0.1639
 3902TIP3    H133121   3.055   1.209   0.536 -1.2961 -2.7871 -0.6444
 3902TIP3    H233122   2.947   1.314   0.551 -1.7296 -3.5951  2.2760
 3903TIP3   OH233123   6.051   3.469   2.880  0.3191  0.0601 -0.3664
 3903TIP3    H133124   6.031   3.560   2.861  0.2614  0.1413  0.0760
 3903TIP3    H233125   5.995   3.447   2.954  0.3567 -0.3250 -0.4490
 3904TIP3   OH233126   4.620   5.129  14.924  0.9028 -0.4704 -0.2405
 3904TIP3    H133127   4.610   5.148  14.831  1.3130  0.0845 -0.1693
 3904TIP3    H233128   4.604   5.035  14.931 -0.8083 -0.2337 -0.6337
 3905TIP3   OH233129   4.159   6.075   2.390  0.4907 -0.5724 -0.4813
 3905TIP3    H133130   4.068   6.107   2.388 -0.6829 -3.7526 -0.0604
 3905TIP3    H233131   4.171   6.042   2.479  1.9108 -0.6875 -0.7037
 3906TIP3   OH233132   2.929   5.954   0.087 -0.0900 -0.6222 -0.4387
 3906TIP3    H133133   2.986   5.900   0.142 -2.0199 -1.6213  0.6080
 3906TIP3    H233134   2.911   5.899   0.011 -1.5004 -1.1999  0.3050
 3907TIP3   OH233135   5.571   2.911   1.137 -0.4857  0.2012 -0.4827
 3907TIP3    H133136   5.539   2.830   1.097  0.5436 -0.7758  0.5781
 3907TIP3    H233137   5.643   2.939   1.080  0.6784 -0.9341  0.3742
 3908TIP3   OH233138   3.817   1.085   4.119 -0.0021  0.0808 -0.5400
 3908TIP3    H133139   3.807   0.997   4.156 -2.0477 -0.2309 -1.7365
 3908TIP3    H233140   3.730   1.125   4.130  0.0561  0.8679 -2.6744
 3909TIP3   OH233141   6.539   3.186  11.711 -0.1219  0.2510 -0.8404
 3909TIP3    H133142   6.461   3.188  11.766  0.3534  0.5487 -0.1732
 3909TIP3    H233143   6.550   3.093  11.689 -1.4837  0.3659 -2.1288
 3910TIP3   OH233144   4.072   0.327   2.711 -0.3890  0.5553  0.2281
 3910TIP3    H133145   4.135   0.386   2.669  1.7112  1.5734  4.5210
 3910TIP3    H233146   4.122   0.247   2.726 -0.9870  0.3554  1.1239
 3911TIP3   OH233147   6.759   6.589  12.898 -0.2102 -0.4893  0.5500
 3911TIP3    H133148   6.738   6.664  12.953 -2.3327 -1.1430  0.6686
 3911TIP3    H233149   6.718   6.514  12.942  0.2875 -1.4159 -0.5411
 3912TIP3   OH233150   6.254   0.406  16.384  0.4058 -0.3913 -0.3834
 3912TIP3    H133151   6.237   0.316  16.357  0.4046 -0.0765 -1.4473
 3912TIP3    H233152   6.169   0.450  16.375 -0.6402 -1.2551  4.1566
 3913TIP3   OH233153   4.921   6.454  16.622 -0.3022 -0.0311 -0.3891
 3913TIP3    H133154   4.924   6.545  16.654  1.3589 -1.1538  2.9164
 3913TIP3    H233155   5.010   6.421  16.635 -1.0991 -2.3970 -0.6630
 3914TIP3   OH233156   5.525   3.689  15.991 -0.0763  0.1916 -0.4735
 3914TIP3    H133157   5.515   3.651  15.903 -0.3943  0.5214 -0.5770
 3914TIP3    H233158   5.573   3.622  16.040 -2.2628 -1.1680 -0.1206
 3915TIP3   OH233159   1.927   1.133  15.482  0.2233 -0.0458  0.2749
 3915TIP3    H133160   1.837   1.132  15.513  0.4729 -1.0488  1.0104
 3915TIP3    H233161   1.944   1.224  15.458 -0.6851  0.3205  1.0119
 3916TIP3   OH233162   1.520   1.294   6.396 -0.4729 -0.0006 -0.0421
 3916TIP3    H133163   1.589   1.304   6.330 -0.2811  0.7561  0.2653
 3916TIP3    H233164   1.484   1.382   6.406 -0.8706 -0.2209  0.4666
 3917TIP3   OH233165   2.566   2.987  14.469 -0.8009 -0.0107  0.2438
 3917TIP3    H133166   2.501   3.053  14.495 -1.9431 -0.6062 -1.0296
 3917TIP3    H233167   2.562   2.986  14.373 -0.3080 -1.4384  0.2245
 3918TIP3   OH233168   0.619   1.555   0.272 -0.0204  0.2195 -1.0626
 3918TIP3    H133169   0.713   1.538   0.276 -0.0200  0.1876 -1.2190
 3918TIP3    H233170   0.613   1.651   0.268  0.0478  0.1803 -2.2756
 3919TIP3   OH233171   5.344   5.585  12.308  0.2508 -0.0764 -0.0559
 3919TIP3    H133172   5.256   5.621  12.313  0.1909 -0.3501  0.9310
 3919TIP3    H233173   5.335   5.494  12.337  0.6160 -0.5366 -1.3074
 3920TIP3   OH233174   6.278   5.826   5.869  0.5917 -0.7987  0.7675
 3920TIP3    H133175   6.293   5.839   5.963  2.5934  3.7255 -0.0651
 3920TIP3    H233176   6.335   5.889   5.826  0.4126 -3.4176 -3.5980
 3921TIP3   OH233177   1.785   2.972   2.661  0.6065 -0.1939  0.6658
 3921TIP3    H133178   1.815   2.918   2.588 -0.3872  0.2855 -0.1170
 3921TIP3    H233179   1.698   2.936   2.683  0.5780  0.1437  1.1206
 3922TIP3   OH233180   0.125   0.528  14.016  0.1569  0.8778  0.0418
 3922TIP3    H133181   0.111   0.546  14.109 -2.1768 -1.1134  0.1122
 3922TIP3    H233182   0.202   0.471  14.014  0.0907  0.7635  0.7669
 3923TIP3   OH233183   3.172   1.421   1.888 -0.3041  0.3083 -0.1285
 3923TIP3    H133184   3.131   1.359   1.948  1.2614 -0.3064  0.3320
 3923TIP3    H233185   3.248   1.374   1.853  1.0932  2.0678  0.4849
 3924TIP3   OH233186   1.462   0.906  15.614  0.5789 -0.3883 -0.0330
 3924TIP3    H133187   1.451   0.882  15.522 -0.3964 -0.7212  0.1639
 3924TIP3    H233188   1.501   0.828  15.654 -0.9470 -1.0226  0.2500
 3925TIP3   OH233189   0.642   3.943   5.786 -0.3376 -0.1642 -0.2208
 3925TIP3    H133190   0.660   3.892   5.707  0.7505 -2.0048  1.1652
 3925TIP3    H233191   0.708   4.012   5.785 -0.1187 -0.3755 -0.7548
 3926TIP3   OH233192   6.754   0.669  16.372 -0.5034  0.1086  0.1042
 3926TIP3    H133193   6.794   0.607  16.434 -1.0017  1.7461  2.1278
 3926TIP3    H233194   6.685   0.712  16.423  0.0876  2.6171 -1.1279
 3927TIP3   OH233195   2.504   0.914  10.597  0.1231  0.8247 -0.0102
 3927TIP3    H133196   2.529   0.851  10.666 -1.1549 -1.6410 -1.7096
 3927TIP3    H233197   2.569   0.983  10.603  1.3104 -0.4222  2.2674
 3928TIP3   OH233198   0.538   6.238  16.162 -0.2398 -0.4060 -0.1871
 3928TIP3    H133199   0.601   6.234  16.090  2.8628  0.1751  2.3794
 3928TIP3    H233200   0.490   6.319  16.148  2.8195  1.5499  0.3141
 3929TIP3   OH233201   4.836   5.545  14.058 -0.1313  0.0088 -0.1071
 3929TIP3    H133202   4.863   5.620  14.004 -1.6034  1.2660  0.8588
 3929TIP3    H233203   4.841   5.579  14.148 -2.4292 -0.5209  0.2402
 3930TIP3   OH233204   3.547   5.111   2.337  0.2050  0.0987  0.3375
 3930TIP3    H133205   3.481   5.050   2.303 -0.5546  2.5553 -2.8151
 3930TIP3    H233206   3.630   5.080   2.301 -0.0998  0.5815 -0.7863
 3931TIP3   OH233207   6.295   4.485   6.062  0.4002  0.1225  0.0480
 3931TIP3    H133208   6.352   4.545   6.110 -0.0722  0.8733 -0.3214
 3931TIP3    H233209   6.314   4.501   5.970  0.2921 -0.3190 -0.0538
 3932TIP3   OH233210   4.468   1.760  12.578  0.2106  0.4747  0.3540
 3932TIP3    H133211   4.427   1.822  12.639 -1.6423  0.9356 -1.3166
 3932TIP3    H233212   4.507   1.693  12.634 -2.1553  0.4622  2.0195
 3933TIP3   OH233213   4.583   6.322   4.434  0.3270  0.1845  0.6520
 3933TIP3    H133214   4.621   6.356   4.514 -0.8596 -0.7721  1.6425
 3933TIP3    H233215   4.648   6.260   4.400  0.9677  0.8319  0.6856
 3934TIP3   OH233216   0.127   5.564   5.041 -0.7285 -0.2058 -0.0187
 3934TIP3    H133217   0.080   5.647   5.038 -0.0071  0.2277  0.6330
 3934TIP3    H233218   0.197   5.577   5.105 -1.3103 -1.6851  0.9583
 3935TIP3   OH233219   2.947   4.866  14.938  0.8080 -0.0008 -0.2397
 3935TIP3    H133220   2.976   4.846  14.849 -0.3983 -0.2460 -0.5867
 3935TIP3    H233221   2.956   4.784  14.986  0.4539 -0.1392 -0.4108
 3936TIP3   OH233222   0.763   3.591   5.729  0.2334 -0.1976  0.4638
 3936TIP3    H133223   0.708   3.514   5.718  0.8349 -0.6152  0.3282
 3936TIP3    H233224   0.814   3.573   5.808 -0.3776  0.5258  1.0289
 3937TIP3   OH233225   6.126   3.521   1.739  0.1552  0.1091  0.4747
 3937TIP3    H133226   6.118   3.509   1.833  0.8264 -0.1869  0.4952
 3937TIP3    H233227   6.064   3.459   1.701  0.3253 -0.2016  0.7036
 3938TIP3   OH233228   2.683   0.135  17.001  0.5192  0.6384 -0.3368
 3938TIP3    H133229   2.625   0.075  16.955 -0.9455  1.4051  0.4957
 3938TIP3    H233230   2.627   0.206  17.030  1.7812  1.1675  0.8838
 3939TIP3   OH233231   5.103   2.851  10.890 -0.6263 -0.4110  0.0480
 3939TIP3    H133232   5.165   2.788  10.854  0.1240  1.3195 -1.7572
 3939TIP3    H233233   5.024   2.842  10.836 -0.5062  0.2044 -0.2365
 3940TIP3   OH233234   3.207   2.751  14.470  0.4385  0.4325  0.1255
 3940TIP3    H133235   3.150   2.813  14.425  2.4565  1.3005 -1.3464
 3940TIP3    H233236   3.186   2.666  14.431 -0.1540  0.6751 -0.0834
 3941TIP3   OH233237   1.717   1.120  16.035 -0.0157  0.1912 -0.0603
 3941TIP3    H133238   1.746   1.117  16.126  0.2338  0.2391 -0.1377
 3941TIP3    H233239   1.794   1.095  15.984 -0.5480 -1.2737 -0.1815
 3942TIP3   OH233240   5.492   1.017  15.706  0.4682 -0.2414  0.0110
 3942TIP3    H133241   5.450   0.935  15.680  1.5291 -0.7040 -0.2247
 3942TIP3    H233242   5.463   1.031  15.796 -0.6416 -0.2788 -0.3330
 3943TIP3   OH233243   4.122   2.978   1.587 -0.2077 -0.3702  0.7964
 3943TIP3    H133244   4.132   2.892   1.546 -1.3062 -0.3891  0.5354
 3943TIP3    H233245   4.175   2.973   1.666 -0.1515 -1.2409  0.7133
 3944TIP3   OH233246   3.579   2.820   5.946  0.4157 -0.4540 -0.2499
 3944TIP3    H133247   3.591   2.857   6.033  0.8684 -1.5293  0.1477
 3944TIP3    H233248   3.645   2.864   5.892 -1.7823  2.4076 -0.7525
 3945TIP3   OH233249   6.698   5.695  11.564 -0.3307  0.6346  0.5705
 3945TIP3    H133250   6.708   5.674  11.657  1.1046 -0.4965  0.1706
 3945TIP3    H233251   6.728   5.786  11.558 -1.1979  0.9852  1.3435
 3946TIP3   OH233252   0.581   1.130  11.859  0.4779 -0.2572  0.1172
 3946TIP3    H133253   0.598   1.203  11.919  1.3490  0.6149 -1.1681
 3946TIP3    H233254   0.486   1.118  11.862  0.2125  1.6126 -0.4299
 3947TIP3   OH233255   4.614   4.872  13.102  0.2257 -0.2289 -0.2125
 3947TIP3    H133256   4.589   4.785  13.070 -0.7104  0.1096 -0.4177
 3947TIP3    H233257   4.615   4.862  13.197 -0.6976 -0.2499 -0.2008
 3948TIP3   OH233258   0.620   4.055   3.950  0.4200 -0.0049  0.3180
 3948TIP3    H133259   0.665   3.971   3.942  1.4307  0.4975  0.6757
 3948TIP3    H233260   0.687   4.116   3.979 -0.3898  0.8576  0.4174
 3949TIP3   OH233261   6.782   2.544  14.703 -0.3849  0.4014 -0.3859
 3949TIP3    H133262   6.771   2.605  14.630 -0.2205  1.2211  0.2673
 3949TIP3    H233263   6.816   2.598  14.775 -2.0626 -0.0870  0.8012
 3950TIP3   OH233264   6.048   6.221  11.217 -0.2063 -0.8186  0.1928
 3950TIP3    H133265   6.021   6.292  11.274  1.2658 -0.0725 -0.0003
 3950TIP3    H233266   6.103   6.165  11.272 -1.6376 -2.0049  0.4357
 3951TIP3   OH233267   5.363   0.730   3.405  0.0161  0.1197  0.3762
 3951TIP3    H133268   5.315   0.685   3.475 -0.2998  0.6543  0.5022
 3951TIP3    H233269   5.311   0.716   3.327  1.7687 -2.8667 -0.3395
 3952TIP3   OH233270   2.343   5.139   3.861  0.4553 -0.5771  0.3265
 3952TIP3    H133271   2.299   5.195   3.797  1.9487  0.3608  0.0861
 3952TIP3    H233272   2.406   5.198   3.904  2.0073 -2.0597  0.1223
 3953TIP3   OH233273   0.114   1.798  13.656 -0.1437 -0.1801 -0.2520
 3953TIP3    H133274   0.089   1.829  13.743 -0.6392 -1.1163 -0.0619
 3953TIP3    H233275   0.055   1.725  13.638  1.1033 -1.1069 -0.6424
 3954TIP3   OH233276   2.054   4.581   2.297  0.0074 -0.5683  0.1319
 3954TIP3    H133277   2.054   4.564   2.203 -0.3335  0.9103 -0.1608
 3954TIP3    H233278   1.967   4.555   2.327 -0.1823 -0.2364 -0.1281
 3955TIP3   OH233279   0.482   6.714   0.976 -0.9394  0.8303 -0.7619
 3955TIP3    H133280   0.464   6.763   0.896  0.5809  1.3926 -0.7716
 3955TIP3    H233281   0.565   6.749   1.008 -1.9650  1.2922  1.5798
 3956TIP3   OH233282   3.791   0.228  16.957  0.1930  0.0239  0.4216
 3956TIP3    H133283   3.877   0.264  16.933  0.4374 -0.9947 -0.3034
 3956TIP3    H233284   3.783   0.244  17.051  0.3174  1.8794  0.1321
 3957TIP3   OH233285   6.659   1.209   1.829  0.2601  0.6772  0.3767
 3957TIP3    H133286   6.679   1.300   1.807  0.2960  0.7157  0.5653
 3957TIP3    H233287   6.659   1.207   1.925  1.9747  0.1145  0.3850
 3958TIP3   OH233288   3.795   1.194   1.571  0.1566 -0.1644  0.3718
 3958TIP3    H133289   3.853   1.129   1.611 -0.7501 -1.2179 -0.0032
 3958TIP3    H233290   3.801   1.177   1.477 -0.9472 -0.4428  0.3478
 3959TIP3   OH233291   1.146   4.113  11.089 -0.0437  0.1910  0.5124
 3959TIP3    H133292   1.228   4.147  11.126  0.7055 -0.0962 -0.8432
 3959TIP3    H233293   1.097   4.191  11.063  0.3435  0.3378  0.2069
 3960TIP3   OH233294   3.293   0.418  12.045  0.5742  0.0679  0.1156
 3960TIP3    H133295   3.306   0.345  11.985 -0.8981 -0.9384  1.0007
 3960TIP3    H233296   3.214   0.396  12.094  0.7316  1.7282  1.1735
 3961TIP3   OH233297   3.668   1.441  12.097 -0.0466  0.3987 -0.1065
 3961TIP3    H133298   3.714   1.372  12.049 -1.0231  0.0588 -0.5495
 3961TIP3    H233299   3.655   1.510  12.033 -0.0569  0.5433  0.0510
 3962TIP3   OH233300   6.277   6.291   4.512 -0.8228  0.4827 -0.2344
 3962TIP3    H133301   6.185   6.266   4.501 -0.8439  1.0589 -1.5635
 3962TIP3    H233302   6.293   6.285   4.606 -2.2036  0.3156  0.0014
 3963TIP3   OH233303   3.855   3.507  15.141 -0.1541  0.7722 -0.4543
 3963TIP3    H133304   3.760   3.503  15.150 -0.2245  1.0047 -1.0059
 3963TIP3    H233305   3.881   3.581  15.195  0.1769 -1.6597  2.8183
 3964TIP3   OH233306   5.831   1.129   4.013 -0.6270  0.0888  0.2609
 3964TIP3    H133307   5.749   1.080   4.012 -0.2020 -0.6180 -0.7427
 3964TIP3    H233308   5.894   1.072   4.057 -0.5474  0.4112  0.5660
 3965TIP3   OH233309   1.325   3.239  11.974 -0.0585 -0.1732 -0.8176
 3965TIP3    H133310   1.416   3.234  11.945  0.0889  0.8378 -0.5392
 3965TIP3    H233311   1.280   3.172  11.922  0.7912 -0.4866 -1.1554
 3966TIP3   OH233312   1.159   3.656   5.712  0.7398  0.4700  0.6968
 3966TIP3    H133313   1.185   3.626   5.799 -1.2391 -2.6428  0.2901
 3966TIP3    H233314   1.231   3.631   5.655  0.3831 -0.9254  0.8489
 3967TIP3   OH233315   6.109   6.200   0.974 -0.1650  0.2226 -0.5743
 3967TIP3    H133316   6.203   6.188   0.981 -0.2396 -2.4373 -3.1090
 3967TIP3    H233317   6.098   6.290   0.944  1.4513  1.1182  1.4141
 3968TIP3   OH233318   2.768   0.316   0.256 -0.3054  0.2843 -0.1212
 3968TIP3    H133319   2.726   0.395   0.292  2.3438  2.4494 -1.5337
 3968TIP3    H233320   2.823   0.284   0.328 -0.3836  0.5180  0.0452
 3969TIP3   OH233321   3.825   5.710  14.482 -0.5244 -0.7773 -0.0004
 3969TIP3    H133322   3.754   5.708  14.546 -0.7193 -2.6934 -0.2380
 3969TIP3    H233323   3.786   5.745  14.402 -0.5859  0.4688  0.5747
 3970TIP3   OH233324   1.704   0.368  14.189  0.3648  0.5844  0.2854
 3970TIP3    H133325   1.725   0.366  14.095 -1.3475  2.6060 -0.1755
 3970TIP3    H233326   1.760   0.437  14.225  1.1676 -0.3271  0.8047
 3971TIP3   OH233327   1.397   0.789   1.725 -0.1795 -0.4644 -0.6129
 3971TIP3    H133328   1.340   0.724   1.765  0.6538 -0.9580 -0.1918
 3971TIP3    H233329   1.433   0.839   1.798 -0.6767  0.3533 -0.9254
 3972TIP3   OH233330   4.440   2.617   0.089  0.2174  0.2743  0.3870
 3972TIP3    H133331   4.356   2.629   0.045  0.3007 -3.1734 -0.8681
 3972TIP3    H233332   4.417   2.580   0.175  0.4204 -0.5813  0.0791
 3973TIP3   OH233333   4.658   5.348   2.219  0.1250 -0.0899  0.3587
 3973TIP3    H133334   4.753   5.353   2.228  0.0982 -1.4509  1.3856
 3973TIP3    H233335   4.643   5.349   2.125  1.0532  1.9160  0.2066
 3974TIP3   OH233336   2.360   2.949  13.562  0.2538 -0.0988  0.5264
 3974TIP3    H133337   2.446   2.930  13.600 -1.3571 -0.2400  4.3094
 3974TIP3    H233338   2.330   3.027  13.608 -1.4576  0.2710 -1.1372
 3975TIP3   OH233339   2.864   2.674   1.202  0.7717  0.0442 -0.0723
 3975TIP3    H133340   2.953   2.709   1.202  0.2924  1.3247 -1.1551
 3975TIP3    H233341   2.811   2.742   1.243  0.4749 -1.3071  1.8954
 3976TIP3   OH233342   1.364   2.891  10.456 -0.0263 -0.1025 -0.4747
 3976TIP3    H133343   1.346   2.797  10.466 -1.8148  0.0187 -2.2411
 3976TIP3    H233344   1.387   2.920  10.544  0.6593 -2.2059  0.0867
 3977TIP3   OH233345   5.494   4.215  12.658 -0.2957 -0.2195 -0.3688
 3977TIP3    H133346   5.574   4.202  12.607 -0.3791 -0.9144 -0.3311
 3977TIP3    H233347   5.521   4.198  12.748 -0.7647 -1.6997 -0.4978
 3978TIP3   OH233348   3.513   6.230  14.376  0.3527  0.1848  0.2666
 3978TIP3    H133349   3.535   6.323  14.374 -1.4383  0.6354  0.3111
 3978TIP3    H233350   3.446   6.223  14.445  0.1348 -1.0518 -0.0506
 3979TIP3   OH233351   0.645   6.184   5.899  0.2850  0.3134  0.7390
 3979TIP3    H133352   0.660   6.194   5.993 -0.9805 -1.5411  1.1839
 3979TIP3    H233353   0.565   6.131   5.894 -0.0428  0.9855 -1.3884
 3980TIP3   OH233354   4.074   3.217  11.524  0.6698  0.2851  0.7499
 3980TIP3    H133355   4.044   3.285  11.464  0.6979  0.0399  0.4573
 3980TIP3    H233356   4.145   3.259  11.574  0.0304  0.7763  1.2566
 3981TIP3   OH233357   6.308   1.218  13.760  0.2190  0.1240 -0.4406
 3981TIP3    H133358   6.218   1.189  13.745  0.0933  0.7072 -0.8243
 3981TIP3    H233359   6.341   1.160  13.829  0.1392 -1.2695 -1.5352
 3982TIP3   OH233360   5.634   5.534  10.454 -0.4451  0.6249  0.1003
 3982TIP3    H133361   5.569   5.593  10.415  0.9966  1.5995 -0.8824
 3982TIP3    H233362   5.701   5.526  10.387 -0.7329 -2.3696  0.1212
 3983TIP3   OH233363   1.438   2.518  12.557  0.4752  0.4089  0.5950
 3983TIP3    H133364   1.433   2.599  12.506  1.1333  0.3389  0.4201
 3983TIP3    H233365   1.362   2.522  12.615  0.0797  0.7914  0.0589
 3984TIP3   OH233366   2.429   5.828  16.143 -0.3699 -0.3992 -0.4917
 3984TIP3    H133367   2.515   5.828  16.100  0.8292 -3.0496  1.7033
 3984TIP3    H233368   2.445   5.866  16.229 -1.6485  0.1244 -0.4761
 3985TIP3   OH233369   6.304   5.118   3.104 -0.0337  0.3140  0.0068
 3985TIP3    H133370   6.263   5.184   3.160  1.6101 -0.1855  1.8406
 3985TIP3    H233371   6.391   5.153   3.085 -1.1568  1.2950 -3.7341
 3986TIP3   OH233372   0.148   2.076  15.553 -0.7708  0.1120 -0.2065
 3986TIP3    H133373   0.056   2.087  15.575 -1.0735  0.6038 -1.6791
 3986TIP3    H233374   0.147   2.033  15.467  0.3676  0.7400 -0.5339
 3987TIP3   OH233375   1.096   2.288   0.732  0.0646 -0.2290 -0.0587
 3987TIP3    H133376   1.181   2.333   0.737  0.3798 -0.9266  1.1938
 3987TIP3    H233377   1.086   2.248   0.818  0.0778 -3.0297 -1.3037
 3988TIP3   OH233378   1.686   2.085   2.706  0.0725  0.3080  0.0917
 3988TIP3    H133379   1.769   2.049   2.677  0.5747  1.5858 -0.0745
 3988TIP3    H233380   1.620   2.024   2.672  0.8512  0.0805 -1.0342
 3989TIP3   OH233381   2.608   1.288  12.734  0.2043 -0.1137 -0.1373
 3989TIP3    H133382   2.609   1.383  12.749 -0.6114 -0.1590  0.2388
 3989TIP3    H233383   2.544   1.255  12.797 -1.8034 -0.5559 -2.3167
 3990TIP3   OH233384   5.704   0.305  11.884  0.2031 -0.3222 -0.0112
 3990TIP3    H133385   5.624   0.259  11.905 -1.3789  2.3092  0.0098
 3990TIP3    H233386   5.723   0.282  11.793 -1.3839  0.1316 -0.4689
 3991TIP3   OH233387   2.214   0.268  16.191  0.0143  0.2495 -0.0653
 3991TIP3    H133388   2.282   0.239  16.252 -0.6253 -0.4758  0.3057
 3991TIP3    H233389   2.205   0.196  16.129  0.5391  0.9124 -0.9185
 3992TIP3   OH233390   4.593   0.360   2.720  0.0585  0.1450  0.1013
 3992TIP3    H133391   4.593   0.291   2.787  0.9249 -0.0655 -0.1137
 3992TIP3    H233392   4.547   0.433   2.761  1.0051  0.1835  1.1034
 3993TIP3   OH233393   5.995   2.842  15.314  0.3428 -0.5558 -0.0244
 3993TIP3    H133394   5.921   2.784  15.296  0.0013 -0.2092  0.2615
 3993TIP3    H233395   5.982   2.915  15.254  0.8783 -0.8649 -0.5202
 3994TIP3   OH233396   3.354   0.035  15.630 -0.0037 -0.3425 -0.2722
 3994TIP3    H133397   3.349  -0.008  15.544 -2.3788  0.2437 -0.4463
 3994TIP3    H233398   3.321  -0.030  15.692  2.1507 -0.9358  0.2993
 3995TIP3   OH233399   4.692   0.010  13.764  0.0257 -0.3013  0.2929
 3995TIP3    H133400   4.771  -0.027  13.725 -0.1934  0.3185 -0.7508
 3995TIP3    H233401   4.623  -0.052  13.740  0.2191 -0.9575  1.3881
 3996TIP3   OH233402   1.540   2.126  11.919 -0.0581  0.5807  0.3268
 3996TIP3    H133403   1.497   2.193  11.972 -0.9925  0.6180 -0.4594
 3996TIP3    H233404   1.497   2.131  11.834  0.6169 -0.2770 -0.0780
 3997TIP3   OH233405   0.120   1.892  13.412 -0.2126  0.3996  0.1883
 3997TIP3    H133406   0.119   1.855  13.500 -1.0417  0.3392  0.1616
 3997TIP3    H233407   0.036   1.937  13.404 -0.0613  0.5696 -0.5050
 3998TIP3   OH233408   2.923   6.502  16.230  0.1902  0.3234  0.2375
 3998TIP3    H133409   2.946   6.487  16.321  2.0456  2.9390  0.2690
 3998TIP3    H233410   2.828   6.509  16.230 -0.1037 -2.7668  1.4262
 3999TIP3   OH233411   5.905   1.562  14.843 -0.1242  0.3253 -0.3981
 3999TIP3    H133412   5.970   1.630  14.860  0.2968 -0.1573 -0.0803
 3999TIP3    H233413   5.828   1.610  14.812  0.0532  0.9781  0.1642
 4000TIP3   OH233414   1.913   5.499  14.975  0.2015  0.4444 -0.2549
 4000TIP3    H133415   1.871   5.503  15.061  1.2937  1.6259  0.2365
 4000TIP3    H233416   1.968   5.421  14.979  2.7160  2.2025  1.3042
 4001TIP3   OH233417   6.151   6.108   3.835 -0.4367 -0.3187  0.8140
 4001TIP3    H133418   6.234   6.095   3.882  1.0898  1.8195 -1.2133
 4001TIP3    H233419   6.168   6.074   3.747 -0.9042  2.3148 -0.3344
 4002TIP3   OH233420   3.888   2.964  15.112 -0.1224  0.1060 -0.0506
 4002TIP3    H133421   3.867   3.005  15.028  0.6032 -0.6118 -0.5790
 4002TIP3    H233422   3.814   2.989  15.169 -0.4915  0.7992 -0.8175
 4003TIP3   OH233423   0.283   4.234  11.533 -0.5128 -0.2241 -0.2452
 4003TIP3    H133424   0.273   4.261  11.624  0.3748 -0.5316 -0.0530
 4003TIP3    H233425   0.223   4.160  11.523  0.4988 -1.1636  0.5102
 4004TIP3   OH233426   4.273   1.918   2.142 -0.8568 -0.5729  0.2362
 4004TIP3    H133427   4.184   1.905   2.172 -0.9100  2.7064  1.5684
 4004TIP3    H233428   4.271   2.000   2.093  1.6766  0.1479  1.2800
 4005TIP3   OH233429   6.785   4.948   0.547  0.1169 -0.1924 -0.1953
 4005TIP3    H133430   6.806   4.883   0.614 -0.7234 -0.4752 -0.1913
 4005TIP3    H233431   6.786   4.899   0.465 -0.8105 -0.2788 -0.1588
 4006TIP3   OH233432   6.685   5.165   3.493  0.1546 -0.3677  0.4473
 4006TIP3    H133433   6.595   5.159   3.462  0.2408  0.7677 -0.0367
 4006TIP3    H233434   6.718   5.075   3.490 -1.4723 -1.0360  2.1971
 4007TIP3   OH233435   3.802   6.704   5.562  0.2911 -0.2598  0.2555
 4007TIP3    H133436   3.783   6.638   5.629  0.6561 -0.3479  0.2744
 4007TIP3    H233437   3.774   6.664   5.480 -0.3852 -0.0544  0.3853
 4008TIP3   OH233438   1.878   6.776   3.053 -0.0114 -0.2191  0.1484
 4008TIP3    H133439   1.808   6.783   3.119 -0.1640  0.3362 -0.0730
 4008TIP3    H233440   1.843   6.715   2.988  0.5247 -1.5224  1.0668
 4009TIP3   OH233441   0.126   4.680   3.565  0.1473  0.6416  0.7259
 4009TIP3    H133442   0.220   4.679   3.549  0.0967  1.8024  0.2918
 4009TIP3    H233443   0.117   4.659   3.658  0.8151  0.2382  0.7026
 4010TIP3   OH233444   1.996   3.111  12.076  0.2716 -0.3139 -0.5641
 4010TIP3    H133445   2.080   3.131  12.035  0.6937 -0.2248  0.3352
 4010TIP3    H233446   2.018   3.056  12.151 -0.5117 -0.6217 -0.5498
 4011TIP3   OH233447   3.842   6.422   4.904  0.0801 -0.1702  0.1670
 4011TIP3    H133448   3.835   6.515   4.883  1.6138  0.1171  0.8410
 4011TIP3    H233449   3.756   6.398   4.938 -0.3423  0.9813 -0.0769
 4012TIP3   OH233450   6.532   2.418  12.312  0.0619  0.0631 -0.1016
 4012TIP3    H133451   6.566   2.352  12.251 -1.3517  0.5395 -1.4631
 4012TIP3    H233452   6.590   2.494  12.301  1.1887 -0.6537  0.8524
 4013TIP3   OH233453   0.481   2.502  17.149  0.5692  0.3048  0.0550
 4013TIP3    H133454   0.559   2.473  17.102  1.3839  1.2525  0.8006
 4013TIP3    H233455   0.489   2.461  17.235 -0.9757 -1.5198 -0.6312
 4014TIP3   OH233456   1.612   6.308   2.050 -0.0228  0.0392  0.0492
 4014TIP3    H133457   1.685   6.351   2.006  0.2393  0.9857  1.3525
 4014TIP3    H233458   1.543   6.375   2.054 -1.0300 -0.8999 -1.3104
 4015TIP3   OH233459   3.016   3.561  13.177  0.1613  0.0057  0.4366
 4015TIP3    H133460   2.998   3.470  13.202  0.9884 -0.1633  0.4382
 4015TIP3    H233461   2.978   3.613  13.247 -1.8744 -0.2580 -0.4354
 4016TIP3   OH233462   5.364   4.456   3.635  0.5026 -0.2857  0.0412
 4016TIP3    H133463   5.408   4.532   3.598 -0.5508  0.4909  0.3415
 4016TIP3    H233464   5.272   4.468   3.612  0.5351 -2.2483 -1.1953
 4017TIP3   OH233465   1.704   2.332  12.322  0.1344  0.3783 -0.4662
 4017TIP3    H133466   1.766   2.405  12.326  1.1501 -0.0439 -5.0116
 4017TIP3    H233467   1.644   2.356  12.250 -0.3018 -2.6300 -1.1848
 4018TIP3   OH233468   2.331   0.825   0.926 -0.2017 -0.0750 -0.2229
 4018TIP3    H133469   2.362   0.906   0.885 -0.6784  0.0253 -0.3829
 4018TIP3    H233470   2.325   0.846   1.019 -1.1575  0.3341 -0.3752
 4019TIP3   OH233471   0.864   4.789  11.250 -0.0940 -0.0799  0.0755
 4019TIP3    H133472   0.900   4.709  11.291 -0.3281 -0.8028 -1.1001
 4019TIP3    H233473   0.770   4.783  11.265  0.0456  0.8191  1.4213
 4020TIP3   OH233474   1.207   4.649  12.084 -0.2942 -0.1566 -0.2028
 4020TIP3    H133475   1.301   4.640  12.103 -0.4947 -0.4165  0.6651
 4020TIP3    H233476   1.200   4.627  11.991  0.5899  0.4334 -0.4212
 4021TIP3   OH233477   3.255   1.772   4.973 -0.1010 -0.1164 -0.2425
 4021TIP3    H133478   3.184   1.725   5.018  0.9801 -0.2043  1.4111
 4021TIP3    H233479   3.278   1.716   4.899 -0.0113 -1.3622  0.7153
 4022TIP3   OH233480   6.405   4.203  16.943 -0.0187 -0.5018  0.4776
 4022TIP3    H133481   6.354   4.284  16.951  2.3007  1.0025  0.4539
 4022TIP3    H233482   6.447   4.210  16.857  0.6261 -1.4807  0.7094
 4023TIP3   OH233483   2.893   6.106   0.469 -0.0806  0.1126  0.3656
 4023TIP3    H133484   2.982   6.086   0.499 -0.7359 -0.6065  1.9171
 4023TIP3    H233485   2.845   6.024   0.483 -0.0542 -0.8149 -4.3053
 4024TIP3   OH233486   2.988   2.036  14.330 -0.2198 -0.7723 -0.2324
 4024TIP3    H133487   2.973   2.130  14.337 -0.2204 -0.7795 -0.1355
 4024TIP3    H233488   2.926   2.006  14.263 -0.5123 -0.7754  0.0400
 4025TIP3   OH233489   5.327   4.865   2.399  0.1903  0.2054  0.1133
 4025TIP3    H133490   5.316   4.959   2.415 -2.7063  0.0620 -0.8311
 4025TIP3    H233491   5.284   4.823   2.473 -1.7389 -0.3756 -1.3100
 4026TIP3   OH233492   0.670   6.216  15.929 -0.2817  0.3558  0.4704
 4026TIP3    H133493   0.614   6.139  15.920 -0.8224  0.8371 -0.3403
 4026TIP3    H233494   0.641   6.275  15.859  2.3351 -0.0621 -1.0244
 4027TIP3   OH233495   5.916   6.491  17.113  0.2187 -0.2996 -0.3837
 4027TIP3    H133496   5.969   6.434  17.057 -0.0200  0.9192 -1.8787
 4027TIP3    H233497   5.927   6.454  17.201  1.8302 -1.3338 -0.9867
 4028TIP3   OH233498   0.449   0.907  17.038  0.5218 -0.1581  0.0029
 4028TIP3    H133499   0.424   0.998  17.055  0.7771 -0.2337  0.8014
 4028TIP3    H233500   0.514   0.914  16.968 -0.9895  0.1069 -1.4087
 4029TIP3   OH233501   4.821   6.037   2.401  0.0738  0.1498  0.2205
 4029TIP3    H133502   4.912   6.042   2.430 -0.2432  2.7132  0.8548
 4029TIP3    H233503   4.769   6.054   2.480 -0.8696  2.5816 -0.8784
 4030TIP3   OH233504   3.848   3.246   3.140  0.9565  0.4010  0.5178
 4030TIP3    H133505   3.870   3.249   3.233 -0.5302  3.5747  0.8616
 4030TIP3    H233506   3.783   3.176   3.134  2.3414 -1.0070  1.5392
 4031TIP3   OH233507   3.043   1.775  16.066 -0.0717 -0.6497 -0.0724
 4031TIP3    H133508   2.965   1.825  16.089  0.6511  1.4996 -2.0526
 4031TIP3    H233509   3.116   1.833  16.088  0.8031 -0.9869 -1.9846
 4032TIP3   OH233510   2.357   1.849   4.710 -0.4448  0.0055 -0.0258
 4032TIP3    H133511   2.276   1.852   4.762 -0.4331  0.7427 -0.0453
 4032TIP3    H233512   2.374   1.941   4.688  0.7690 -0.0737  0.5616
 4033TIP3   OH233513   6.053   1.611   4.067  0.1617 -0.3073 -0.5928
 4033TIP3    H133514   5.981   1.592   4.007  0.5183  1.8640 -1.7391
 4033TIP3    H233515   6.049   1.706   4.080  0.9686 -0.5533  1.7196
 4034TIP3   OH233516   0.212   1.157   4.114 -0.1219  0.0380 -0.5500
 4034TIP3    H133517   0.201   1.202   4.198 -1.4858 -2.3977  0.6497
 4034TIP3    H233518   0.300   1.119   4.118 -0.3842 -0.5242  0.0296
 4035TIP3   OH233519   2.486   4.955  14.925  0.1852  0.0375  0.7798
 4035TIP3    H133520   2.559   5.005  14.963  0.2396 -0.1349  0.9020
 4035TIP3    H233521   2.526   4.877  14.888  0.1984  0.4572 -0.1083
 4036TIP3   OH233522   5.612   5.396  13.395 -0.4446 -0.2073  0.0327
 4036TIP3    H133523   5.681   5.407  13.460  1.0204  0.1224 -1.5175
 4036TIP3    H233524   5.634   5.314  13.351 -1.7391 -0.7170  0.3383
 4037TIP3   OH233525   4.097   5.145  13.342 -0.4068 -0.7674  0.0539
 4037TIP3    H133526   4.112   5.075  13.278  1.6069 -0.6437  0.3410
 4037TIP3    H233527   4.176   5.200  13.335 -1.7962  1.2737  0.0810
 4038TIP3   OH233528   1.671   4.422   2.461  0.8514 -1.3354  0.1609
 4038TIP3    H133529   1.670   4.341   2.411  0.4901 -0.9626 -0.4362
 4038TIP3    H233530   1.707   4.487   2.401  0.9385 -1.0077  0.5671
 4039TIP3   OH233531   0.773   3.163   0.831  0.5970  0.4880  0.2044
 4039TIP3    H133532   0.826   3.117   0.896  1.0327  1.6343  0.6646
 4039TIP3    H233533   0.700   3.104   0.814  1.4486 -0.6327  0.3589
 4040TIP3   OH233534   3.232   0.768  15.417 -0.6800  0.2737 -0.4866
 4040TIP3    H133535   3.283   0.714  15.477 -0.9669  2.4075  1.7767
 4040TIP3    H233536   3.146   0.725  15.413 -0.3109 -0.4910 -0.2492
 4041TIP3   OH233537   5.464   3.512   3.447 -0.0762  0.5524  0.1870
 4041TIP3    H133538   5.409   3.590   3.437 -2.0376 -0.6541  1.2078
 4041TIP3    H233539   5.402   3.443   3.469  1.7311 -1.1496 -0.0248
 4042TIP3   OH233540   0.660   5.372  11.133  0.2589 -0.3323  0.2633
 4042TIP3    H133541   0.641   5.378  11.226  3.5219 -0.6939  1.0097
 4042TIP3    H233542   0.690   5.282  11.120 -0.1571 -0.2815 -1.1366
 4043TIP3   OH233543   0.594   6.005  14.024 -0.0061  0.4509  0.8467
 4043TIP3    H133544   0.524   5.983  14.087 -1.7352  2.9924 -0.1011
 4043TIP3    H233545   0.572   5.954  13.946 -0.8823  1.3032  0.5211
 4044TIP3   OH233546   1.858   4.314   4.294  0.7673  0.1515 -0.7371
 4044TIP3    H133547   1.781   4.258   4.306  0.7299  0.6585  1.6405
 4044TIP3    H233548   1.823   4.395   4.256  0.3424 -0.1668 -1.0305
 4045TIP3   OH233549   6.313   0.090  12.159  0.1480  0.2668  0.1639
 4045TIP3    H133550   6.301   0.170  12.211  0.1236  0.4589 -0.1354
 4045TIP3    H233551   6.269   0.022  12.209  0.1397  0.4462  0.4032
 4046TIP3   OH233552   2.744   3.573   3.665  0.3070  1.0998 -0.1321
 4046TIP3    H133553   2.823   3.528   3.634  0.4924  0.3746  1.3495
 4046TIP3    H233554   2.777   3.642   3.723 -0.2008 -0.4057  1.9968
 4047TIP3   OH233555   1.891   5.355  15.563 -0.3286  0.4240  0.1617
 4047TIP3    H133556   1.977   5.323  15.535 -0.5429  1.3739 -1.6443
 4047TIP3    H233557   1.910   5.423  15.626  0.3126  1.7619 -1.4378
 4048TIP3   OH233558   3.296   2.453  16.615 -0.1615 -0.4635 -0.4910
 4048TIP3    H133559   3.232   2.511  16.657 -0.9803 -0.6289 -1.5025
 4048TIP3    H233560   3.330   2.505  16.542 -0.0289 -0.8295 -0.6864
 4049TIP3   OH233561   2.200   3.206   1.828  0.3018 -0.2266  0.5226
 4049TIP3    H133562   2.270   3.239   1.884 -0.5900 -0.6259  1.9168
 4049TIP3    H233563   2.214   3.111   1.826  0.8174 -0.1345 -0.6249
 4050TIP3   OH233564   3.869   3.569  16.876  0.3273 -0.2068  0.1953
 4050TIP3    H133565   3.782   3.546  16.843 -0.0679  2.0402 -0.4462
 4050TIP3    H233566   3.900   3.636  16.815  1.7932  0.2302  1.4037
 4051TIP3   OH233567   0.504   0.655   1.512  0.2111 -0.6075  0.2447
 4051TIP3    H133568   0.594   0.655   1.478 -0.3169 -1.2223 -1.1969
 4051TIP3    H233569   0.449   0.664   1.434 -0.9313  2.2505  1.3100
 4052TIP3   OH233570   1.965   2.647  15.506  0.2875  0.0393  0.7160
 4052TIP3    H133571   2.055   2.619  15.490  1.0303  2.7649 -0.1068
 4052TIP3    H233572   1.970   2.742  15.513 -2.8383  0.4192 -1.2760
 4053TIP3   OH233573   3.851   0.275  13.565 -0.4597 -0.0574 -0.0561
 4053TIP3    H133574   3.854   0.223  13.484 -0.6779 -2.1886  1.2672
 4053TIP3    H233575   3.786   0.231  13.619  0.0487  1.0454  1.4903
 4054TIP3   OH233576   4.617   6.625   0.005  0.4562 -0.5455  0.5278
 4054TIP3    H133577   4.563   6.592  -0.067  1.3742 -1.9857  0.4944
 4054TIP3    H233578   4.583   6.581   0.083  0.2424  0.1164  0.8141
 4055TIP3   OH233579   1.548   1.120  13.044  0.7122  0.3625  0.0909
 4055TIP3    H133580   1.593   1.153  12.966  1.4347  0.6234  0.6056
 4055TIP3    H233581   1.549   1.194  13.105  0.1727  0.1528  0.3557
 4056TIP3   OH233582   0.169   2.301  15.268  0.2951 -0.2232 -0.4446
 4056TIP3    H133583   0.235   2.357  15.229  0.6638 -1.0903 -1.0625
 4056TIP3    H233584   0.207   2.213  15.268 -0.7114 -0.6740 -0.4914
 4057TIP3   OH233585   2.962   5.009   1.191 -0.2607 -0.1981 -0.3252
 4057TIP3    H133586   3.046   5.026   1.233  0.2479  1.0973 -1.8208
 4057TIP3    H233587   2.928   4.932   1.236  2.1014 -1.2340 -0.2512
 4058TIP3   OH233588   1.181   1.138   2.988 -0.2059 -0.2346  0.1595
 4058TIP3    H133589   1.273   1.148   2.966 -0.7212  3.0659 -0.7331
 4058TIP3    H233590   1.170   1.182   3.071 -0.9709 -0.7404  0.3361
 4059TIP3   OH233591   1.551   3.938  14.704  0.4181  0.3910 -0.2984
 4059TIP3    H133592   1.613   4.007  14.730  0.2761  0.3181  0.2248
 4059TIP3    H233593   1.466   3.983  14.699 -0.1576 -0.2576  2.5426
 4060TIP3   OH233594   3.997   5.984   0.008 -0.4673 -0.2022 -0.3293
 4060TIP3    H133595   4.064   5.915   0.005  0.0962  0.3339 -0.2533
 4060TIP3    H233596   3.965   5.989  -0.082 -1.0420 -1.0743 -0.1793
 4061TIP3   OH233597   4.808   0.637   2.033 -0.3094  0.1145  0.1928
 4061TIP3    H133598   4.852   0.631   2.118 -1.0239 -0.2017  0.5422
 4061TIP3    H233599   4.804   0.731   2.016  1.2284  0.1169 -0.2268
 4062TIP3   OH233600   2.741   3.360  10.567  0.0001  0.0959 -0.2093
 4062TIP3    H133601   2.776   3.272  10.576  0.2629  0.2801  0.6212
 4062TIP3    H233602   2.737   3.394  10.656  1.4092  1.5114 -0.6620
 4063TIP3   OH233603   5.486   4.916   1.320 -0.5942 -0.3141 -0.4238
 4063TIP3    H133604   5.433   4.866   1.382 -0.3192  0.3702  0.3678
 4063TIP3    H233605   5.572   4.874   1.322 -0.7271 -0.6118 -0.7421
 4064TIP3   OH233606   2.924   5.104  15.843  1.0871  0.3180 -0.5341
 4064TIP3    H133607   2.888   5.097  15.755 -0.9005  1.4440  0.1613
 4064TIP3    H233608   2.910   5.017  15.882 -0.1653  0.5152 -0.5409
 4065TIP3   OH233609   0.302   6.205  14.870 -0.3065  0.4964  0.3045
 4065TIP3    H133610   0.341   6.118  14.872 -0.8462  0.2608  0.7589
 4065TIP3    H233611   0.286   6.226  14.963  0.1904  1.2402  0.2272
 4066TIP3   OH233612   2.835   5.500   1.931 -0.1659 -0.1348 -0.5773
 4066TIP3    H133613   2.801   5.584   1.962 -2.3382 -1.0749 -0.3013
 4066TIP3    H233614   2.822   5.503   1.836 -0.6253 -0.3113 -0.5223
 4067TIP3   OH233615   4.555   3.319  14.501 -0.2307 -0.1507 -0.1082
 4067TIP3    H133616   4.487   3.345  14.563 -1.0763 -0.2040 -0.9883
 4067TIP3    H233617   4.529   3.361  14.419  1.7077  1.1990 -0.0632
 4068TIP3   OH233618   4.710   2.302   3.390 -0.3217  0.2176  0.7415
 4068TIP3    H133619   4.806   2.307   3.397  0.0179 -1.1346 -2.1960
 4068TIP3    H233620   4.688   2.216   3.426 -0.2228 -0.1830 -0.1315
 4069TIP3   OH233621   4.674   0.003   2.833  0.1060  0.3469 -0.2475
 4069TIP3    H133622   4.736   0.054   2.781  1.3935 -0.3446  0.6017
 4069TIP3    H233623   4.608  -0.026   2.769  1.5078 -0.2359 -1.4579
 4070TIP3   OH233624   3.182   5.063  16.629  0.7979  0.1245  0.6341
 4070TIP3    H133625   3.171   5.047  16.723 -1.3629  0.4240  0.4619
 4070TIP3    H233626   3.181   5.158  16.621 -0.2648  0.0902  0.2020
 4071TIP3   OH233627   3.168   0.341  13.046 -0.5469 -0.4838 -0.3066
 4071TIP3    H133628   3.157   0.378  13.133 -2.4117 -0.7529 -0.4116
 4071TIP3    H233629   3.132   0.407  12.987  2.1422  0.3912 -1.0244
 4072TIP3   OH233630   1.549   5.352   4.083 -0.0315 -0.6829  0.6804
 4072TIP3    H133631   1.612   5.398   4.028 -1.4313  0.0370 -0.3817
 4072TIP3    H233632   1.591   5.270   4.106  1.1591 -0.3394 -0.2668
 4073TIP3   OH233633   5.226   2.173   0.485  0.0426  0.6185  0.2932
 4073TIP3    H133634   5.208   2.141   0.397  0.5032 -2.3494  1.2383
 4073TIP3    H233635   5.318   2.154   0.500  0.1671  1.8006  1.1395
 4074TIP3   OH233636   4.256   0.140  11.455 -0.1191  0.4436  0.1139
 4074TIP3    H133637   4.252   0.191  11.536 -1.3522 -0.5292  0.6983
 4074TIP3    H233638   4.301   0.196  11.393 -1.0662  2.0600  0.8599
 4075TIP3   OH233639   5.618   3.366   2.187  0.9678  0.5893 -0.1270
 4075TIP3    H133640   5.535   3.365   2.138 -0.6473 -2.4056  2.4711
 4075TIP3    H233641   5.624   3.454   2.222  1.4624  2.3990 -4.4466
 4076TIP3   OH233642   0.882   2.487  16.716 -0.1133  0.1081  0.4872
 4076TIP3    H133643   0.962   2.498  16.664 -0.5513 -1.4301 -0.5531
 4076TIP3    H233644   0.812   2.519  16.659 -0.2935  1.1282  1.2616
 4077TIP3   OH233645   5.643   2.770   2.381  0.3254  0.4997 -0.1689
 4077TIP3    H133646   5.675   2.680   2.379  2.6589  1.2394  1.7378
 4077TIP3    H233647   5.663   2.801   2.469  1.2760  3.4708 -1.3650
 4078TIP3   OH233648   5.761   0.510  16.910 -0.2693 -0.0983  0.3288
 4078TIP3    H133649   5.671   0.481  16.919  0.2554 -1.4602  1.3456
 4078TIP3    H233650   5.756   0.585  16.851 -1.8486 -1.2428 -1.0378
 4079TIP3   OH233651   1.967   0.281   3.218 -0.0381 -0.3488  0.2672
 4079TIP3    H133652   1.930   0.222   3.283  0.7305  1.4237  2.3366
 4079TIP3    H233653   2.062   0.270   3.227  0.0953 -1.6974 -2.0905
 4080TIP3   OH233654   4.171   5.096   1.516  0.1180 -0.4952  0.1699
 4080TIP3    H133655   4.135   5.154   1.584  0.3978  0.3713 -0.4088
 4080TIP3    H233656   4.110   5.022   1.513 -0.1801 -0.2866  1.0028
 4081TIP3   OH233657   3.047   6.230   3.761  0.3428 -0.1336  0.0929
 4081TIP3    H133658   3.054   6.174   3.684  1.3417  1.1258 -0.7626
 4081TIP3    H233659   3.113   6.197   3.822 -0.0770 -0.7938  0.1892
 4082TIP3   OH233660   5.869   2.224   5.410 -0.3905 -0.0928  0.0467
 4082TIP3    H133661   5.821   2.307   5.399 -1.1523 -0.4934  0.2881
 4082TIP3    H233662   5.888   2.220   5.504 -0.3451 -0.1856  0.0333
 4083TIP3   OH233663   5.341   3.308   1.028  0.3894 -0.4242 -0.0639
 4083TIP3    H133664   5.436   3.295   1.034  0.5303 -2.2687 -4.4138
 4083TIP3    H233665   5.305   3.221   1.044 -0.3854 -0.2846 -1.0077
 4084TIP3   OH233666   4.080   6.771  16.398  0.2067  0.1720 -0.1389
 4084TIP3    H133667   4.068   6.739  16.309  0.2094 -0.9970  0.2680
 4084TIP3    H233668   4.161   6.728  16.427 -0.5017 -0.5026  0.8747
 4085TIP3   OH233669   3.271   3.624   4.552 -0.4899 -0.3346 -0.2280
 4085TIP3    H133670   3.355   3.608   4.595 -1.2089  0.6367  1.5936
 4085TIP3    H233671   3.264   3.719   4.546  0.6484 -0.4235 -4.7339
 4086TIP3   OH233672   4.374   2.264  13.438  0.6215 -0.1357  0.3415
 4086TIP3    H133673   4.446   2.316  13.473  0.9143 -0.0153 -0.4216
 4086TIP3    H233674   4.354   2.201  13.506 -1.0793  2.2328  2.1244
 4087TIP3   OH233675   2.012   5.984  16.750  0.0852 -0.3297  0.3758
 4087TIP3    H133676   2.098   5.944  16.751  1.1163  1.6836 -2.1364
 4087TIP3    H233677   2.024   6.069  16.791 -0.6037  0.1395 -0.3750
 4088TIP3   OH233678   2.684   6.748   0.417  0.2978 -0.2982 -0.3301
 4088TIP3    H133679   2.657   6.660   0.443 -0.6351 -0.1470 -0.7741
 4088TIP3    H233680   2.611   6.804   0.443  1.0988  0.4121  0.3890
 4089TIP3   OH233681   3.953   5.035   4.865  0.0872  0.1007  0.6296
 4089TIP3    H133682   3.991   5.098   4.804 -0.3869 -0.8367 -0.6626
 4089TIP3    H233683   3.894   5.087   4.919  0.2761  0.9073  0.0717
 4090TIP3   OH233684   2.733   4.223   2.341 -0.3512  0.6133 -0.0071
 4090TIP3    H133685   2.744   4.136   2.381  0.1007  1.6718  2.2413
 4090TIP3    H233686   2.640   4.227   2.319 -0.0897 -1.0039 -1.5196
 4091TIP3   OH233687   1.556   0.097   4.857  0.4710  0.7965  0.1526
 4091TIP3    H133688   1.509   0.021   4.825  2.3340  1.3460 -4.1591
 4091TIP3    H233689   1.596   0.067   4.939 -0.2400 -2.3027 -0.5645
 4092TIP3   OH233690   0.988   4.948  12.589 -0.6023  0.2549  0.3912
 4092TIP3    H133691   1.036   4.993  12.519  2.5149 -1.5959  1.2269
 4092TIP3    H233692   1.007   5.000  12.668  0.2028 -0.5459  0.7427
 4093TIP3   OH233693   5.355   5.343   0.951  0.4595 -0.7020 -0.8583
 4093TIP3    H133694   5.272   5.302   0.926  0.8574 -1.5865 -0.7544
 4093TIP3    H233695   5.402   5.353   0.869  0.2955 -0.3078 -0.9030
 4094TIP3   OH233696   1.076   3.837   2.915 -0.0572 -0.3879  0.4727
 4094TIP3    H133697   1.018   3.808   2.985 -1.4826  1.2808  0.0131
 4094TIP3    H233698   1.056   3.779   2.841  2.6623 -3.2913  1.8803
 4095TIP3   OH233699   3.331   6.203   6.237  0.4434 -0.6304 -0.0779
 4095TIP3    H133700   3.320   6.175   6.328 -1.9932 -1.2145 -0.5223
 4095TIP3    H233701   3.334   6.122   6.187  1.3526 -0.2910 -0.5889
 4096TIP3   OH233702   3.256   3.204   3.899  0.2923  0.0921  0.7436
 4096TIP3    H133703   3.191   3.216   3.968  0.7285  1.4988  0.9258
 4096TIP3    H233704   3.329   3.261   3.923  1.4717 -1.2227  0.3674
 4097TIP3   OH233705   4.064   2.530  10.948  0.4150  0.4633  0.0907
 4097TIP3    H133706   4.151   2.563  10.930  1.4219 -1.7897  0.6362
 4097TIP3    H233707   4.048   2.465  10.880 -0.5782  0.3970  0.3759
 4098TIP3   OH233708   2.184   0.582  14.700 -0.2086  0.0741 -0.2730
 4098TIP3    H133709   2.121   0.587  14.628  0.5759 -1.6028 -1.1238
 4098TIP3    H233710   2.270   0.587  14.657  0.2487  0.0693  0.6331
 4099TIP3   OH233711   5.502   2.886   1.671  0.1456  0.3540  0.0671
 4099TIP3    H133712   5.568   2.823   1.699  1.2999  1.4635 -0.1452
 4099TIP3    H233713   5.511   2.959   1.731  0.3127  1.2703 -1.0584
 4100TIP3   OH233714   1.571   2.364   3.176 -0.3468  0.5777 -0.0784
 4100TIP3    H133715   1.505   2.411   3.228  0.1182  0.6504  0.4550
 4100TIP3    H233716   1.604   2.296   3.235  0.5394  0.9782 -0.1054
 4101TIP3   OH233717   4.204   5.235   2.964 -0.2916 -0.1125  0.2923
 4101TIP3    H133718   4.168   5.167   2.908  1.0750  0.7050 -1.6183
 4101TIP3    H233719   4.295   5.210   2.978 -0.4874 -0.0602  1.7696
 4102TIP3   OH233720   3.358   2.425   3.582 -0.0026  0.2459 -0.1027
 4102TIP3    H133721   3.323   2.514   3.586  0.4309  0.3949  0.4811
 4102TIP3    H233722   3.292   2.371   3.624 -0.1877  0.3109 -0.3047
 4103TIP3   OH233723   1.117   0.039  10.665  0.7158  0.5461 -0.6929
 4103TIP3    H133724   1.174  -0.038  10.662  0.9402  0.6025  1.2517
 4103TIP3    H233725   1.171   0.110  10.631  0.9990  0.1171 -1.1403
 4104TIP3   OH233726   4.317   2.106   4.589 -0.6598  0.3994  0.2933
 4104TIP3    H133727   4.360   2.021   4.598  0.6539  0.9048 -1.0940
 4104TIP3    H233728   4.228   2.084   4.563 -1.1225 -0.6313  2.5367
 4105TIP3   OH233729   1.164   1.225   3.253 -0.2072 -0.0351 -0.3009
 4105TIP3    H133730   1.219   1.178   3.316 -1.4480  0.6692  1.3107
 4105TIP3    H233731   1.190   1.317   3.262 -0.6763  0.1198 -0.5098
 4106TIP3   OH233732   3.216   1.551  16.270  0.5311  0.2569  0.7830
 4106TIP3    H133733   3.213   1.623  16.334 -0.0156 -0.9450  2.1354
 4106TIP3    H233734   3.137   1.562  16.217  1.4025  1.7435 -0.2516
 4107TIP3   OH233735   4.849   5.607  16.077 -0.4738 -0.0273 -0.6910
 4107TIP3    H133736   4.770   5.652  16.049 -0.5324 -0.8370 -1.8541
 4107TIP3    H233737   4.832   5.515  16.059  0.2275 -0.3621  0.2749
 4108TIP3   OH233738   0.962   6.682  16.944 -0.6404  0.0282  0.2297
 4108TIP3    H133739   0.942   6.753  16.883 -0.5763  0.9264  1.2326
 4108TIP3    H233740   1.005   6.726  17.018 -2.3990 -0.7549  1.7743
 4109TIP3   OH233741   2.132   1.661  15.235 -0.5045 -0.1944  0.3192
 4109TIP3    H133742   2.088   1.590  15.189  1.0328 -0.3224 -0.9783
 4109TIP3    H233743   2.123   1.737  15.178 -2.0147  0.6661  1.6337
 4110TIP3   OH233744   2.767   6.144  17.186 -0.4812 -0.2359 -0.8106
 4110TIP3    H133745   2.836   6.198  17.147 -0.8062  1.4514  0.8305
 4110TIP3    H233746   2.813   6.089  17.249 -0.8705  3.0282  2.5098
 4111TIP3   OH233747   3.718   3.754   4.971 -0.1136 -0.5112  0.5162
 4111TIP3    H133748   3.698   3.843   4.944 -0.9623 -1.0377 -0.6435
 4111TIP3    H233749   3.747   3.711   4.891 -0.6746 -1.5442  0.8585
 4112TIP3   OH233750   6.767   2.596  13.709 -0.1979  0.1755  0.4221
 4112TIP3    H133751   6.820   2.626  13.783 -1.2657 -2.5898  2.4092
 4112TIP3    H233752   6.816   2.521  13.674 -0.5858  0.3641 -0.5306
 4113TIP3   OH233753   0.139   6.322  12.013  0.2397  0.0258  0.5331
 4113TIP3    H133754   0.085   6.349  12.087 -0.2589  0.1367  0.1316
 4113TIP3    H233755   0.178   6.239  12.040 -1.8899 -1.1872 -0.0336
 4114TIP3   OH233756   4.835   4.735   3.547 -0.2967 -0.1479 -0.6214
 4114TIP3    H133757   4.912   4.745   3.601  0.2241  0.5970 -1.4796
 4114TIP3    H233758   4.767   4.702   3.606  0.5619 -0.4230  0.2152
 4115TIP3   OH233759   0.307   4.038   4.855  0.2059  0.4094 -0.0609
 4115TIP3    H133760   0.285   4.130   4.841 -1.1838  0.3364  1.4312
 4115TIP3    H233761   0.226   4.000   4.890  0.4418 -1.6292 -1.6704
 4116TIP3   OH233762   3.593   2.648   1.475 -0.2906  0.1737 -0.8158
 4116TIP3    H133763   3.682   2.670   1.504 -0.3569  0.1466 -0.5920
 4116TIP3    H233764   3.590   2.552   1.480 -0.2119  0.1489 -1.1789
 4117TIP3   OH233765   0.453   0.870  15.985 -0.3939  0.0379  0.4097
 4117TIP3    H133766   0.453   0.823  16.069 -1.4975 -2.3879 -0.9010
 4117TIP3    H233767   0.371   0.918  15.985 -1.4786 -1.7608 -0.2064
 4118TIP3   OH233768   5.150   0.185   3.507 -0.2964  0.2123 -0.1335
 4118TIP3    H133769   5.187   0.248   3.569 -0.2325 -0.3515  0.4063
 4118TIP3    H233770   5.213   0.114   3.504 -1.0094 -0.4452  0.2754
 4119TIP3   OH233771   4.313   4.627  12.092 -0.8494  0.1548 -0.3387
 4119TIP3    H133772   4.351   4.699  12.143  0.2220  0.2835 -1.2936
 4119TIP3    H233773   4.285   4.563  12.157  2.7258 -0.7895  0.3954
 4120TIP3   OH233774   0.673   6.760   0.358  0.0976 -0.1788  0.0921
 4120TIP3    H133775   0.579   6.746   0.371 -0.2768  0.1831 -2.1036
 4120TIP3    H233776   0.705   6.679   0.319  0.2089  0.6139 -1.4848
 4121TIP3   OH233777   4.208   3.820  12.399 -0.5228 -0.3835 -0.8559
 4121TIP3    H133778   4.143   3.757  12.429  0.0805 -0.9477 -0.7128
 4121TIP3    H233779   4.226   3.794  12.308  0.9319 -1.4645 -0.2925
 4122TIP3   OH233780   3.600   2.960  16.180  0.1702  0.1071  0.0616
 4122TIP3    H133781   3.695   2.962  16.176  0.1632  2.2656  0.4115
 4122TIP3    H233782   3.579   2.888  16.239  1.5919 -0.2410  0.1451
 4123TIP3   OH233783   5.900   1.828   0.759 -0.1723  0.0915  0.0268
 4123TIP3    H133784   5.846   1.797   0.831  0.7275 -0.3126  0.5374
 4123TIP3    H233785   5.985   1.785   0.772  0.6768  1.7282 -0.0140
 4124TIP3   OH233786   2.295   6.245  15.448 -0.6778  0.8592  0.5803
 4124TIP3    H133787   2.272   6.206  15.363  1.1144 -0.1731  0.5358
 4124TIP3    H233788   2.211   6.264  15.489 -1.5821 -0.2520 -0.6970
 4125TIP3   OH233789   3.510   4.282   2.681 -0.1835 -0.5253 -0.4788
 4125TIP3    H133790   3.419   4.273   2.710 -0.3275  0.0382 -0.7487
 4125TIP3    H233791   3.513   4.368   2.640  0.5889 -0.3378 -0.0364
 4126TIP3   OH233792   5.288   2.573  15.444  0.5428 -0.2324  0.3816
 4126TIP3    H133793   5.216   2.520  15.409  1.0142 -0.6240  0.0070
 4126TIP3    H233794   5.246   2.628  15.510 -0.5752  1.3794 -1.6256
 4127TIP3   OH233795   3.502   5.268   0.868  0.4271 -0.3505  0.0711
 4127TIP3    H133796   3.420   5.218   0.874 -0.7637  1.3449 -1.3778
 4127TIP3    H233797   3.504   5.320   0.949  0.2892 -0.6989  0.3009
 4128TIP3   OH233798   1.443   2.988   2.190 -0.0386  0.5223 -0.7121
 4128TIP3    H133799   1.423   2.978   2.097 -1.9139  0.8540 -0.3689
 4128TIP3    H233800   1.422   3.080   2.209  0.3483  0.4568  0.0437
 4129TIP3   OH233801   2.088   4.448   3.063  0.1946 -0.0999 -0.0782
 4129TIP3    H133802   2.106   4.356   3.041 -1.4241 -0.6163  0.6892
 4129TIP3    H233803   2.045   4.484   2.985  0.3961 -0.1205 -0.1997
 4130TIP3   OH233804   5.595   0.244  13.942 -0.2528 -0.5148  0.1393
 4130TIP3    H133805   5.604   0.164  13.993 -3.0423 -1.9946 -1.5637
 4130TIP3    H233806   5.666   0.301  13.973 -0.8899 -1.9391  4.4954
 4131TIP3   OH233807   2.113   6.429  14.697  0.0627  0.2060  0.2656
 4131TIP3    H133808   2.188   6.479  14.729  0.3220 -0.3800  0.5708
 4131TIP3    H233809   2.037   6.480  14.724  0.3651  1.2237 -0.7612
 4132TIP3   OH233810   2.570   2.551  16.549 -0.6011  0.4961 -0.2403
 4132TIP3    H133811   2.629   2.483  16.581 -3.0954 -0.3039  2.8509
 4132TIP3    H233812   2.525   2.511  16.474 -0.2402 -0.3492 -0.0117
 4133TIP3   OH233813   3.997   3.553  15.668  0.2931 -0.2144 -0.2701
 4133TIP3    H133814   3.995   3.488  15.738 -0.8239  0.0445 -0.0655
 4133TIP3    H233815   3.907   3.582  15.659  0.7304  1.0544 -0.6066
 4134TIP3   OH233816   5.463   1.253   3.362  0.6238 -0.5871 -0.6495
 4134TIP3    H133817   5.437   1.179   3.417  1.0279 -1.4996 -1.6714
 4134TIP3    H233818   5.506   1.213   3.286 -1.6068  0.5508 -2.5873
 4135TIP3   OH233819   0.142   1.449  11.727  0.4649 -0.1381 -0.0049
 4135TIP3    H133820   0.118   1.537  11.698  1.0228  0.0991  0.2386
 4135TIP3    H233821   0.119   1.447  11.820 -0.4180 -0.5710 -0.2249
 4136TIP3   OH233822   2.630   2.505  14.167  0.2935 -0.5141  0.3155
 4136TIP3    H133823   2.704   2.551  14.208  1.7185 -1.6461 -0.9363
 4136TIP3    H233824   2.558   2.517  14.229  0.9520  2.3128  0.6270
 4137TIP3   OH233825   2.099   3.547   2.031 -0.2062  0.4093  0.1382
 4137TIP3    H133826   2.040   3.522   1.960 -1.0828 -0.2457  1.0745
 4137TIP3    H233827   2.130   3.634   2.007  2.0008 -1.0634 -2.6141
 4138TIP3   OH233828   4.764   1.639   2.242 -0.2514  0.0313 -0.0325
 4138TIP3    H133829   4.679   1.681   2.228  0.2742  0.3753 -2.2841
 4138TIP3    H233830   4.779   1.587   2.164  1.2194 -0.7223  0.7321
 4139TIP3   OH233831   4.075   1.073   4.271  0.2828 -0.2990  0.2613
 4139TIP3    H133832   3.998   1.066   4.215 -0.9086  0.7006  1.6994
 4139TIP3    H233833   4.039   1.083   4.359  2.0823 -0.6474  1.0614
 4140TIP3   OH233834   6.764   3.358   6.188  0.2244 -0.0759 -0.1398
 4140TIP3    H133835   6.813   3.293   6.138  0.6762  1.5479 -1.8341
 4140TIP3    H233836   6.788   3.340   6.279  3.5711  0.3136 -0.8789
 4141TIP3   OH233837   5.076   5.014  11.743  0.3450 -0.1289  0.4112
 4141TIP3    H133838   5.014   5.001  11.813  0.0082  0.2904  0.1967
 4141TIP3    H233839   5.030   4.988  11.663  0.7189 -0.5910  0.3409
 4142TIP3   OH233840   3.459   3.700   3.521  0.1373 -0.3245 -0.2868
 4142TIP3    H133841   3.366   3.685   3.535  0.1404 -1.5980 -1.5023
 4142TIP3    H233842   3.462   3.761   3.447  0.2530  0.8592  0.6782
 4143TIP3   OH233843   4.375   5.027   3.889  0.4197 -0.2084  0.1679
 4143TIP3    H133844   4.326   5.074   3.957 -0.1680 -1.3730  0.5730
 4143TIP3    H233845   4.356   5.075   3.808  1.2706  1.3035  0.8354
 4144TIP3   OH233846   3.734   0.654   1.394  0.3179  0.0278  0.4045
 4144TIP3    H133847   3.771   0.566   1.389 -1.2190 -0.5746 -0.9485
 4144TIP3    H233848   3.790   0.701   1.456  1.4383 -1.7540  0.7605
 4145TIP3   OH233849   2.414   1.315   5.646  0.3901  0.3160 -0.1270
 4145TIP3    H133850   2.467   1.278   5.717 -0.6110 -1.1025 -0.0972
 4145TIP3    H233851   2.325   1.288   5.667  0.0554  0.1221 -1.7922
 4146TIP3   OH233852   0.105   5.587   1.900 -0.3713 -0.5452 -0.1769
 4146TIP3    H133853   0.009   5.587   1.898 -0.4281 -0.9101  1.4824
 4146TIP3    H233854   0.127   5.560   1.989  1.2660  0.7304 -0.1560
 4147TIP3   OH233855   5.478   0.245  15.105  0.1390  0.2118 -0.0747
 4147TIP3    H133856   5.463   0.263  15.012  3.2981 -0.1235 -0.7022
 4147TIP3    H233857   5.489   0.150  15.109  1.7610  0.3964  0.3321
 4148TIP3   OH233858   3.251   0.375   2.561  0.0717 -0.2402  0.0578
 4148TIP3    H133859   3.344   0.363   2.541 -0.2206 -0.0627 -1.5279
 4148TIP3    H233860   3.209   0.294   2.532 -0.4749  0.3130 -0.7370
 4149TIP3   OH233861   2.260   0.663   0.702 -0.6047 -0.5943 -0.0138
 4149TIP3    H133862   2.266   0.755   0.679 -1.6544 -0.3382  0.7010
 4149TIP3    H233863   2.309   0.655   0.784 -0.3774 -0.7122 -0.1584
 4150TIP3   OH233864   2.926   4.057   6.504 -0.3392 -0.2540 -0.3485
 4150TIP3    H133865   3.014   4.033   6.531 -0.8682 -1.4149  0.3901
 4150TIP3    H233866   2.896   3.982   6.452 -0.5417  0.5509 -1.4099
 4151TIP3   OH233867   1.199   2.487  14.259 -0.0553 -0.0013 -0.1179
 4151TIP3    H133868   1.217   2.562  14.315 -1.5977  0.4360 -0.1929
 4151TIP3    H233869   1.167   2.524  14.177 -0.3706 -0.7259 -0.3294
 4152TIP3   OH233870   1.497   4.629   0.721  0.1757  0.2464  0.3037
 4152TIP3    H133871   1.552   4.651   0.646  1.0176  2.0505  1.4185
 4152TIP3    H233872   1.464   4.713   0.752 -2.4732 -0.7273  0.2423
 4153TIP3   OH233873   0.915   3.723   2.689  0.1608 -0.2016 -0.0341
 4153TIP3    H133874   0.865   3.684   2.760  0.3442 -0.3371  0.0209
 4153TIP3    H233875   0.904   3.661   2.616 -0.4539  0.1955 -0.2838
 4154TIP3   OH233876   4.381   3.641   1.419  0.3175 -0.2214  0.0439
 4154TIP3    H133877   4.452   3.598   1.467  1.3101 -0.2843 -1.4608
 4154TIP3    H233878   4.305   3.632   1.476  0.8106 -2.8087  0.3725
 4155TIP3   OH233879   6.549   2.897  10.812  0.1806 -0.4460  0.0543
 4155TIP3    H133880   6.643   2.883  10.825  0.4876 -0.9582 -2.4396
 4155TIP3    H233881   6.534   2.875  10.720 -2.5686 -1.3451  0.6682
 4156TIP3   OH233882   4.272   2.859   0.295  0.0414  0.2018 -0.2134
 4156TIP3    H133883   4.258   2.789   0.231 -0.5783 -0.3640  0.5453
 4156TIP3    H233884   4.187   2.874   0.335  0.0349  1.8227 -0.7987
 4157TIP3   OH233885   0.094   4.301  14.098  0.0289  0.6048 -0.5789
 4157TIP3    H133886   0.183   4.322  14.071  0.0187 -0.5285 -1.5709
 4157TIP3    H233887   0.096   4.305  14.194  1.0925  0.7995 -0.6058
 4158TIP3   OH233888   1.618   0.564   0.146 -0.2861 -0.4591  0.5918
 4158TIP3    H133889   1.666   0.593   0.069  1.4512 -0.3174  1.6975
 4158TIP3    H233890   1.529   0.545   0.114  0.2805  0.0479 -1.3225
 4159TIP3   OH233891   5.615   3.595   6.700  0.3372  0.5445  0.2516
 4159TIP3    H133892   5.661   3.511   6.692  0.8253  0.7728  0.6448
 4159TIP3    H233893   5.641   3.644   6.623 -0.2845  0.1756 -0.1992
 4160TIP3   OH233894   2.078   5.424  16.112 -0.1346  0.3421  0.4387
 4160TIP3    H133895   2.144   5.448  16.176  1.0663  0.5966 -0.8583
 4160TIP3    H233896   2.094   5.331  16.094 -1.1801 -0.0141  1.3194
 4161TIP3   OH233897   4.459   1.187   3.962 -0.0429 -0.4735  0.6043
 4161TIP3    H133898   4.477   1.273   3.999 -1.9972 -0.2090  0.9867
 4161TIP3    H233899   4.429   1.135   4.036 -1.0623 -0.8091 -0.0299
 4162TIP3   OH233900   4.398   5.030   4.916 -0.0472  0.0743  0.1903
 4162TIP3    H133901   4.382   5.103   4.855 -0.9654 -1.7877 -1.8917
 4162TIP3    H233902   4.418   5.072   4.999 -2.2825  2.6989 -0.5222
 4163TIP3   OH233903   2.343   1.071   0.199  0.0866 -0.4672  0.2983
 4163TIP3    H133904   2.254   1.054   0.230  0.0166  0.1242  0.4215
 4163TIP3    H233905   2.395   1.080   0.279  0.0232  0.4193  0.2474
 4164TIP3   OH233906   4.470   5.798  12.570 -0.7550  0.3398  0.2201
 4164TIP3    H133907   4.491   5.738  12.642  3.6700  0.5950 -0.7386
 4164TIP3    H233908   4.525   5.875  12.586 -0.0991  0.6280 -3.0972
 4165TIP3   OH233909   4.911   3.457  16.797 -0.2311  0.0449  0.0567
 4165TIP3    H133910   4.815   3.448  16.796 -0.1618 -0.7062  0.0805
 4165TIP3    H233911   4.941   3.383  16.849  0.2856  1.1065  1.2846
 4166TIP3   OH233912   1.913   2.880  11.734  0.3487  0.3385 -0.8707
 4166TIP3    H133913   1.948   2.919  11.654  0.4416  0.5019 -0.7511
 4166TIP3    H233914   1.910   2.787  11.716 -2.4124  0.6240 -2.1407
 4167TIP3   OH233915   2.370   2.138   3.189  0.4039 -0.3087 -0.8237
 4167TIP3    H133916   2.311   2.107   3.121 -0.4064  0.5258 -0.5117
 4167TIP3    H233917   2.353   2.081   3.263 -1.8573  1.4989  0.1079
 4168TIP3   OH233918   4.756   2.052  13.244  0.6547  0.4115  0.4605
 4168TIP3    H133919   4.719   2.097  13.168  0.8696 -0.7103 -0.3295
 4168TIP3    H233920   4.733   1.960  13.231  1.7264  0.0312  1.1264
 4169TIP3   OH233921   5.529   1.913  15.298 -0.1070  0.4405  0.1361
 4169TIP3    H133922   5.466   1.952  15.359  0.9509  2.9327 -0.3064
 4169TIP3    H233923   5.477   1.888  15.222 -1.1389 -0.9684  1.2800
 4170TIP3   OH233924   5.646   5.757  12.734  0.2904  0.2171 -0.6246
 4170TIP3    H133925   5.563   5.715  12.755  0.7461 -0.1678  0.4315
 4170TIP3    H233926   5.705   5.684  12.714  0.8438  0.3970  0.3483
 4171TIP3   OH233927   0.445   3.767   2.708  0.5513  0.7566  0.0969
 4171TIP3    H133928   0.422   3.836   2.645  0.4535 -0.9379 -1.7623
 4171TIP3    H233929   0.361   3.728   2.733  0.7280  0.2353 -0.1190
 4172TIP3   OH233930   6.473   1.381  15.177  0.6130  0.0107  0.2432
 4172TIP3    H133931   6.422   1.431  15.240  0.3332 -0.9671  0.7944
 4172TIP3    H233932   6.440   1.291  15.184  2.7495 -0.7589  1.0009
 4173TIP3   OH233933   3.909   5.393   2.774  0.0862 -0.2871 -0.2493
 4173TIP3    H133934   3.874   5.320   2.826 -0.5803  1.1948  1.4412
 4173TIP3    H233935   3.834   5.425   2.725  0.0257  0.2452  0.1917
 4174TIP3   OH233936   5.291   3.435   1.302 -0.0479  0.2908 -0.3081
 4174TIP3    H133937   5.317   3.384   1.226  0.8107  0.1289  0.0779
 4174TIP3    H233938   5.238   3.507   1.267 -1.0240 -0.7079 -0.8759
 4175TIP3   OH233939   0.115   0.596  11.895  0.0603  0.4618 -0.2789
 4175TIP3    H133940   0.063   0.676  11.906 -0.0664  0.2714  0.4726
 4175TIP3    H233941   0.092   0.541  11.969  1.8681  0.6492  0.4430
 4176TIP3   OH233942   2.441   2.605   1.338 -0.0324 -0.3938  0.5804
 4176TIP3    H133943   2.477   2.620   1.426  1.5010 -0.7963  0.0426
 4176TIP3    H233944   2.363   2.660   1.334  0.1338 -0.0328  2.0442
 4177TIP3   OH233945   5.805   4.080   6.178  0.5065 -0.3584 -0.0968
 4177TIP3    H133946   5.901   4.082   6.186  0.4735 -0.2266  0.2499
 4177TIP3    H233947   5.775   4.028   6.252  0.2553  0.3293  0.2947
 4178TIP3   OH233948   1.190   2.983   0.029  0.1823  0.1371 -0.7601
 4178TIP3    H133949   1.242   2.924   0.083  2.4312  0.2723 -2.7155
 4178TIP3    H233950   1.158   2.928  -0.043 -3.1208 -0.1352  0.8039
 4179TIP3   OH233951   4.981   0.216  16.976 -0.6057 -0.5115 -0.1434
 4179TIP3    H133952   5.043   0.218  16.902  0.3618  0.9629  0.6716
 4179TIP3    H233953   5.014   0.147  17.033  0.2827  0.2228  0.2551
 4180TIP3   OH233954   4.757   4.253   1.141 -0.2928  0.3277  0.3993
 4180TIP3    H133955   4.718   4.206   1.215 -2.4442 -0.9602 -1.4952
 4180TIP3    H233956   4.687   4.311   1.110 -0.7169 -1.8346 -2.8915
 4181TIP3   OH233957   2.562   4.438  14.614 -0.0803  0.4303  0.0540
 4181TIP3    H133958   2.559   4.485  14.530 -2.3159 -0.2377 -0.2567
 4181TIP3    H233959   2.575   4.347  14.589 -1.5564  0.1247  0.4000
 4182TIP3   OH233960   2.511   6.325   3.697 -0.3444 -0.1012  0.1049
 4182TIP3    H133961   2.457   6.386   3.747  0.5680  1.0080 -0.2569
 4182TIP3    H233962   2.539   6.374   3.620  1.3165 -0.6022  0.3640
 4183TIP3   OH233963   6.750   3.025   3.791 -0.0945 -0.7615 -0.3410
 4183TIP3    H133964   6.788   2.969   3.723 -0.5356 -2.3428  0.6788
 4183TIP3    H233965   6.825   3.063   3.836  0.2931 -2.4630  0.5060
 4184TIP3   OH233966   0.453   1.524   2.764 -0.2855 -1.0042 -0.0685
 4184TIP3    H133967   0.508   1.525   2.842 -3.3747 -2.8064  2.2552
 4184TIP3    H233968   0.499   1.467   2.703  2.9022  1.5703 -0.2311
 4185TIP3   OH233969   6.531   6.287  17.079 -0.5318  0.4695 -0.0212
 4185TIP3    H133970   6.528   6.203  17.125  0.2265  0.3917 -0.1121
 4185TIP3    H233971   6.456   6.284  17.019  0.5875 -0.9046 -1.3727
 4186TIP3   OH233972   0.598   0.920   3.849 -0.1698  0.2236 -0.2952
 4186TIP3    H133973   0.551   0.930   3.766 -1.6369  1.4841  0.6620
 4186TIP3    H233974   0.671   0.982   3.843 -0.3445  0.4010 -0.5764
 4187TIP3   OH233975   1.102   3.017  12.260 -0.7634 -0.2725  0.2623
 4187TIP3    H133976   1.142   3.018  12.347 -1.3477 -1.4599  0.5601
 4187TIP3    H233977   1.025   2.962  12.270 -0.4622 -0.9867 -1.1642
 4188TIP3   OH233978   2.969   5.772  11.536  0.0318 -0.4714  0.0951
 4188TIP3    H133979   2.885   5.757  11.492  0.4965  1.5487 -1.5513
 4188TIP3    H233980   2.970   5.866  11.553  2.9082 -0.0839 -1.9200
 4189TIP3   OH233981   2.942   1.618   2.546 -0.2037  0.2978 -0.0499
 4189TIP3    H133982   3.001   1.542   2.555  0.5515  0.8715 -0.0620
 4189TIP3    H233983   2.978   1.683   2.607 -0.4071  0.9099 -0.5764
 4190TIP3   OH233984   4.678   0.441  13.959  0.8882  0.0147  0.0214
 4190TIP3    H133985   4.656   0.380  13.888 -1.4948 -0.0196  0.7570
 4190TIP3    H233986   4.662   0.391  14.039  2.3834  0.4587  0.6116
 4191TIP3   OH233987   2.533   3.113   2.639  0.2282  0.0542 -0.1076
 4191TIP3    H133988   2.467   3.178   2.661 -0.8995 -1.5776  1.4070
 4191TIP3    H233989   2.503   3.033   2.680  1.9323 -1.2976 -1.4087
 4192TIP3   OH233990   4.553   2.111   1.749 -0.7119  0.3262  0.6409
 4192TIP3    H133991   4.525   2.199   1.775 -0.0872  0.6582  0.1998
 4192TIP3    H233992   4.526   2.055   1.822 -1.8688  0.7462  0.5494
 4193TIP3   OH233993   4.673   4.775   2.964  0.4366 -0.7541 -0.1468
 4193TIP3    H133994   4.617   4.698   2.971 -0.1160 -0.4133 -0.7353
 4193TIP3    H233995   4.660   4.806   2.874  0.2720  0.3146  0.2405
 4194TIP3   OH233996   2.371   0.845  15.680 -0.7181  0.1192 -0.7273
 4194TIP3    H133997   2.466   0.863  15.681 -0.5807 -0.5689  1.9162
 4194TIP3    H233998   2.362   0.768  15.624  0.3638 -0.2478 -0.4066
 4195TIP3   OH233999   0.482   1.991   3.871  0.1875 -0.1394 -0.0619
 4195TIP3    H134000   0.428   1.973   3.795 -0.4754  1.7115 -0.0554
 4195TIP3    H234001   0.569   2.007   3.835  0.1833 -0.6346 -0.2984
 4196TIP3   OH234002   3.815   1.534  12.791  0.5608 -0.8442 -0.0619
 4196TIP3    H134003   3.760   1.514  12.715  1.0732 -0.6686 -0.4733
 4196TIP3    H234004   3.862   1.453  12.808  0.8358 -0.7249 -0.2516
 4197TIP3   OH234005   6.099   5.829   3.987 -0.2727  0.2289  0.3328
 4197TIP3    H134006   6.054   5.914   3.990  1.2213  1.0607 -0.3940
 4197TIP3    H234007   6.084   5.797   3.898 -0.8157 -0.2706  0.5995
 4198TIP3   OH234008   1.077   5.190   1.528 -0.2239 -0.3250  0.0741
 4198TIP3    H134009   1.101   5.100   1.504 -1.1564  0.0621 -2.5482
 4198TIP3    H234010   1.152   5.224   1.575  0.2904 -2.3574  0.7758
 4199TIP3   OH234011   5.779   3.686  13.519 -0.3764  0.6024  0.7966
 4199TIP3    H134012   5.714   3.651  13.458 -1.3542  1.3793  1.3722
 4199TIP3    H234013   5.728   3.741  13.579  0.9271  1.8609  0.7702
 4200TIP3   OH234014   3.814   1.382  11.840  0.3319  0.1762  0.2575
 4200TIP3    H134015   3.895   1.418  11.876  1.1307 -0.0663 -1.2485
 4200TIP3    H234016   3.768   1.458  11.805  1.1089  0.0102 -1.1666
 4201TIP3   OH234017   2.517   6.681   3.178  0.0536 -0.0363  0.5959
 4201TIP3    H134018   2.487   6.770   3.196  0.6858  0.0444  1.2923
 4201TIP3    H234019   2.612   6.690   3.167  0.1801 -0.6763  1.0909
 4202TIP3   OH234020   6.413   4.863  16.643 -0.0244 -0.4108  0.1359
 4202TIP3    H134021   6.415   4.911  16.560  1.7529  1.1492  1.0468
 4202TIP3    H234022   6.321   4.861  16.668 -0.4915 -0.3106 -1.5426
 4203TIP3   OH234023   6.103   3.656  15.264 -0.3889  0.2016  1.0726
 4203TIP3    H134024   6.038   3.726  15.259 -0.2541  0.4075  2.1171
 4203TIP3    H234025   6.070   3.598  15.333 -0.4745 -0.7385  0.2485
 4204TIP3   OH234026   6.387   1.878  14.346  0.2629 -0.3476  0.0882
 4204TIP3    H134027   6.434   1.842  14.421  0.3726  0.8107  0.6037
 4204TIP3    H234028   6.423   1.833  14.270  1.8910  0.1931  0.5157
 4205TIP3   OH234029   0.870   6.128  14.641  0.5455  0.4323  0.2693
 4205TIP3    H134030   0.780   6.099  14.655  0.0165  1.9564  0.0134
 4205TIP3    H234031   0.923   6.050  14.662 -0.6749  0.2380  2.7761
 4206TIP3   OH234032   2.313   2.530  13.620 -0.3908  0.0996 -0.4195
 4206TIP3    H134033   2.321   2.437  13.602 -0.6656  0.0001 -0.0403
 4206TIP3    H234034   2.249   2.535  13.691 -1.2923  0.6567 -1.2574
 4207TIP3   OH234035   2.593   2.088  12.811 -0.3641  0.2957 -0.1818
 4207TIP3    H134036   2.584   2.166  12.866  0.1273  0.6243 -0.5566
 4207TIP3    H234037   2.688   2.077  12.802 -0.4360 -0.2382 -0.2842
 4208TIP3   OH234038   2.889   4.106  14.849  0.0660 -0.0384 -0.7952
 4208TIP3    H134039   2.983   4.120  14.842  0.1295 -0.7590 -1.3857
 4208TIP3    H234040   2.866   4.055  14.772 -0.4721 -1.5876  0.3678
 4209TIP3   OH234041   4.868   5.671   0.561  0.3672  0.4798  0.1856
 4209TIP3    H134042   4.960   5.651   0.544 -0.0576 -0.6111 -0.9031
 4209TIP3    H234043   4.840   5.602   0.620  0.2703  0.8820  0.6131
 4210TIP3   OH234044   6.541   5.958  16.162  0.1237  0.1013 -0.1821
 4210TIP3    H134045   6.600   6.003  16.102 -1.1426  2.5454  0.3608
 4210TIP3    H234046   6.466   6.017  16.172 -0.6161 -1.1578  2.2109
 4211TIP3   OH234047   6.550   0.293   6.192 -0.5780 -0.5233  0.2036
 4211TIP3    H134048   6.565   0.251   6.277 -1.2631  1.2968  1.2434
 4211TIP3    H234049   6.595   0.377   6.198 -1.0974 -0.1398 -1.0382
 4212TIP3   OH234050   6.457   0.405  14.121  0.2809 -0.0253 -0.0842
 4212TIP3    H134051   6.549   0.379  14.113  0.8711  1.9077  0.1802
 4212TIP3    H234052   6.447   0.476  14.058 -1.3188 -0.9581 -0.8853
 4213TIP3   OH234053   5.202   1.685  13.715  1.0468  0.0785  0.0654
 4213TIP3    H134054   5.131   1.728  13.762  0.5779  0.6307 -1.1297
 4213TIP3    H234055   5.215   1.602  13.762  1.5471  1.2291  1.9981
 4214TIP3   OH234056   0.738   0.066  13.655  0.0001  0.3278  0.0885
 4214TIP3    H134057   0.833   0.073  13.667  0.0927  2.5627 -1.7910
 4214TIP3    H234058   0.701   0.125  13.721 -0.0454  0.3732  0.0222
 4215TIP3   OH234059   0.254   2.259  14.337  0.3197 -0.3950  0.2245
 4215TIP3    H134060   0.215   2.249  14.251  1.5991  2.1050 -0.6828
 4215TIP3    H234061   0.217   2.341  14.371 -1.0786 -1.9363  2.5757
 4216TIP3   OH234062   2.748   1.026   0.620  0.0554 -0.0053 -0.0142
 4216TIP3    H134063   2.685   1.084   0.578  0.8022 -0.2016 -1.4196
 4216TIP3    H234064   2.809   1.085   0.664 -0.7944  0.1982  0.9037
 4217TIP3   OH234065   0.328   2.813   0.346  0.2310 -0.4501  0.6185
 4217TIP3    H134066   0.414   2.826   0.386 -0.0011 -2.6833  1.9533
 4217TIP3    H234067   0.278   2.767   0.414 -1.1361 -1.5954 -1.1461
 4218TIP3   OH234068   2.794   5.660   5.278  0.3861 -0.0965  0.0505
 4218TIP3    H134069   2.739   5.708   5.339 -0.7077  0.0283 -0.9985
 4218TIP3    H234070   2.734   5.600   5.234  0.8068  0.9284 -2.0211
 4219TIP3   OH234071   5.646   6.206   0.158 -0.1188 -0.0060  0.3188
 4219TIP3    H134072   5.634   6.112   0.142 -2.3276  0.4872 -1.2179
 4219TIP3    H234073   5.685   6.210   0.245 -0.3717 -2.3445  0.5941
 4220TIP3   OH234074   2.194   5.186   4.784 -0.3736  0.0084 -0.4224
 4220TIP3    H134075   2.239   5.253   4.835  0.0451 -0.4524 -0.1660
 4220TIP3    H234076   2.110   5.174   4.828  0.3222 -0.9907  0.6983
 4221TIP3   OH234077   3.215   2.036   4.935 -0.6149 -0.1299  0.2209
 4221TIP3    H134078   3.220   1.941   4.938  2.5053 -0.0308 -0.0501
 4221TIP3    H234079   3.173   2.061   5.017  1.6787 -1.6095  1.9122
 4222TIP3   OH234080   2.640   1.043   2.770 -0.0665 -0.2219 -0.2901
 4222TIP3    H134081   2.636   1.077   2.681 -0.3540 -0.5505 -0.4053
 4222TIP3    H234082   2.686   1.110   2.819  2.5947 -1.2628 -1.2735
 4223TIP3   OH234083   4.893   5.670   4.645 -0.2814  0.9197  0.3552
 4223TIP3    H134084   4.817   5.672   4.587 -1.4055 -0.3323  1.7697
 4223TIP3    H234085   4.894   5.756   4.688  1.4645  2.4710 -2.5985
 4224TIP3   OH234086   1.536   2.708  14.881 -0.3170 -0.0921  0.1816
 4224TIP3    H134087   1.555   2.756  14.800  2.6282 -2.2263 -0.4948
 4224TIP3    H234088   1.542   2.773  14.950  1.1401  0.9967 -0.9405
 4225TIP3   OH234089   3.712   0.596   0.889  0.4051  0.3107 -0.4724
 4225TIP3    H134090   3.796   0.607   0.932  1.3668  0.1247 -2.2404
 4225TIP3    H234091   3.725   0.521   0.831  0.2595  2.5724 -3.5858
 4226TIP3   OH234092   5.011   2.995   6.632 -0.1554 -0.3388 -0.5913
 4226TIP3    H134093   5.031   3.078   6.675  2.0034 -2.0911  2.0181
 4226TIP3    H234094   5.081   2.985   6.568  0.3510 -0.7213  0.0091
 4227TIP3   OH234095   3.698   1.143  16.226 -0.4320 -0.9535 -0.6034
 4227TIP3    H134096   3.614   1.134  16.181  0.2125  0.2880 -2.0824
 4227TIP3    H234097   3.738   1.222  16.188 -0.0177  0.3541  2.3761
 4228TIP3   OH234098   5.885   2.623  16.433  0.0189 -0.0934 -0.0967
 4228TIP3    H134099   5.810   2.568  16.409  0.3425 -1.1979  1.3506
 4228TIP3    H234100   5.960   2.563  16.432  1.2332  1.3640 -3.2651
 4229TIP3   OH234101   0.457   2.126  15.347 -0.0694  0.1026 -0.3772
 4229TIP3    H134102   0.374   2.077  15.342  0.1220 -0.1667 -1.1583
 4229TIP3    H234103   0.488   2.127  15.256  1.4635 -0.9918  0.1153
 4230TIP3   OH234104   4.429   0.843   0.016  0.1311  0.5500  0.4263
 4230TIP3    H134105   4.457   0.935   0.020  2.4278 -0.0708 -0.3209
 4230TIP3    H234106   4.427   0.823  -0.078 -0.6315 -0.0882  0.5763
 4231TIP3   OH234107   4.290   2.060  16.635  0.1598 -0.0748  0.1521
 4231TIP3    H134108   4.261   2.129  16.694 -0.8565 -0.0016 -0.4026
 4231TIP3    H234109   4.338   1.999  16.690  1.2016  1.1507  0.6188
 4232TIP3   OH234110   4.079   2.146  15.203 -0.0731 -0.3467 -0.3141
 4232TIP3    H134111   4.080   2.055  15.230 -1.5454  0.2904  2.1206
 4232TIP3    H234112   4.135   2.150  15.125  0.7892 -3.1070  0.1328
 4233TIP3   OH234113   4.756   2.289   5.831  0.0453  0.1294  0.3138
 4233TIP3    H134114   4.778   2.328   5.747  1.0028 -1.4801 -0.1945
 4233TIP3    H234115   4.772   2.359   5.895  2.1254  0.4551 -0.5433
 4234TIP3   OH234116   0.579   3.280  15.309  0.6830 -0.0037 -0.1297
 4234TIP3    H134117   0.529   3.360  15.290 -0.2784 -0.3987  0.6763
 4234TIP3    H234118   0.645   3.309  15.371  0.5580  0.2445 -0.1075
 4235TIP3   OH234119   4.574   2.888  15.200  0.2211  0.1055  0.6206
 4235TIP3    H134120   4.478   2.884  15.198  0.2876 -1.2855 -2.0449
 4235TIP3    H234121   4.600   2.812  15.253 -0.1263 -0.7033 -0.3435
 4236TIP3   OH234122   4.969   0.058   5.544  0.1075  0.0796 -0.1344
 4236TIP3    H134123   4.963  -0.036   5.559 -0.8251  0.1054 -0.3350
 4236TIP3    H234124   5.037   0.088   5.604 -0.9593 -0.4013  1.3423
 4237TIP3   OH234125   2.164   4.289  14.362  0.2626 -0.3282  0.0700
 4237TIP3    H134126   2.119   4.239  14.294 -0.3317 -1.3902  1.2330
 4237TIP3    H234127   2.098   4.305  14.428  0.5011  1.8674 -0.2034
 4238TIP3   OH234128   4.989   5.183   5.151  0.6578  0.1666 -0.0559
 4238TIP3    H134129   5.081   5.168   5.129  0.4276  0.6003 -1.3918
 4238TIP3    H234130   4.977   5.278   5.144  0.3084  0.2022  0.9341
 4239TIP3   OH234131   6.554   3.808   1.446  0.0306  0.0392 -0.3704
 4239TIP3    H134132   6.591   3.727   1.412 -1.8949 -0.3945 -1.4745
 4239TIP3    H234133   6.564   3.871   1.373 -0.2170  0.2742 -0.2021
 4240TIP3   OH234134   2.804   0.272  15.063  0.0814  0.0391  0.1645
 4240TIP3    H134135   2.892   0.283  15.098  0.8006 -0.9265 -1.3384
 4240TIP3    H234136   2.761   0.357  15.078  1.3725  0.6247  0.5612
 4241TIP3   OH234137   0.062   5.979   2.746  0.1273  0.0692  0.0218
 4241TIP3    H134138   0.071   5.895   2.703  2.0538  0.3148 -0.1273
 4241TIP3    H234139   0.070   5.959   2.840 -1.7658 -0.1849  0.1412
 4242TIP3   OH234140   1.354   6.082  14.001  0.0364  0.4083 -0.0173
 4242TIP3    H134141   1.399   6.099  14.084  2.2173  0.9979 -1.2648
 4242TIP3    H234142   1.301   6.161  13.987 -1.7202 -0.4334  1.6343
 4243TIP3   OH234143   3.225   1.106   0.294 -0.1273  0.3039 -1.2976
 4243TIP3    H134144   3.267   1.174   0.241  0.4260  0.1867 -1.0108
 4243TIP3    H234145   3.291   1.082   0.358 -1.1921  1.2501  0.1801
 4244TIP3   OH234146   0.347   0.206  16.155 -0.3861  0.1810  0.4098
 4244TIP3    H134147   0.418   0.155  16.193  0.7839  0.6843 -1.0016
 4244TIP3    H234148   0.392   0.278  16.109 -1.8601  1.0455  0.2781
 4245TIP3   OH234149   0.893   0.542  11.795  0.0797  0.2944 -0.5432
 4245TIP3    H134150   0.880   0.611  11.730 -0.4448 -0.3970 -1.1767
 4245TIP3    H234151   0.962   0.576  11.853  1.4667  0.3854 -2.1987
 4246TIP3   OH234152   0.692   0.464  16.251  0.2841 -0.4379  0.1954
 4246TIP3    H134153   0.738   0.411  16.316 -0.9644 -1.3206  0.3595
 4246TIP3    H234154   0.715   0.554  16.273 -0.0404 -0.7386  1.7798
 4247TIP3   OH234155   3.988   0.914  11.889  0.1564  0.5837  0.5363
 4247TIP3    H134156   4.063   0.903  11.830  0.4396  0.6480  0.8839
 4247TIP3    H234157   3.929   0.843  11.864 -0.9085  2.1682 -1.6004
 4248TIP3   OH234158   2.469   5.612  17.122  0.2931  0.4595  0.5191
 4248TIP3    H134159   2.480   5.572  17.209  0.9545 -0.0349  0.2148
 4248TIP3    H234160   2.504   5.546  17.061  0.3607  1.0439 -0.0772
 4249TIP3   OH234161   0.003   5.466  15.988  0.4397  0.1680 -0.3252
 4249TIP3    H134162  -0.011   5.556  16.018 -0.0681 -0.1068  0.2708
 4249TIP3    H234163  -0.059   5.414  16.038 -0.1563 -0.3590 -1.5847
 4250TIP3   OH234164   3.960   6.542  14.010 -0.5887 -0.4787  0.0333
 4250TIP3    H134165   4.020   6.471  13.986 -0.1706 -0.9831  2.4242
 4250TIP3    H234166   4.017   6.607  14.051 -1.2025  0.5628 -0.7575
 4251TIP3   OH234167   2.365   6.408  12.075  0.1183 -0.2148  0.1877
 4251TIP3    H134168   2.350   6.327  12.026  0.3583 -0.0988 -0.0839
 4251TIP3    H234169   2.288   6.462  12.056  0.4396  0.0237 -0.4668
 4252TIP3   OH234170   1.224   4.433  15.845 -0.0233  0.2183  0.8025
 4252TIP3    H134171   1.171   4.433  15.925 -1.5255  1.0237 -0.1576
 4252TIP3    H234172   1.245   4.525  15.830  0.4812  0.0440  0.4229
 4253TIP3   OH234173   5.012   4.143  15.842 -0.1755  0.0729  0.1049
 4253TIP3    H134174   5.047   4.087  15.772  2.0883 -0.5454  1.6837
 4253TIP3    H234175   4.932   4.181  15.804  1.2119  0.1011 -2.9814
 4254TIP3   OH234176   4.648   2.619   5.220  0.1432 -0.3100 -0.8143
 4254TIP3    H134177   4.686   2.704   5.196 -1.9659  0.9585  0.2441
 4254TIP3    H234178   4.556   2.637   5.236 -0.5429 -2.9892 -1.4219
 4255TIP3   OH234179   1.768   3.954  13.947 -0.2498  0.2273  0.4637
 4255TIP3    H134180   1.720   3.871  13.948  1.0823 -0.5733 -0.3478
 4255TIP3    H234181   1.858   3.930  13.970  0.1963  1.4007 -0.0236
 4256TIP3   OH234182   5.467   3.075  13.485 -0.5817  0.1849  0.2558
 4256TIP3    H134183   5.539   3.068  13.548  0.2880 -2.7749 -1.0020
 4256TIP3    H234184   5.412   2.998  13.502 -1.4105  0.4034 -1.2854
 4257TIP3   OH234185   1.722   4.108   1.221 -0.7680 -0.0475  0.7499
 4257TIP3    H134186   1.698   4.174   1.157 -2.4366  0.6463  2.0325
 4257TIP3    H234187   1.818   4.108   1.221 -0.7382  1.7780  0.1143
 4258TIP3   OH234188   5.114   2.968   1.460  0.0408 -0.2897 -0.1487
 4258TIP3    H134189   5.191   2.927   1.421  1.4236  1.6339  0.4929
 4258TIP3    H234190   5.149   3.034   1.519 -2.1065 -0.0820  0.9411
 4259TIP3   OH234191   0.818   2.873   0.761  0.1238  0.4618 -0.1387
 4259TIP3    H134192   0.848   2.926   0.835 -3.2857  0.5585  1.2911
 4259TIP3    H234193   0.853   2.786   0.779  2.4910  1.3190 -0.4482
 4260TIP3   OH234194   3.224   0.915  13.378  0.1671  0.4423 -0.1392
 4260TIP3    H134195   3.273   0.990  13.411  0.9468 -1.0053  2.0944
 4260TIP3    H234196   3.286   0.868  13.322  0.8995 -0.5590  1.4723
 4261TIP3   OH234197   3.878   5.290   0.380 -0.8393  0.2978 -0.1754
 4261TIP3    H134198   3.966   5.291   0.342 -0.1215  0.1401  1.4392
 4261TIP3    H234199   3.820   5.312   0.308  0.4840 -0.1547 -1.3944
 4262TIP3   OH234200   3.908   4.692  15.151  0.4197  0.2558  0.2179
 4262TIP3    H134201   3.847   4.740  15.207 -2.4205  0.8012 -3.1598
 4262TIP3    H234202   3.879   4.601  15.156 -0.0275  0.3501 -0.5355
 4263TIP3   OH234203   6.488   0.711   4.023 -0.3241 -0.3666 -0.4791
 4263TIP3    H134204   6.493   0.749   4.110  1.1573 -1.3074 -0.1293
 4263TIP3    H234205   6.470   0.785   3.965 -4.5060 -0.1426  0.9201
 4264TIP3   OH234206   5.393   0.184  11.662  0.3788  0.5660  0.1797
 4264TIP3    H134207   5.310   0.214  11.625  0.0148 -0.0702  0.4777
 4264TIP3    H234208   5.452   0.179  11.586 -0.0384  0.3755 -0.1367
 4265TIP3   OH234209   4.929   4.574   1.171 -0.2424 -0.8850  0.0183
 4265TIP3    H134210   4.971   4.611   1.249  0.2887  0.1103 -0.7390
 4265TIP3    H234211   4.850   4.531   1.205  0.1904 -0.7986  1.1519
 4266TIP3   OH234212   3.232   5.653  14.600  0.6128  0.4040  0.3286
 4266TIP3    H134213   3.298   5.594  14.637 -0.9094 -0.7490  1.2522
 4266TIP3    H234214   3.158   5.648  14.661  0.4119  3.2343  0.4214
 4267TIP3   OH234215   5.351   6.070  15.304 -0.4630 -0.3721  0.2125
 4267TIP3    H134216   5.259   6.055  15.285 -0.2399 -0.7744 -0.5664
 4267TIP3    H234217   5.381   6.130  15.235  0.1404 -1.1633 -0.2216
 4268TIP3   OH234218   2.853   0.353  11.137 -0.0351 -0.4459  0.5020
 4268TIP3    H134219   2.943   0.325  11.155  0.6165 -0.2990 -2.3758
 4268TIP3    H234220   2.808   0.272  11.112 -0.9068 -0.6319  2.5841
 4269TIP3   OH234221   3.033   5.172  13.016  0.2921 -0.3127 -0.0734
 4269TIP3    H134222   3.056   5.094  12.966  0.1531 -1.3772  1.5191
 4269TIP3    H234223   3.003   5.140  13.101  1.9868  1.5486  1.2799
 4270TIP3   OH234224   0.609   6.069  12.184 -0.2512 -0.2490 -0.8646
 4270TIP3    H134225   0.612   5.992  12.127 -2.4245  0.1748 -1.6091
 4270TIP3    H234226   0.578   6.036  12.268 -2.7790  0.0336 -1.6495
 4271TIP3   OH234227   4.221   4.302   1.995 -0.2135  0.0584 -0.6546
 4271TIP3    H134228   4.212   4.209   2.016  0.2925 -0.3240 -2.1222
 4271TIP3    H234229   4.255   4.341   2.076  3.0136 -1.6307 -1.1384
 4272TIP3   OH234230   5.903   5.332   5.822 -0.5459  0.3039 -0.1123
 4272TIP3    H134231   5.848   5.390   5.768  2.0583  1.7624 -1.3255
 4272TIP3    H234232   5.854   5.322   5.904 -3.0049  0.8221 -1.4567
 4273TIP3   OH234233   5.184   6.616  15.461  0.4384  0.7259 -0.1817
 4273TIP3    H134234   5.219   6.605  15.549  0.0130  1.8500  0.1358
 4273TIP3    H234235   5.206   6.707  15.438  0.6690  0.4008 -1.2809
 4274TIP3   OH234236   4.064   1.587  14.404  0.8790 -0.1038  0.1663
 4274TIP3    H134237   4.037   1.595  14.496  0.7354 -0.3832  0.1522
 4274TIP3    H234238   3.995   1.533  14.364  1.4641 -0.8383  0.1308
 4275TIP3   OH234239   5.956   1.341   4.347  0.2391 -0.8063  0.2226
 4275TIP3    H134240   6.028   1.288   4.314 -1.1485 -2.1020 -0.8279
 4275TIP3    H234241   5.970   1.345   4.441  0.2312 -3.3240  0.3715
 4276TIP3   OH234242   5.830   4.659  14.243  0.4349 -0.1461  0.1596
 4276TIP3    H134243   5.815   4.567  14.222 -0.0788  0.4541 -2.3025
 4276TIP3    H234244   5.743   4.699  14.243  0.7607  0.5907 -0.1720
 4277TIP3   OH234245   0.040   2.523  15.847  0.1175 -0.3951  0.0065
 4277TIP3    H134246  -0.054   2.516  15.832  0.2403  1.6487 -1.9200
 4277TIP3    H234247   0.077   2.444  15.807 -0.5967 -0.2062 -1.0347
 4278TIP3   OH234248   4.861   3.627  11.758  0.3766 -0.4313  0.8027
 4278TIP3    H134249   4.798   3.557  11.741 -0.7110  0.5957  0.5248
 4278TIP3    H234250   4.890   3.613  11.848 -1.1635 -0.2038  1.3465
 4279TIP3   OH234251   4.676   5.725  14.955 -0.1706  0.7553 -0.2406
 4279TIP3    H134252   4.666   5.820  14.962  0.0866  0.8380 -0.9986
 4279TIP3    H234253   4.627   5.701  14.876  0.8171  0.4142 -0.7549
 4280TIP3   OH234254   5.623   5.149   4.110 -0.2039  0.0579 -0.0168
 4280TIP3    H134255   5.697   5.177   4.057 -0.2024  0.4353  0.1866
 4280TIP3    H234256   5.571   5.229   4.124 -0.7727 -0.2452 -0.3569
 4281TIP3   OH234257   4.091   0.889   1.287  0.0598  0.1858 -0.0317
 4281TIP3    H134258   4.134   0.922   1.365 -0.6779 -0.2102  0.5537
 4281TIP3    H234259   4.097   0.793   1.295  1.4985  0.1543 -1.3158
 4282TIP3   OH234260   6.309   1.457  13.862 -0.2778 -0.4860 -0.2187
 4282TIP3    H134261   6.387   1.472  13.915 -1.0140  0.6033  0.5715
 4282TIP3    H234262   6.314   1.365  13.837  1.3909 -0.3592 -0.3871
 4283TIP3   OH234263   1.017   5.627  14.112 -0.5280  0.0704  0.1722
 4283TIP3    H134264   1.064   5.705  14.083 -2.0452  0.6465 -0.8252
 4283TIP3    H234265   0.996   5.580  14.031  0.1226 -1.2418  0.7425
 4284TIP3   OH234266   5.384   0.879   0.994  0.2316 -0.2557 -0.2909
 4284TIP3    H134267   5.451   0.837   0.940  0.7290 -1.2602  1.0747
 4284TIP3    H234268   5.319   0.810   1.009  1.0715 -0.6051  1.9954
 4285TIP3   OH234269   0.156   2.174  14.962  0.1453  0.3113  0.2249
 4285TIP3    H134270   0.133   2.123  14.885  0.1073 -0.8896  1.0106
 4285TIP3    H234271   0.214   2.242  14.930  1.7701 -1.4031 -0.5401
 4286TIP3   OH234272   3.863   0.558  13.647 -0.1969 -0.5879 -0.0016
 4286TIP3    H134273   3.885   0.468  13.623 -2.3512 -1.2812  0.4578
 4286TIP3    H234274   3.918   0.612  13.592 -0.1843 -2.1985 -1.6152
 4287TIP3   OH234275   2.420   5.614   2.812 -0.2411 -0.8136 -0.0247
 4287TIP3    H134276   2.394   5.540   2.758  0.6664 -0.3220 -1.1767
 4287TIP3    H234277   2.455   5.678   2.749  2.7254 -1.0483  1.3147
 4288TIP3   OH234278   5.201   4.861  10.937 -0.6408 -0.2939  0.2021
 4288TIP3    H134279   5.249   4.907  11.007  1.4245 -2.8173  0.5216
 4288TIP3    H234280   5.138   4.806  10.983 -0.3834 -0.7384  0.0308
 4289TIP3   OH234281   3.548   0.875  14.744  0.1546 -0.1224 -0.4397
 4289TIP3    H134282   3.532   0.878  14.650  1.5378  2.0573 -0.6417
 4289TIP3    H234283   3.513   0.958  14.777  1.2157 -0.1236  0.7020
 4290TIP3   OH234284   2.977   4.497   5.448 -0.2142 -0.0860 -0.5835
 4290TIP3    H134285   3.004   4.586   5.427  0.3769  0.0819  0.8998
 4290TIP3    H234286   2.889   4.507   5.483 -0.4980 -0.1923 -1.2442
 4291TIP3   OH234287   4.778   6.476  14.645  0.5881 -0.4856  0.2531
 4291TIP3    H134288   4.793   6.458  14.737 -0.9408 -0.1722  0.5688
 4291TIP3    H234289   4.756   6.391  14.607  0.1426 -0.4270  0.3854
 4292TIP3   OH234290   0.762   3.846  11.228  0.3792  0.3724 -0.2159
 4292TIP3    H134291   0.701   3.790  11.181 -1.1130  1.5633  0.2510
 4292TIP3    H234292   0.750   3.824  11.321 -2.1479  3.2121  0.2266
 4293TIP3   OH234293   3.677   4.919   1.725 -0.3188  0.5216  0.4426
 4293TIP3    H134294   3.701   4.977   1.653 -2.5925 -0.2201 -0.9837
 4293TIP3    H234295   3.714   4.960   1.803  0.3997  2.4572 -0.8815
 4294TIP3   OH234296   4.376   1.603  15.029  0.6632  0.4657 -0.7472
 4294TIP3    H134297   4.338   1.524  15.067  0.8818  0.1473 -1.1807
 4294TIP3    H234298   4.300   1.659  15.009  0.4055 -0.2206 -1.7338
 4295TIP3   OH234299   3.446   4.439  15.013 -0.0576 -0.3139 -0.2905
 4295TIP3    H134300   3.402   4.479  14.938 -1.6060  0.7208  1.1147
 4295TIP3    H234301   3.405   4.353  15.021 -0.2762 -0.2148 -0.3214
 4296TIP3   OH234302   1.134   5.663   3.265  0.2189 -0.1371 -0.2263
 4296TIP3    H134303   1.065   5.618   3.314  0.1799 -1.4679 -1.4395
 4296TIP3    H234304   1.216   5.632   3.305  0.1268  1.1994  1.0102
 4297TIP3   OH234305   1.066   4.292   4.421 -0.3433  0.1589  0.1129
 4297TIP3    H134306   1.144   4.303   4.367 -1.4248  0.2539 -1.4540
 4297TIP3    H234307   1.079   4.209   4.467 -0.5650 -1.2181 -2.2688
 4298TIP3   OH234308   2.898   5.018   0.881 -0.0138 -0.2836  0.3558
 4298TIP3    H134309   2.860   5.104   0.898 -1.0357 -0.6012 -0.2772
 4298TIP3    H234310   2.859   4.991   0.798  1.2159 -0.8461 -0.0452
 4299TIP3   OH234311   0.508   0.876  13.707  0.2967  0.5462 -0.2047
 4299TIP3    H134312   0.468   0.948  13.658 -0.9032  0.4392  0.6050
 4299TIP3    H234313   0.482   0.892  13.798 -0.2572 -1.1001 -0.0716
 4300TIP3   OH234314   5.855   5.788  16.686  0.1270  0.1367  0.5745
 4300TIP3    H134315   5.828   5.838  16.763 -1.2378 -0.0058  0.2059
 4300TIP3    H234316   5.874   5.855  16.620  0.1126  0.2240  0.6607
 4301TIP3   OH234317   0.763   3.968   3.128 -0.2764  0.2755  0.3883
 4301TIP3    H134318   0.690   4.016   3.088  1.2732  0.7407 -2.0028
 4301TIP3    H234319   0.780   3.896   3.067  0.3725 -0.6419  1.6413
 4302TIP3   OH234320   1.408   0.734   4.172 -0.1993 -0.1820  0.0474
 4302TIP3    H134321   1.401   0.746   4.267 -0.4055 -3.0683  0.4509
 4302TIP3    H234322   1.461   0.808   4.143 -0.4839  0.9982  2.3349
 4303TIP3   OH234323   6.509   5.067   2.405 -0.0132 -0.6379  0.0174
 4303TIP3    H134324   6.522   5.162   2.395 -1.0490 -0.5000 -0.0119
 4303TIP3    H234325   6.598   5.032   2.405  0.4536  0.4799  1.6526
 4304TIP3   OH234326   1.193   4.473   2.590 -0.3521 -0.3659 -0.4717
 4304TIP3    H134327   1.235   4.546   2.635 -0.4138 -0.9140  0.5050
 4304TIP3    H234328   1.203   4.492   2.497 -1.3871  1.4795 -0.2343
 4305TIP3   OH234329   0.854   2.046   0.779  0.0794 -0.6229  0.3460
 4305TIP3    H134330   0.889   1.961   0.806  3.9446  0.1162 -1.9970
 4305TIP3    H234331   0.852   2.098   0.860  1.8520 -1.5702  1.0078
 4306TIP3   OH234332   4.903   0.335   1.874  0.2124 -0.3268  0.4166
 4306TIP3    H134333   4.940   0.415   1.910 -4.0852  0.5636  3.1466
 4306TIP3    H234334   4.831   0.365   1.818 -0.5742 -2.2260  0.3762
 4307TIP3   OH234335   4.778   1.387  15.909  1.2389 -0.3758  0.2913
 4307TIP3    H134336   4.812   1.373  15.820  0.3925  1.6083 -0.3640
 4307TIP3    H234337   4.827   1.463  15.941 -0.7860  0.9576  0.2739
 4308TIP3   OH234338   1.567   0.671  14.456  0.6695 -0.7701  0.2309
 4308TIP3    H134339   1.489   0.624  14.425 -0.2004  0.9344 -0.2084
 4308TIP3    H234340   1.552   0.681  14.550 -1.0431  2.0091 -0.2574
 4309TIP3   OH234341   4.509   3.334   1.431 -0.1272 -0.3068  0.2189
 4309TIP3    H134342   4.558   3.354   1.351  1.5130 -2.6111  0.5963
 4309TIP3    H234343   4.527   3.408   1.489 -1.1069  1.2506 -1.4049
 4310TIP3   OH234344   2.104   5.866   5.702 -0.2789 -0.2228 -0.1947
 4310TIP3    H134345   2.029   5.807   5.703 -0.2530 -0.2684 -0.7309
 4310TIP3    H234346   2.119   5.888   5.794 -1.1664  0.0710 -0.1169
 4311TIP3   OH234347   6.577   1.665  15.354  0.5575 -0.3948  0.3685
 4311TIP3    H134348   6.496   1.667  15.405  0.1312  0.3141 -0.3351
 4311TIP3    H234349   6.553   1.703  15.269  1.4276 -0.9364 -0.1253
 4312TIP3   OH234350   6.422   4.104   5.200  0.0144 -0.4172 -0.2059
 4312TIP3    H134351   6.376   4.022   5.217 -1.6302  0.7370  1.0806
 4312TIP3    H234352   6.398   4.161   5.273  1.0486  1.2381 -1.1192
 4313TIP3   OH234353   0.782   0.928   4.211 -0.1088  0.2702 -0.3587
 4313TIP3    H134354   0.702   0.961   4.252  1.4530  1.4269  1.9030
 4313TIP3    H234355   0.806   0.995   4.148  0.3926  1.1542  0.7431
 4314TIP3   OH234356   0.320   0.898   2.442  0.0994 -0.1127 -0.0694
 4314TIP3    H134357   0.366   0.867   2.520 -0.6104 -1.7913 -0.2852
 4314TIP3    H234358   0.228   0.896   2.466 -0.0233  1.0219 -0.4007
 4315TIP3   OH234359   0.447   2.085   1.580 -0.2608 -0.0742 -0.4260
 4315TIP3    H134360   0.492   2.003   1.602 -1.6058 -1.1385 -1.5233
 4315TIP3    H234361   0.415   2.118   1.664  0.5555 -0.5051  0.0640
 4316TIP3   OH234362   4.397   3.891  11.453  0.6227 -0.4861  0.1476
 4316TIP3    H134363   4.349   3.812  11.429  2.9958 -1.6949 -0.7527
 4316TIP3    H234364   4.333   3.944  11.502 -2.3973 -0.8189 -3.2520
 4317TIP3   OH234365   0.542   6.076   4.464  0.0096  0.1047  0.5166
 4317TIP3    H134366   0.489   6.093   4.541 -0.9129  1.1186 -0.3371
 4317TIP3    H234367   0.633   6.082   4.495 -0.3406  2.0120  1.1961
 4318TIP3   OH234368   2.988   1.812   0.285  0.3459 -0.3278  0.8608
 4318TIP3    H134369   2.983   1.901   0.319 -3.2854  0.6123 -1.8631
 4318TIP3    H234370   3.032   1.821   0.200 -2.5735 -0.6157 -0.7522
 4319TIP3   OH234371   0.394   6.087  15.877 -0.4973 -0.5491  0.0382
 4319TIP3    H134372   0.324   6.151  15.865 -0.7879 -1.0928 -1.2308
 4319TIP3    H234373   0.351   6.014  15.922 -0.0278  0.3756  2.0314
 4320TIP3   OH234374   4.159   6.154  16.225 -1.4108  0.2921  0.4385
 4320TIP3    H134375   4.139   6.062  16.214 -1.1938  0.4297 -1.3171
 4320TIP3    H234376   4.129   6.195  16.143  1.7929  1.1895 -0.3767
 4321TIP3   OH234377   3.772   1.189  14.155 -0.4144 -0.0869  0.2670
 4321TIP3    H134378   3.789   1.142  14.237  1.8474  1.1521  0.5420
 4321TIP3    H234379   3.697   1.245  14.175 -0.5995 -0.6375  1.1483
 4322TIP3   OH234380   6.225   6.139  10.331 -0.4498  0.5773 -0.3826
 4322TIP3    H134381   6.294   6.178  10.278 -0.6267  0.6528 -0.5593
 4322TIP3    H234382   6.256   6.051  10.350 -0.3412  0.5860 -0.5255
 4323TIP3   OH234383   5.031   3.820  16.331  0.9963 -0.6046 -0.5204
 4323TIP3    H134384   5.117   3.837  16.369  0.6720 -0.2626  0.0619
 4323TIP3    H234385   5.029   3.872  16.251  0.7688  0.5640  0.2344
 4324TIP3   OH234386   3.420   1.756   5.170  0.1134  0.2410  0.0805
 4324TIP3    H134387   3.509   1.731   5.144 -0.3726 -0.9008 -0.4965
 4324TIP3    H234388   3.370   1.755   5.089 -0.6513 -0.0436  0.5533
 4325TIP3   OH234389   6.345   1.848  13.643  0.2899 -0.1033  0.2396
 4325TIP3    H134390   6.305   1.820  13.726  1.8009 -1.0052  0.6900
 4325TIP3    H234391   6.288   1.811  13.575 -1.5192  1.4707  0.8539
 4326TIP3   OH234392   0.704   1.839  16.289 -0.0975  0.3033  0.1870
 4326TIP3    H134393   0.616   1.841  16.250 -0.6689  0.5026  1.4698
 4326TIP3    H234394   0.690   1.810  16.379  1.0522  1.2523  0.6875
 4327TIP3   OH234395   3.733   2.544   2.943  0.3946 -0.9251  0.5521
 4327TIP3    H134396   3.712   2.479   2.876 -2.3349  0.3537  0.1171
 4327TIP3    H234397   3.790   2.497   3.005  0.0849 -3.1385 -0.7830
 4328TIP3   OH234398   4.856   1.782  11.505 -0.4545  0.5019 -0.5308
 4328TIP3    H134399   4.834   1.717  11.438  4.2903 -1.6026 -0.2791
 4328TIP3    H234400   4.933   1.827  11.471  1.5461  0.0114  3.0474
 4329TIP3   OH234401   4.717   5.841  13.467 -0.0429  0.1023  0.0342
 4329TIP3    H134402   4.676   5.861  13.552 -0.7745  0.4524 -0.4013
 4329TIP3    H234403   4.741   5.748  13.474 -0.7891 -0.0695  0.3347
 4330TIP3   OH234404   0.081   6.361  10.962  0.5918 -0.2531 -0.2330
 4330TIP3    H134405   0.062   6.300  11.033 -1.0402  0.0399 -0.3931
 4330TIP3    H234406   0.080   6.307  10.883  0.5540 -0.2754 -0.2180
 4331TIP3   OH234407   4.159   4.374   5.490 -0.5814  0.4727  1.1605
 4331TIP3    H134408   4.171   4.449   5.547 -0.0049 -0.1559  1.8659
 4331TIP3    H234409   4.123   4.306   5.546  0.1637 -0.2099  0.8235
 4332TIP3   OH234410   6.059   4.237  14.832 -0.2449  0.7784 -0.2265
 4332TIP3    H134411   6.127   4.178  14.799  0.8853  2.2326 -0.5385
 4332TIP3    H234412   5.979   4.185  14.829  0.4847 -0.2983 -1.8051
 4333TIP3   OH234413   1.100   2.312   1.471  0.4111  0.6168 -0.0292
 4333TIP3    H134414   1.058   2.321   1.385 -0.5684 -2.4478  0.0569
 4333TIP3    H234415   1.169   2.247   1.457 -1.3424 -1.7493  2.0018
 4334TIP3   OH234416   6.084   5.584  17.053 -0.3049  0.0781 -0.0013
 4334TIP3    H134417   6.062   5.491  17.044  1.1398 -0.4552  1.6936
 4334TIP3    H234418   6.110   5.594  17.145 -0.5250  2.1784 -0.1420
 4335TIP3   OH234419   2.230   4.030   4.251 -0.5325  0.5766  0.3973
 4335TIP3    H134420   2.192   4.118   4.244  0.3610  0.8853 -0.7823
 4335TIP3    H234421   2.158   3.971   4.229 -0.7860  1.0729 -0.1286
 4336TIP3   OH234422   0.514   5.521  12.361  0.3396 -0.3366 -0.2919
 4336TIP3    H134423   0.596   5.545  12.320  0.4187  1.0605  0.6606
 4336TIP3    H234424   0.454   5.506  12.288  0.5955  1.6684 -0.9248
 4337TIP3   OH234425   5.519   6.165  16.186  0.0427 -0.1511  0.1785
 4337TIP3    H134426   5.546   6.130  16.101  1.0664  0.3909  0.2803
 4337TIP3    H234427   5.424   6.172  16.179 -0.0522 -1.7406 -0.3095
 4338TIP3   OH234428   2.441   6.464   6.217 -0.2648  0.2497 -0.0994
 4338TIP3    H134429   2.394   6.541   6.183  1.0949  0.8752 -0.5812
 4338TIP3    H234430   2.483   6.494   6.297 -1.6606 -0.6408  0.9828
 4339TIP3   OH234431   1.393   3.275  11.208 -0.1327 -0.5958 -0.0652
 4339TIP3    H134432   1.301   3.258  11.185  0.3218 -0.6105 -2.0191
 4339TIP3    H234433   1.440   3.261  11.126  1.6854 -1.0661  1.0344
 4340TIP3   OH234434   6.514   4.306  16.693  0.6536  0.6726  0.4686
 4340TIP3    H134435   6.500   4.254  16.614 -2.1293 -1.6130  2.3596
 4340TIP3    H234436   6.465   4.386  16.678  0.1384  0.2533 -0.1278
 4341TIP3   OH234437   1.550   6.637  12.173 -0.3297 -0.1935 -0.0179
 4341TIP3    H134438   1.493   6.663  12.245 -0.6567  3.5215 -1.5322
 4341TIP3    H234439   1.636   6.623  12.214 -0.6134  1.4191  1.1788
 4342TIP3   OH234440   5.588   5.501  14.898 -0.0125 -0.3519  0.3361
 4342TIP3    H134441   5.654   5.450  14.851 -0.4104 -0.4707 -0.0868
 4342TIP3    H234442   5.596   5.471  14.989  0.2722 -0.6227  0.2253
 4343TIP3   OH234443   2.418   4.861   4.533 -0.0140  0.2405 -0.2030
 4343TIP3    H134444   2.329   4.872   4.567 -0.2757 -0.0436 -0.7871
 4343TIP3    H234445   2.428   4.766   4.524  0.5832  0.2389  0.4834
 4344TIP3   OH234446   2.654   0.037   3.736  1.3160  0.0148 -0.0157
 4344TIP3    H134447   2.705   0.117   3.745  1.5987 -0.2704  0.9536
 4344TIP3    H234448   2.586   0.058   3.672  1.4020  1.0115  0.2261
 4345TIP3   OH234449   5.500   6.199   4.761  0.0932  0.3160  0.3658
 4345TIP3    H134450   5.539   6.212   4.848 -0.5300  1.7257  0.4454
 4345TIP3    H234451   5.572   6.165   4.708 -0.0732 -2.6885  1.9590
 4346TIP3   OH234452   4.094   2.340   6.680  0.0541 -0.0967 -0.1420
 4346TIP3    H134453   4.081   2.253   6.718  0.4469  0.9333  2.4912
 4346TIP3    H234454   4.187   2.342   6.657  0.3001 -0.0165  0.8137
 4347TIP3   OH234455   1.560   1.798  17.109 -0.0395  0.0647 -0.0020
 4347TIP3    H134456   1.485   1.854  17.126 -1.3435 -1.5906 -0.2459
 4347TIP3    H234457   1.629   1.858  17.080 -1.5491  1.4785 -0.6843
 4348TIP3   OH234458   5.044   3.423   5.448  0.0133  0.2753  0.5093
 4348TIP3    H134459   4.992   3.396   5.523  1.6022  0.6297  1.7684
 4348TIP3    H234460   5.126   3.455   5.486  0.1348  2.1622 -1.2585
 4349TIP3   OH234461   4.172   1.842   1.634 -0.4157  0.3385 -0.1921
 4349TIP3    H134462   4.108   1.805   1.573 -1.3424  0.3561  0.7500
 4349TIP3    H234463   4.165   1.937   1.622  0.9140  0.2804 -1.5586
 4350TIP3   OH234464   6.406   1.590   5.411  0.0817 -0.1701  0.1062
 4350TIP3    H134465   6.383   1.530   5.340 -0.4747 -0.2858  0.3846
 4350TIP3    H234466   6.502   1.588   5.413  0.0536 -1.4708  0.4750
 4351TIP3   OH234467   1.799   1.055  16.827 -0.0315  0.1593 -0.0715
 4351TIP3    H134468   1.723   1.087  16.779 -1.1191  1.5458  2.4698
 4351TIP3    H234469   1.837   1.134  16.865  0.3215 -0.9842  2.0004
 4352TIP3   OH234470   4.885   5.235  15.736 -0.0189  0.2712  0.1910
 4352TIP3    H134471   4.945   5.249  15.809  1.4269 -2.4123 -0.3936
 4352TIP3    H234472   4.914   5.297  15.669  0.6855  0.5475  0.7442
 4353TIP3   OH234473   5.167   6.019  16.415  0.6523  0.2995  0.2211
 4353TIP3    H134474   5.174   6.004  16.321  0.4622 -0.7663  0.3684
 4353TIP3    H234475   5.224   6.095  16.432  0.5956  0.5667 -0.7625
 4354TIP3   OH234476   5.101   2.583   3.360  0.0668 -0.2514 -0.1579
 4354TIP3    H134477   5.189   2.560   3.388  0.3249  2.1234  1.1166
 4354TIP3    H234478   5.102   2.679   3.355 -2.5622 -0.1629  0.3092
 4355TIP3   OH234479   3.571   2.301  12.234 -0.1768 -0.6902  0.0374
 4355TIP3    H134480   3.513   2.285  12.159 -0.0991 -1.4451  0.1407
 4355TIP3    H234481   3.513   2.295  12.310 -0.5716  1.6172 -0.0400
 4356TIP3   OH234482   3.651   2.179   1.057 -0.5030 -0.2941 -0.5438
 4356TIP3    H134483   3.576   2.145   1.106 -0.2314  1.8230  1.4331
 4356TIP3    H234484   3.656   2.271   1.082  2.3327 -0.2205 -1.1793
 4357TIP3   OH234485   5.996   5.763  15.588  0.7427  0.2102 -0.9736
 4357TIP3    H134486   5.969   5.676  15.560 -2.1834 -0.3720  3.1786
 4357TIP3    H234487   5.924   5.820  15.563  0.1671  0.4355  1.0781
 4358TIP3   OH234488   1.027   2.345   0.413  0.1411  0.1226  0.3158
 4358TIP3    H134489   0.983   2.367   0.331 -1.2853 -1.0598  0.7579
 4358TIP3    H234490   1.010   2.420   0.470  0.2768  0.4935 -0.1304
 4359TIP3   OH234491   1.786   5.502  10.953 -0.2768 -0.0023  0.2904
 4359TIP3    H134492   1.843   5.500  10.876 -1.1375 -1.8874 -0.3317
 4359TIP3    H234493   1.724   5.429  10.939 -1.9954  1.1685  1.5762
 4360TIP3   OH234494   0.179   4.561  17.013  0.6144  0.0286 -0.2652
 4360TIP3    H134495   0.248   4.616  16.975  0.3048 -0.8244 -2.0887
 4360TIP3    H234496   0.226   4.482  17.043  0.6434  0.0882 -0.1479
 4361TIP3   OH234497   1.602   0.481  15.799 -0.1175 -0.4693  0.2693
 4361TIP3    H134498   1.676   0.511  15.853 -0.9873  0.2633  1.0669
 4361TIP3    H234499   1.524   0.505  15.849 -0.9053 -1.4151 -0.4777
 4362TIP3   OH234500   6.453   2.047   4.914  0.2881 -0.0092 -0.0089
 4362TIP3    H134501   6.394   2.026   4.987  0.4098 -0.9834 -0.1837
 4362TIP3    H234502   6.437   2.139   4.897  0.6747  0.3824  1.6394
 4363TIP3   OH234503   5.166   2.752  15.708  0.3126  0.0104  0.0415
 4363TIP3    H134504   5.175   2.807  15.630  2.4672 -0.1441  0.1715
 4363TIP3    H234505   5.099   2.688  15.684  0.4687  0.3840 -1.4488
 4364TIP3   OH234506   4.166   4.523   4.594  1.1201 -0.3079  0.7133
 4364TIP3    H134507   4.190   4.603   4.547  0.5466 -1.3117 -1.3889
 4364TIP3    H234508   4.076   4.538   4.624  1.3608  0.2043  1.1798
 4365TIP3   OH234509   0.645   5.097   4.368  0.2025  0.0882 -0.0138
 4365TIP3    H134510   0.685   5.115   4.453  0.8396  0.4209 -0.3857
 4365TIP3    H234511   0.658   5.177   4.317 -1.7147  0.5392  0.1488
 4366TIP3   OH234512   5.593   3.081  15.394 -0.1976  0.2253  0.4416
 4366TIP3    H134513   5.570   3.106  15.483  3.6882  0.0823  1.5771
 4366TIP3    H234514   5.618   2.989  15.401  0.6563  0.3619 -0.6678
 4367TIP3   OH234515   1.089   4.789  15.590 -0.1171  0.7953 -0.1459
 4367TIP3    H134516   1.058   4.850  15.657  2.1910  1.1893  0.6197
 4367TIP3    H234517   1.162   4.835  15.548  0.1023 -0.4747 -1.1930
 4368TIP3   OH234518   2.263   4.285   1.660  0.2454 -0.0397 -0.0159
 4368TIP3    H134519   2.246   4.263   1.752  0.5958  0.3125  0.1316
 4368TIP3    H234520   2.338   4.231   1.636  0.4875  0.2565  0.0621
 4369TIP3   OH234521   2.772   3.932   3.129 -0.4204  0.6277 -0.4368
 4369TIP3    H134522   2.789   4.022   3.102 -1.3808  0.8663 -0.2458
 4369TIP3    H234523   2.684   3.913   3.097  0.0610 -0.4864 -1.1062
 4370TIP3   OH234524   6.506   0.475  16.109 -0.0162 -0.2842 -0.2542
 4370TIP3    H134525   6.445   0.543  16.136  1.7452  1.4278 -0.5036
 4370TIP3    H234526   6.450   0.407  16.070 -1.9204  0.3372  1.2847
 4371TIP3   OH234527   5.562   1.000  11.199  0.5256  0.1372 -0.3859
 4371TIP3    H134528   5.467   0.995  11.189  0.6359 -1.7643 -0.6802
 4371TIP3    H234529   5.596   0.948  11.126  1.7669 -0.1989  0.4247
 4372TIP3   OH234530   0.240   1.778   5.202  0.0057  0.2241 -0.2781
 4372TIP3    H134531   0.210   1.867   5.181  1.0235  1.0801  1.7769
 4372TIP3    H234532   0.178   1.746   5.267  1.0184  0.3697  0.7841
 4373TIP3   OH234533   5.938   1.083   3.692 -0.1734 -0.4099 -0.1761
 4373TIP3    H134534   5.948   1.076   3.597 -1.4609 -1.2020 -0.2741
 4373TIP3    H234535   5.849   1.118   3.704  1.0719  2.6067  0.6879
 4374TIP3   OH234536   3.897   2.680  16.330  0.3248 -0.0723 -0.1401
 4374TIP3    H134537   3.990   2.664  16.346  0.3977  0.7965  0.3068
 4374TIP3    H234538   3.861   2.594  16.311  1.3643 -0.3257 -1.0127
 4375TIP3   OH234539   3.459   5.862  14.939  0.2287 -0.2396  0.1415
 4375TIP3    H134540   3.390   5.849  14.874 -0.0431 -2.4758  0.8184
 4375TIP3    H234541   3.418   5.837  15.022  1.7623 -1.3706  0.5800
 4376TIP3   OH234542   0.000   2.202  17.065 -0.5322 -0.2657 -0.5461
 4376TIP3    H134543  -0.067   2.250  17.114 -0.7628  0.4824 -1.5764
 4376TIP3    H234544  -0.045   2.126  17.030 -0.5560 -0.3901 -0.2450
 4377TIP3   OH234545   2.193   6.039  14.630 -0.4766  0.0766 -0.3084
 4377TIP3    H134546   2.125   6.057  14.564 -0.2104  0.0588 -0.5869
 4377TIP3    H234547   2.151   6.061  14.713 -0.4510  1.1961 -0.5731
 4378TIP3   OH234548   6.356   1.442  16.156  0.6969  0.4519 -0.2842
 4378TIP3    H134549   6.284   1.400  16.203  1.6290 -1.6812 -0.7150
 4378TIP3    H234550   6.352   1.534  16.184 -1.6304  0.1824  0.3606
 4379TIP3   OH234551   0.895   4.740  13.379 -0.5059  0.7613 -0.0107
 4379TIP3    H134552   0.830   4.768  13.315 -0.6919  0.9777  0.2715
 4379TIP3    H234553   0.892   4.806  13.448  0.5694  1.1863 -0.3668
 4380TIP3   OH234554   2.181   5.509   0.952  0.0392 -0.5282 -0.5938
 4380TIP3    H134555   2.173   5.420   0.919  1.4424 -1.2193  0.8704
 4380TIP3    H234556   2.274   5.529   0.945  0.1440 -0.1463  1.4662
 4381TIP3   OH234557   4.873   6.187   0.389 -0.1830 -0.5685  0.8171
 4381TIP3    H134558   4.897   6.269   0.346  0.0538  0.2715  2.4772
 4381TIP3    H234559   4.848   6.128   0.318 -0.9899  1.1563 -0.3763
 4382TIP3   OH234560   4.523   4.596  11.244  0.2775  0.3612  0.2060
 4382TIP3    H134561   4.578   4.531  11.200  0.7227  0.4406  0.6349
 4382TIP3    H234562   4.530   4.674  11.189  0.0843  0.1718 -0.0826
 4383TIP3   OH234563   5.552   3.597   6.325 -0.3939 -0.0513 -0.9833
 4383TIP3    H134564   5.580   3.660   6.392 -1.8386 -1.1978  0.7318
 4383TIP3    H234565   5.600   3.623   6.246  1.0941  1.5207  0.4054
 4384TIP3   OH234566   2.999   3.482  16.093  0.0598  0.1570 -0.2437
 4384TIP3    H134567   3.025   3.390  16.086 -0.9284 -0.0974 -0.6816
 4384TIP3    H234568   2.961   3.503  16.008 -0.8207  0.6194  0.2560
 4385TIP3   OH234569   0.303   0.828  14.119 -0.2145 -0.0061 -0.2857
 4385TIP3    H134570   0.360   0.824  14.042  0.3099  2.4681 -0.0696
 4385TIP3    H234571   0.363   0.820  14.193 -0.2154  1.6808 -0.0773
 4386TIP3   OH234572   2.428   3.820   1.560  0.2246  0.8236  0.1857
 4386TIP3    H134573   2.449   3.844   1.470 -0.6245 -0.3020 -0.3205
 4386TIP3    H234574   2.449   3.726   1.565 -2.1876  0.2763  0.4089
 4387TIP3   OH234575   0.546   3.045   2.456 -0.2598 -0.1100 -0.0084
 4387TIP3    H134576   0.533   3.083   2.543 -0.8944  0.3241 -0.2911
 4387TIP3    H234577   0.458   3.041   2.418  0.0409 -0.1081 -0.7150
 4388TIP3   OH234578   2.907   5.923  15.036 -0.3732 -0.1368 -0.4019
 4388TIP3    H134579   2.966   5.974  15.091 -1.5051 -1.2067  1.9249
 4388TIP3    H234580   2.823   5.968  15.043 -0.4225 -0.0342 -1.6366
 4389TIP3   OH234581   1.393   3.628  15.732 -0.2015 -0.7018 -0.0849
 4389TIP3    H134582   1.348   3.562  15.679 -0.6106 -1.0326  0.6575
 4389TIP3    H234583   1.486   3.609  15.720 -0.2620 -0.3603 -1.1921
 4390TIP3   OH234584   3.551   4.269  17.169  0.4021 -0.6199  0.0600
 4390TIP3    H134585   3.581   4.198  17.111 -2.2594 -1.7226 -0.0304
 4390TIP3    H234586   3.496   4.225  17.234 -1.1659  1.3276  0.1023
 4391TIP3   OH234587   3.523   0.432  15.074  0.4020 -0.0987  0.1411
 4391TIP3    H134588   3.515   0.382  15.155  0.2722  0.2625  0.3527
 4391TIP3    H234589   3.441   0.417  15.028 -0.5126  1.5880  1.1616
 4392TIP3   OH234590   5.581   6.334  12.727 -0.3949  0.0548 -0.4643
 4392TIP3    H134591   5.650   6.387  12.765 -1.2931  0.4790  0.6074
 4392TIP3    H234592   5.621   6.247  12.717  0.8380  0.7335 -1.5272
 4393TIP3   OH234593   1.066   5.932  11.489  0.2033  0.3454  0.4017
 4393TIP3    H134594   1.092   6.010  11.540 -1.5821 -0.2402  2.2686
 4393TIP3    H234595   1.032   5.871  11.555 -0.8218 -1.0135 -1.3649
 4394TIP3   OH234596   0.484   4.608  12.639  0.4874  0.6312 -0.0414
 4394TIP3    H134597   0.539   4.553  12.584 -0.3066 -0.5906  0.3622
 4394TIP3    H234598   0.542   4.643  12.706  1.2912  1.4596 -1.1570
 4395TIP3   OH234599   6.273   1.050   0.658 -0.4521 -0.4126  0.3833
 4395TIP3    H134600   6.179   1.057   0.641 -0.2063 -1.2157 -1.3140
 4395TIP3    H234601   6.313   1.037   0.572  1.1950 -0.3558  1.1197
 4396TIP3   OH234602   1.192   4.260   5.357  0.1775  0.0501  0.3546
 4396TIP3    H134603   1.156   4.183   5.401  0.7320 -0.8400 -0.7139
 4396TIP3    H234604   1.208   4.231   5.267 -1.2090  1.9115 -0.5264
 4397TIP3   OH234605   3.159   0.864  16.367 -0.1027  0.0206 -0.1854
 4397TIP3    H134606   3.159   0.769  16.381 -0.0850  0.3536  2.2307
 4397TIP3    H234607   3.247   0.892  16.393 -0.7035  0.9248  0.9262
 4398TIP3   OH234608   2.076   5.507   2.789 -0.0788 -0.5117 -0.7115
 4398TIP3    H134609   2.064   5.555   2.871  0.9831 -1.3133 -0.0664
 4398TIP3    H234610   2.047   5.567   2.721  1.4508  1.1426  0.0588
 4399TIP3   OH234611   4.821   4.623   2.763 -0.5494  0.1755  0.1169
 4399TIP3    H134612   4.814   4.640   2.857 -0.3358  1.4617 -0.0905
 4399TIP3    H234613   4.873   4.542   2.757 -1.2669 -0.3688  1.1166
 4400TIP3   OH234614   1.925   4.498   5.209 -1.0266  0.5244  0.1013
 4400TIP3    H134615   1.840   4.459   5.193 -0.4158 -1.2418  1.0266
 4400TIP3    H234616   1.936   4.563   5.139 -1.9503 -1.1765 -1.6509
 4401TIP3   OH234617   1.448   4.057  15.986 -0.3629 -0.1169 -0.0727
 4401TIP3    H134618   1.493   3.993  16.040 -2.8317 -1.8568  0.0030
 4401TIP3    H234619   1.391   4.104  16.046 -3.5946 -2.4815 -1.1524
 4402TIP3   OH234620   0.969   4.962  13.556 -0.0739  0.4494  0.1502
 4402TIP3    H134621   1.063   4.970  13.571 -0.0547  1.0577 -0.2495
 4402TIP3    H234622   0.928   5.004  13.632 -0.0171  0.4401  0.1859
 4403TIP3   OH234623   0.159   0.654  13.375  0.3803 -0.2484  0.1799
 4403TIP3    H134624   0.139   0.564  13.347 -0.7780  0.0667 -0.0415
 4403TIP3    H234625   0.165   0.703  13.293 -0.6813  0.2125  0.3768
 4404TIP3   OH234626   2.467   6.098  12.362  0.6334  0.1300 -0.2160
 4404TIP3    H134627   2.535   6.111  12.296 -0.2887  0.7918 -1.0333
 4404TIP3    H234628   2.402   6.165  12.344 -0.8349 -1.2582 -0.1896
 4405TIP3   OH234629   2.147   1.460  11.954  0.4675  0.2651 -0.3413
 4405TIP3    H134630   2.185   1.542  11.986 -0.1976  0.5356 -0.2491
 4405TIP3    H234631   2.222   1.410  11.921  1.0064  0.4795  0.5567
 4406TIP3   OH234632   6.720   0.586  12.854 -0.2457  0.5140  0.7679
 4406TIP3    H134633   6.697   0.495  12.871 -2.1937  0.6819 -0.8766
 4406TIP3    H234634   6.815   0.589  12.865  0.1529 -2.2498 -1.5184
 4407TIP3   OH234635   0.629   3.617  12.097 -0.6147 -0.0745 -0.4201
 4407TIP3    H134636   0.680   3.696  12.115  0.4116 -1.0924  1.2594
 4407TIP3    H234637   0.541   3.649  12.077 -0.1311  1.5001 -0.0810
 4408TIP3   OH234638   2.750   0.742  16.294 -0.7134  0.2515  0.0892
 4408TIP3    H134639   2.823   0.804  16.303 -0.7363 -0.0663  3.0008
 4408TIP3    H234640   2.792   0.656  16.295 -0.9488  0.1238 -0.7028
 4409TIP3   OH234641   2.201   5.677  16.695 -0.3461 -0.0920 -0.2435
 4409TIP3    H134642   2.211   5.705  16.786 -1.1033  0.5228 -0.3469
 4409TIP3    H234643   2.211   5.757  16.644  2.2721 -0.7665 -0.8636
 4410TIP3   OH234644   0.561   4.125  15.692 -0.4092  0.4772 -0.3229
 4410TIP3    H134645   0.639   4.090  15.649 -1.5270 -1.3105 -0.9583
 4410TIP3    H234646   0.595   4.167  15.772  1.2987  0.6321 -1.1052
 4411TIP3   OH234647   4.077   0.351   0.551  0.6034  0.2497 -0.2264
 4411TIP3    H134648   4.150   0.315   0.601  0.5865 -0.6390 -0.8130
 4411TIP3    H234649   4.064   0.287   0.480 -0.6281  0.4833 -0.2169
 4412TIP3   OH234650   0.325   2.688  15.583  0.3672  0.1725 -0.0846
 4412TIP3    H134651   0.264   2.762  15.578 -0.3913 -0.4281  0.1188
 4412TIP3    H234652   0.389   2.705  15.514 -1.0207 -0.0631 -1.4383
 4413TIP3   OH234653   4.881   5.699   3.628  0.1494 -0.4915  0.0841
 4413TIP3    H134654   4.863   5.606   3.628  0.6433 -0.5919 -0.3461
 4413TIP3    H234655   4.903   5.719   3.537 -1.7500  0.4062 -0.2050
 4414TIP3   OH234656   1.392   3.556  13.296  1.1472 -0.2215  0.4603
 4414TIP3    H134657   1.477   3.543  13.339  0.8374  1.1808  1.5190
 4414TIP3    H234658   1.400   3.508  13.213  2.5371 -1.1087  1.0816
 4415TIP3   OH234659   3.971   5.674  12.567  0.1943  0.0626  0.2148
 4415TIP3    H134660   3.896   5.661  12.625 -1.1352  0.3064 -1.4069
 4415TIP3    H234661   3.954   5.759  12.526  0.3295 -0.7844 -1.6459
 4416TIP3   OH234662   1.711   2.794  14.390 -0.1526  0.3845 -0.7127
 4416TIP3    H134663   1.766   2.870  14.373  0.9722 -0.2546 -0.0182
 4416TIP3    H234664   1.719   2.740  14.311  0.4215  0.1843 -0.5245
 4417TIP3   OH234665   0.574   4.188  14.073 -0.1305  0.1667  0.0668
 4417TIP3    H134666   0.625   4.148  14.143  0.9423  1.6129  0.1369
 4417TIP3    H234667   0.618   4.272  14.057 -1.6024  0.7607 -0.9063
 4418TIP3   OH234668   1.385   0.416  16.546  0.4545 -0.0862  0.1076
 4418TIP3    H134669   1.353   0.489  16.599  0.6148 -0.4110  0.6586
 4418TIP3    H234670   1.480   0.427  16.545  0.6012 -1.1225  1.4411
 4419TIP3   OH234671   5.537   6.514  16.522  0.3278  0.1715 -0.4824
 4419TIP3    H134672   5.556   6.536  16.613 -0.7436 -0.2489 -0.1515
 4419TIP3    H234673   5.451   6.472  16.524  0.4037 -0.0792 -1.6567
 4420TIP3   OH234674   1.949   2.941  16.749 -0.3042  0.1543  0.0153
 4420TIP3    H134675   2.038   2.920  16.778 -1.1269 -3.1511  0.4134
 4420TIP3    H234676   1.960   3.002  16.676  2.2494  0.2532  0.4589
 4421TIP3   OH234677   0.782   6.291  15.178 -0.0012  0.0501 -0.4417
 4421TIP3    H134678   0.690   6.266  15.189  0.2436 -0.1208  1.3377
 4421TIP3    H234679   0.784   6.384  15.201  0.3717 -0.0951  0.1245
 4422TIP3   OH234680   3.037   6.766   3.097 -0.4481 -0.4485  0.0340
 4422TIP3    H134681   3.075   6.678   3.095  1.6752  0.3373 -5.4250
 4422TIP3    H234682   3.112   6.824   3.102 -1.8246  1.1345  3.4007
 4423TIP3   OH234683   2.456   1.991  14.626 -0.0200  0.1958  0.6985
 4423TIP3    H134684   2.462   1.904  14.664 -2.6042  0.5316  2.0055
 4423TIP3    H234685   2.525   2.042  14.670  1.0761 -1.0064  0.3828
 4424TIP3   OH234686   1.720   4.235   5.332  0.7176 -0.2815  0.1857
 4424TIP3    H134687   1.693   4.301   5.268  0.0424 -1.3358 -0.6376
 4424TIP3    H234688   1.652   4.237   5.399  0.3433 -0.5920 -0.1788
 4425TIP3   OH234689   1.119   0.444  14.139 -0.3849  0.4034  0.3506
 4425TIP3    H134690   1.197   0.484  14.101 -0.1058  0.8776  1.4136
 4425TIP3    H234691   1.046   0.478  14.086  0.1700 -0.6006 -1.1064
 4426TIP3   OH234692   5.670   1.459   2.890  0.0914  0.0437 -0.4836
 4426TIP3    H134693   5.754   1.439   2.931  0.0256 -1.2761 -0.9601
 4426TIP3    H234694   5.606   1.410   2.941 -0.3901  0.9383 -0.2051
 4427TIP3   OH234695   4.875   4.085   5.847 -0.0914 -0.0840 -0.4674
 4427TIP3    H134696   4.951   4.117   5.799  0.9947 -0.9597  0.6434
 4427TIP3    H234697   4.840   4.162   5.892  1.8028 -0.1965  1.2442
 4428TIP3   OH234698   1.570   0.604  16.854 -0.3847  0.4190 -0.4839
 4428TIP3    H134699   1.583   0.650  16.772  1.2315  1.6147  0.4284
 4428TIP3    H234700   1.516   0.663  16.907 -1.2496 -0.2580 -0.5953
 4429TIP3   OH234701   5.113   2.886   0.322 -0.0930  0.7776 -0.0443
 4429TIP3    H134702   5.068   2.878   0.407  0.5924  0.0279  0.2619
 4429TIP3    H234703   5.199   2.845   0.337  0.7527  2.3077 -0.5825
 4430TIP3   OH234704   3.931   6.085   6.533 -0.5385  0.5387 -0.6458
 4430TIP3    H134705   3.991   6.160   6.531  0.4608 -0.1688  1.1829
 4430TIP3    H234706   3.978   6.017   6.485 -0.0914  0.1562  0.3150
 4431TIP3   OH234707   5.429   1.899  11.458 -0.2894  0.2944 -0.7534
 4431TIP3    H134708   5.471   1.848  11.389  0.1354  1.5282 -1.4253
 4431TIP3    H234709   5.423   1.988  11.422  2.8627  1.6989  1.9839
 4432TIP3   OH234710   5.927   4.185   3.485 -0.2101 -0.3990 -0.2604
 4432TIP3    H134711   5.914   4.153   3.396 -2.0228  0.4951 -0.3413
 4432TIP3    H234712   5.916   4.108   3.540  0.8502 -0.9435 -0.7839
 4433TIP3   OH234713   2.175   3.498   5.738 -0.2439  0.3523  0.3125
 4433TIP3    H134714   2.230   3.447   5.798  1.2666  1.6267  0.0242
 4433TIP3    H234715   2.125   3.432   5.690  0.6689 -0.7992  0.9141
 4434TIP3   OH234716   0.394   1.924   5.755  0.3645 -0.2039  0.1232
 4434TIP3    H134717   0.399   1.935   5.850  0.9771  3.3630 -0.2731
 4434TIP3    H234718   0.477   1.883   5.731 -0.7645 -3.3984  1.3302
 4435TIP3   OH234719   0.561   4.916   1.384 -0.2521 -0.0431  0.0950
 4435TIP3    H134720   0.564   4.828   1.422  1.1964 -0.0243  0.0514
 4435TIP3    H234721   0.468   4.934   1.372 -0.5991 -1.1530  1.0757
 4436TIP3   OH234722   4.559   1.366  14.014  0.2495 -0.3446 -0.0774
 4436TIP3    H134723   4.592   1.375  14.103 -0.6159  0.8607  0.1339
 4436TIP3    H234724   4.614   1.424  13.962 -0.1319  0.0059 -0.0934
 4437TIP3   OH234725   3.217   3.653   5.774 -0.0727  0.1796  0.1162
 4437TIP3    H134726   3.236   3.633   5.865 -0.7803  0.5688  0.3632
 4437TIP3    H234727   3.125   3.682   5.775 -0.0658  0.2501 -0.7047
 4438TIP3   OH234728   4.099   5.204  12.655 -0.5535  0.0209 -0.4765
 4438TIP3    H134729   4.168   5.253  12.608 -1.3253  0.5304 -1.0984
 4438TIP3    H234730   4.033   5.270  12.676  0.8662  0.3038  3.5233
 4439TIP3   OH234731   0.042   0.747  14.722  0.9852 -0.5048  0.9724
 4439TIP3    H134732  -0.001   0.705  14.796 -0.4211  1.1185  1.1086
 4439TIP3    H234733  -0.024   0.746  14.652  2.0926 -1.4894 -0.0905
 4440TIP3   OH234734   4.128   2.707  16.907 -0.4750  0.0157 -0.2765
 4440TIP3    H134735   4.076   2.774  16.862 -0.2411  0.1394 -0.3595
 4440TIP3    H234736   4.069   2.631  16.911  0.0089 -0.4961 -2.1378
 4441TIP3   OH234737   5.990   3.972   3.769  0.3772 -0.0043 -0.1392
 4441TIP3    H134738   6.053   4.043   3.760  1.1638 -0.6411  0.2531
 4441TIP3    H234739   5.932   3.999   3.839  0.0696  0.6897 -0.6572
 4442TIP3   OH234740   5.518   4.124  12.095  0.4686 -0.5488  0.1755
 4442TIP3    H134741   5.520   4.160  12.006 -1.8735 -2.4984 -0.7117
 4442TIP3    H234742   5.466   4.186  12.145  1.8347  0.5813  0.2403
 4443TIP3   OH234743   4.931   2.950   5.492 -0.4651 -0.0697  0.0020
 4443TIP3    H134744   4.840   2.979   5.490 -0.5564 -0.4850 -2.9852
 4443TIP3    H234745   4.927   2.868   5.542 -1.8137 -0.3726 -0.5647
 4444TIP3   OH234746   3.311   5.177   1.427 -0.0591  0.4099 -0.0283
 4444TIP3    H134747   3.216   5.166   1.428 -0.0876  0.3707 -1.7263
 4444TIP3    H234748   3.330   5.212   1.340  1.2148  2.8679  1.1799
 4445TIP3   OH234749   5.315   3.500  11.483  0.7667 -0.5973  0.5354
 4445TIP3    H134750   5.385   3.492  11.548 -0.8725 -2.2007  2.1831
 4445TIP3    H234751   5.239   3.530  11.534 -0.5863 -2.0526 -0.5801
 4446TIP3   OH234752   5.096   2.926   6.139 -0.4039  0.4202  0.1265
 4446TIP3    H134753   5.126   2.866   6.207 -1.9451 -0.6620 -0.1222
 4446TIP3    H234754   5.003   2.941   6.160 -0.9847 -0.1935 -1.9216
 4447TIP3   OH234755   5.934   2.690  15.854 -0.2729 -0.5043 -0.4829
 4447TIP3    H134756   5.848   2.670  15.892 -0.6541  1.5892 -0.2009
 4447TIP3    H234757   5.915   2.715  15.763 -0.3530  3.1557  0.4980
 4448TIP3   OH234758   3.394   1.489   3.366 -0.2036  0.2322  1.0515
 4448TIP3    H134759   3.305   1.507   3.336  0.2121  0.4006 -0.1001
 4448TIP3    H234760   3.408   1.396   3.348  0.2960  0.4973  0.0768
 4449TIP3   OH234761   6.568   0.077   0.574 -0.7723  0.1307 -0.3972
 4449TIP3    H134762   6.587   0.134   0.649 -1.4585 -1.6142  1.1299
 4449TIP3    H234763   6.599   0.127   0.499 -0.5344  2.1465  0.9840
 4450TIP3   OH234764   5.288   2.350   5.646  0.4601 -0.4518  0.3020
 4450TIP3    H134765   5.323   2.425   5.694 -0.0799 -0.0088 -0.0026
 4450TIP3    H234766   5.193   2.356   5.658  0.2833 -0.0922 -1.1927
 4451TIP3   OH234767   3.219   1.716  11.240  0.7527 -0.0883  0.4427
 4451TIP3    H134768   3.219   1.628  11.278  1.1283 -0.9624 -1.5236
 4451TIP3    H234769   3.135   1.753  11.266  0.8391 -0.8025  1.7808
 4452TIP3   OH234770   5.301   5.566  13.074 -0.4816  0.2161 -0.2674
 4452TIP3    H134771   5.311   5.561  13.169  1.8561  0.7505 -0.4637
 4452TIP3    H234772   5.263   5.652  13.059  0.8309  0.8740  0.0823
 4453TIP3   OH234773   5.096   3.076   0.894 -0.1559 -0.1084  0.6420
 4453TIP3    H134774   5.136   3.105   0.812  1.8102  1.9624  2.2605
 4453TIP3    H234775   5.007   3.110   0.890 -0.6598 -1.6043 -1.4144
 4454TIP3   OH234776   3.535   1.701   2.162  0.0691 -0.1686 -0.6381
 4454TIP3    H134777   3.472   1.774   2.161  1.0638  0.6850 -1.7655
 4454TIP3    H234778   3.528   1.663   2.075  1.0097 -0.1651 -0.7156
 4455TIP3   OH234779   5.200   4.952  14.626 -0.3543  0.1589  0.0303
 4455TIP3    H134780   5.129   4.904  14.669  0.3063 -1.9512 -1.1736
 4455TIP3    H234781   5.229   4.894  14.556  1.7177  1.5553 -0.3062
 4456TIP3   OH234782   4.897   6.323  10.848 -0.2776  0.5303  0.0241
 4456TIP3    H134783   4.871   6.414  10.828  1.5122  1.3835  1.4239
 4456TIP3    H234784   4.904   6.321  10.943 -2.3008 -1.6888  0.1798
 4457TIP3   OH234785   1.975   5.163  11.089  0.1088  0.5038  0.4798
 4457TIP3    H134786   2.024   5.159  11.007  0.4740 -2.6641  0.8127
 4457TIP3    H234787   1.886   5.139  11.065  0.1086  0.0495  0.9374
 4458TIP3   OH234788   5.851   4.942   5.442  0.5249  0.2786 -0.1289
 4458TIP3    H134789   5.876   4.901   5.359 -0.3172  0.3342 -0.4078
 4458TIP3    H234790   5.803   5.021   5.417  1.5448  1.0868  0.4070
 4459TIP3   OH234791   4.485   0.048  17.124 -0.0373 -0.3609  0.1866
 4459TIP3    H134792   4.552  -0.006  17.165  0.0736  0.4886  1.1257
 4459TIP3    H234793   4.403   0.021  17.165  0.3307  2.0326  2.6370
 4460TIP3   OH234794   0.050   2.203  12.377 -0.0615  0.2590  0.0556
 4460TIP3    H134795  -0.003   2.230  12.301  0.3816  0.0137 -0.3435
 4460TIP3    H234796  -0.004   2.137  12.421 -0.2636  0.2990 -0.1290
 4461TIP3   OH234797   5.032   1.530   5.306 -0.6211  0.5629  0.5135
 4461TIP3    H134798   5.009   1.581   5.229 -0.0663 -1.9382 -1.3651
 4461TIP3    H234799   5.126   1.545   5.318 -0.0939 -1.3342 -1.0807
 4462TIP3   OH234800   3.937   0.124   6.462 -0.2342 -0.3203 -0.4299
 4462TIP3    H134801   4.014   0.127   6.519 -1.1014  1.5015  0.6633
 4462TIP3    H234802   3.924   0.215   6.434 -2.7964 -0.3640  0.4974
 4463TIP3   OH234803   3.460   4.592   0.981  0.0635  0.2946  0.2143
 4463TIP3    H134804   3.383   4.632   1.021  0.4543  0.2211  1.0644
 4463TIP3    H234805   3.533   4.649   1.006  0.2251  0.6079 -0.9524
 4464TIP3   OH234806   4.151   3.782   3.260 -0.4417 -0.5052  0.1557
 4464TIP3    H134807   4.153   3.875   3.281  1.6118 -0.6846  0.8219
 4464TIP3    H234808   4.087   3.775   3.189  0.4068  1.6096 -0.8586
 4465TIP3   OH234809   5.723   3.760  11.012 -0.5281  0.1038 -0.0667
 4465TIP3    H134810   5.679   3.815  11.077 -0.8849 -0.1476 -0.0988
 4465TIP3    H234811   5.655   3.702  10.978  0.2655 -1.8139  1.4939
 4466TIP3   OH234812   3.277   2.070   1.536 -0.4402  0.2562 -0.3235
 4466TIP3    H134813   3.245   2.004   1.474 -0.7317  0.5702 -0.5111
 4466TIP3    H234814   3.372   2.055   1.540 -0.7904 -1.7447  1.4781
 4467TIP3   OH234815   0.318   4.539  12.063 -0.1110  0.6816 -0.0631
 4467TIP3    H134816   0.329   4.512  12.154  0.2813  0.8212 -0.0678
 4467TIP3    H234817   0.243   4.598  12.065 -1.4329 -0.9771 -0.1730
 4468TIP3   OH234818   1.896   6.677   4.468 -0.4767  0.0293  0.4706
 4468TIP3    H134819   1.904   6.743   4.398 -1.2400 -1.4572 -1.0585
 4468TIP3    H234820   1.979   6.683   4.516  0.2293  0.8154 -0.8109
 4469TIP3   OH234821   5.466   1.478   2.464 -0.6062 -0.1458 -0.5491
 4469TIP3    H134822   5.492   1.388   2.442  1.0801  0.0468  0.5402
 4469TIP3    H234823   5.549   1.522   2.485 -1.5838  1.2447  0.4385
 4470TIP3   OH234824   3.627   2.351   2.735  0.5560  0.3516 -0.0051
 4470TIP3    H134825   3.599   2.366   2.645  0.9188  2.0006  0.1488
 4470TIP3    H234826   3.621   2.256   2.746  0.6188  0.1237 -1.7930
 4471TIP3   OH234827   1.393   0.731  12.576  0.4380  0.4944 -0.1522
 4471TIP3    H134828   1.382   0.696  12.665 -1.0047 -0.3754 -0.6409
 4471TIP3    H234829   1.447   0.809  12.587 -0.7452  1.1033  1.6667
 4472TIP3   OH234830   0.595   3.994   4.404  0.2425  0.0014 -0.1764
 4472TIP3    H134831   0.667   3.995   4.468  0.4679  0.1426 -0.4270
 4472TIP3    H234832   0.636   4.026   4.323 -0.0311 -0.2166 -0.3989
 4473TIP3   OH234833   1.558   0.500   1.849  0.1729  0.8144 -0.2893
 4473TIP3    H134834   1.496   0.428   1.839  0.6212  0.1744  1.3141
 4473TIP3    H234835   1.601   0.506   1.764 -0.0729 -0.6387 -0.5347
 4474TIP3   OH234836   2.599   1.219  11.392  0.8734  0.0248  0.1574
 4474TIP3    H134837   2.531   1.228  11.459 -0.2276 -2.5948 -0.5525
 4474TIP3    H234838   2.613   1.308  11.360 -1.5089  0.7600  1.0506
 4475TIP3   OH234839   2.300   2.542   3.840 -0.3256 -0.1131  0.3576
 4475TIP3    H134840   2.236   2.509   3.903  0.2739 -1.6154  0.2041
 4475TIP3    H234841   2.248   2.578   3.769 -1.0016 -0.4414  0.6838
 4476TIP3   OH234842   6.585   0.948  12.726  0.0381 -0.3382 -0.3243
 4476TIP3    H134843   6.563   0.888  12.797  0.5323 -1.6319 -1.2346
 4476TIP3    H234844   6.676   0.972  12.742 -0.4860  1.0474  0.6482
 4477TIP3   OH234845   3.284   1.453  16.607 -0.0961  0.2043 -0.0424
 4477TIP3    H134846   3.333   1.531  16.582  0.8026 -0.5487 -0.6505
 4477TIP3    H234847   3.300   1.442  16.700  0.5898  0.1729 -0.1641
 4478TIP3   OH234848   4.128   4.202   4.823 -0.2179  0.5482  0.2123
 4478TIP3    H134849   4.163   4.158   4.901  0.5175  1.1336  0.2220
 4478TIP3    H234850   4.144   4.141   4.752  0.0300  0.4419  0.3587
 4479TIP3   OH234851   0.173   3.324   5.958  0.4518 -0.0502  0.3054
 4479TIP3    H134852   0.245   3.384   5.981 -0.7354  0.8201  1.8259
 4479TIP3    H234853   0.217   3.245   5.925  2.0630  1.1812 -0.5861
 4480TIP3   OH234854   2.956   5.088   5.511  0.1113 -0.4845 -0.1621
 4480TIP3    H134855   2.941   5.058   5.421 -2.7641  0.6383 -0.0990
 4480TIP3    H234856   3.032   5.146   5.504 -2.0073  2.1162 -2.4598
 4481TIP3   OH234857   6.561   2.434  15.747 -0.0977 -0.1239  0.1703
 4481TIP3    H134858   6.466   2.426  15.749 -0.0591 -0.4925  0.5524
 4481TIP3    H234859   6.592   2.353  15.707  0.0413  0.1462 -0.2809
 4482TIP3   OH234860   3.036   0.748   5.612 -0.3572 -0.5432  0.6894
 4482TIP3    H134861   2.962   0.806   5.629 -0.2559 -0.4133  0.6943
 4482TIP3    H234862   3.046   0.750   5.516 -0.3987 -0.6075  0.6842
 4483TIP3   OH234863   6.118   3.098  16.624  0.5839  0.1687  0.2887
 4483TIP3    H134864   6.024   3.117  16.625  0.1870 -1.6838  0.3797
 4483TIP3    H234865   6.143   3.097  16.716  0.1350 -1.8544  0.4090
 4484TIP3   OH234866   4.699   3.744   5.992 -0.2461 -0.3183 -0.2526
 4484TIP3    H134867   4.720   3.674   6.054  0.3028 -0.0219 -0.0965
 4484TIP3    H234868   4.754   3.817   6.019 -1.5104  0.4919  0.1686
 4485TIP3   OH234869   5.750   6.704   1.632  0.4915  0.4538 -0.4741
 4485TIP3    H134870   5.838   6.739   1.648  0.9068 -1.6386  2.2732
 4485TIP3    H234871   5.692   6.778   1.646  1.5534  0.8435  2.3898
 4486TIP3   OH234872   6.756   1.238   2.741 -0.5069  0.3212  0.4853
 4486TIP3    H134873   6.693   1.293   2.789 -1.8330 -1.1498  0.4840
 4486TIP3    H234874   6.764   1.159   2.794  0.2425 -0.1035 -0.2495
 4487TIP3   OH234875   2.728   2.443  15.567  0.5037  0.4106  0.4954
 4487TIP3    H134876   2.752   2.402  15.649  0.1052 -1.8932 -0.5001
 4487TIP3    H234877   2.796   2.416  15.505  0.6656  1.8978  0.0014
 4488TIP3   OH234878   0.293   5.445  11.607 -0.0754 -0.0257  0.3164
 4488TIP3    H134879   0.358   5.375  11.612 -0.7007 -0.6437 -0.1194
 4488TIP3    H234880   0.262   5.456  11.697  0.0652 -0.2679  0.3926
 4489TIP3   OH234881   5.976   5.124  16.725  0.1400 -0.4132  0.2243
 4489TIP3    H134882   5.914   5.097  16.793  0.2944  2.0589  1.4113
 4489TIP3    H234883   5.920   5.160  16.655  0.0418 -1.9520 -0.5057
 4490TIP3   OH234884   2.147   2.430   3.166 -0.2617  1.0313 -0.7474
 4490TIP3    H134885   2.067   2.432   3.113 -1.6188 -3.2023  0.9559
 4490TIP3    H234886   2.195   2.353   3.135  1.4748  1.5247  0.6355
 4491TIP3   OH234887   5.242   1.186   5.091  0.1684 -0.0712 -0.4171
 4491TIP3    H134888   5.314   1.216   5.148  0.5703 -1.9967  0.1303
 4491TIP3    H234889   5.272   1.101   5.058 -0.4565  0.6298 -2.8331
 4492TIP3   OH234890   5.881   0.455  12.149 -0.0250 -0.5022  0.7788
 4492TIP3    H134891   5.964   0.494  12.176  0.1549  1.6559 -2.5652
 4492TIP3    H234892   5.906   0.393  12.080 -1.0961 -0.7974  0.6535
 4493TIP3   OH234893   2.364   5.921  16.924 -0.4281 -0.3052 -0.1098
 4493TIP3    H134894   2.379   5.994  16.864 -0.4736 -0.8255 -0.7569
 4493TIP3    H234895   2.407   5.847  16.882  1.2243 -0.2521  1.4406
 4494TIP3   OH234896   4.069   3.300   2.986 -0.0197 -0.2817  0.0916
 4494TIP3    H134897   4.003   3.273   3.050  0.0775 -0.5162  0.0932
 4494TIP3    H234898   4.027   3.287   2.901  0.2808 -1.1433  0.0626
 4495TIP3   OH234899   0.787   1.381   2.115 -0.0927  0.2888  0.0327
 4495TIP3    H134900   0.784   1.350   2.025 -0.7569  1.4443 -0.3606
 4495TIP3    H234901   0.755   1.471   2.110 -0.9535  0.0818  1.5522
 4496TIP3   OH234902   1.950   0.561  16.497  0.3989  0.3257 -0.3820
 4496TIP3    H134903   1.910   0.491  16.446 -0.2153  0.8288 -0.5946
 4496TIP3    H234904   1.919   0.547  16.586 -0.7672  1.0874 -0.6628
 4497TIP3   OH234905   2.886   4.730  12.715  0.3501 -0.6662  0.4420
 4497TIP3    H134906   2.889   4.804  12.776 -0.6705  0.6918 -1.1108
 4497TIP3    H234907   2.961   4.745  12.657  0.1639 -0.8780  0.1474
 4498TIP3   OH234908   4.271   3.367   0.784 -0.3859  0.4400  0.3060
 4498TIP3    H134909   4.310   3.443   0.829 -0.5531  1.2624 -0.9168
 4498TIP3    H234910   4.246   3.400   0.698  1.6774 -1.5917 -1.1311
 4499TIP3   OH234911   4.512   3.822   0.557  0.2568 -0.7482 -0.5835
 4499TIP3    H134912   4.589   3.810   0.500 -0.2129 -0.1199 -1.3564
 4499TIP3    H234913   4.526   3.907   0.599 -1.0171  0.3769 -2.3347
 4500TIP3   OH234914   2.148   6.004   0.435 -0.6318 -0.5147 -0.6100
 4500TIP3    H134915   2.054   5.988   0.422 -0.2839 -2.5644 -0.8043
 4500TIP3    H234916   2.179   6.037   0.350 -0.9953 -0.7019 -0.8169
 4501TIP3   OH234917   4.727   0.663   0.865  0.2962 -0.2564  0.1711
 4501TIP3    H134918   4.797   0.693   0.807 -0.0802  0.9501  0.3332
 4501TIP3    H234919   4.772   0.607   0.929  1.2499  1.1754  0.7752
 4502TIP3   OH234920   6.299   1.706   0.496  0.3322 -0.0193 -0.0057
 4502TIP3    H134921   6.351   1.689   0.417  1.5299 -2.8553  1.3146
 4502TIP3    H234922   6.336   1.787   0.531 -0.8307  1.7904 -2.7924
 4503TIP3   OH234923   6.620   0.599  14.020  0.2613 -0.1190 -0.3973
 4503TIP3    H134924   6.693   0.539  14.004 -0.9383 -1.4147 -1.1235
 4503TIP3    H234925   6.657   0.686  14.003  1.4446 -0.8039 -1.4439
 4504TIP3   OH234926   2.393   3.468  15.362  0.0564 -0.1773 -0.2655
 4504TIP3    H134927   2.480   3.430  15.353  0.7832  1.3227  0.2225
 4504TIP3    H234928   2.382   3.520  15.282 -0.1792  0.0489 -0.0846
 4505TIP3   OH234929   4.452   3.946  13.883  0.2952 -0.6171  0.1334
 4505TIP3    H134930   4.466   3.908  13.970 -0.4635  0.8305  0.9293
 4505TIP3    H234931   4.401   3.881  13.836  0.4469 -1.2924  0.8935
 4506TIP3   OH234932   3.626   2.669   0.902 -0.9974  0.2136  0.0440
 4506TIP3    H134933   3.620   2.684   0.808  0.2071 -0.1038 -0.0963
 4506TIP3    H234934   3.652   2.753   0.938 -2.7518  0.6832  0.2558
 4507TIP3   OH234935   4.907   3.159   0.659 -0.4381  0.5083  0.4620
 4507TIP3    H134936   4.895   3.218   0.584  0.6476  1.1223  0.7621
 4507TIP3    H234937   4.885   3.214   0.735 -0.1576  0.2995  0.6912
 4508TIP3   OH234938   0.257   1.074  15.496  0.0482  1.1627 -0.3172
 4508TIP3    H134939   0.344   1.093  15.460  1.1309  0.0548  1.6172
 4508TIP3    H234940   0.272   1.066  15.590 -1.6800 -1.6658 -0.2444
 4509TIP3   OH234941   3.158   2.082   5.587  0.1939 -0.5267 -0.1660
 4509TIP3    H134942   3.138   2.151   5.651 -0.0994  2.1844 -3.0930
 4509TIP3    H234943   3.072   2.048   5.562  0.2670 -1.0615  0.3027
 4510TIP3   OH234944   1.533   4.923   1.802  0.4587  0.4002 -0.3141
 4510TIP3    H134945   1.478   4.927   1.724 -0.7653 -0.8371  0.4589
 4510TIP3    H234946   1.475   4.951   1.873  1.0840 -0.0613  0.3803
 4511TIP3   OH234947   6.688   2.591   4.012 -0.2812 -0.0011 -0.2123
 4511TIP3    H134948   6.653   2.677   4.032 -0.3397 -0.5471  2.2384
 4511TIP3    H234949   6.783   2.605   4.003 -0.3961  0.4565 -0.7195
 4512TIP3   OH234950   5.267   0.163   3.093 -0.0338 -0.1406  0.3281
 4512TIP3    H134951   5.241   0.250   3.123 -1.6923 -0.9778  1.3897
 4512TIP3    H234952   5.251   0.106   3.169 -0.9069 -1.7099 -1.0040
 4513TIP3   OH234953   2.911   0.394   5.556  0.2911  0.6982  0.1727
 4513TIP3    H134954   2.823   0.425   5.537 -0.0331 -0.3313 -0.0592
 4513TIP3    H234955   2.954   0.390   5.470  0.1744  0.0650  0.1383
 4514TIP3   OH234956   2.118   3.032  12.539 -0.3117  0.4141  0.1864
 4514TIP3    H134957   2.082   3.116  12.567 -0.5753  0.2088  0.4675
 4514TIP3    H234958   2.080   3.017  12.452 -1.5649 -0.2042  0.8405
 4515TIP3   OH234959   1.031   2.210   1.740 -0.0198  0.3592  0.0385
 4515TIP3    H134960   1.047   2.241   1.650 -1.7407 -0.1819 -0.4623
 4515TIP3    H234961   1.012   2.289   1.790  0.4742  0.6128 -0.1715
 4516TIP3   OH234962   5.878   1.239   1.784 -0.2086  0.0388 -0.6360
 4516TIP3    H134963   5.849   1.222   1.695  1.4291  0.2605 -1.2295
 4516TIP3    H234964   5.908   1.330   1.782 -0.6690  0.2145  0.2795
 4517TIP3   OH234965   2.228   4.249  11.922  0.0395  0.1138 -0.1076
 4517TIP3    H134966   2.148   4.285  11.961  1.0518  1.6653  0.5873
 4517TIP3    H234967   2.299   4.291  11.971  1.2758 -2.8002  0.6645
 4518TIP3   OH234968   5.939   3.644  14.347  0.1319  0.2145 -0.4669
 4518TIP3    H134969   5.984   3.607  14.423  2.6047  0.0885 -1.9318
 4518TIP3    H234970   5.961   3.737  14.349 -0.1598  0.2925 -0.8038
 4519TIP3   OH234971   5.321   6.101   1.131  0.4239 -0.1314  0.1291
 4519TIP3    H134972   5.268   6.179   1.148  0.2993  0.1610 -1.5854
 4519TIP3    H234973   5.409   6.134   1.118  0.2166 -0.1858 -1.4618
 4520TIP3   OH234974   5.978   1.762   3.753 -0.0197 -0.5880  0.0184
 4520TIP3    H134975   5.893   1.798   3.777 -0.5460 -1.2438 -0.7943
 4520TIP3    H234976   5.965   1.667   3.758  0.2085 -0.7193 -1.5434
 4521TIP3   OH234977   5.078   5.608  12.413  0.5402 -0.2043  0.1244
 4521TIP3    H134978   5.005   5.633  12.355  1.0922  2.1422  0.3894
 4521TIP3    H234979   5.036   5.590  12.497  0.0576 -0.6985 -0.2190
 4522TIP3   OH234980   4.687   4.152  11.672  0.8071 -0.0641 -0.0956
 4522TIP3    H134981   4.717   4.071  11.629 -0.9515 -0.4661 -0.5763
 4522TIP3    H234982   4.606   4.175  11.627  0.5981  1.2518  0.9291
 4523TIP3   OH234983   6.211   4.965   4.968 -0.2432 -0.3367 -0.0649
 4523TIP3    H134984   6.179   4.889   4.918  0.5711 -0.3634 -0.5576
 4523TIP3    H234985   6.212   5.036   4.904 -2.5060  0.5037  0.7749
 4524TIP3   OH234986   3.042   4.891  12.880  0.1851  0.0113  0.2718
 4524TIP3    H134987   3.065   4.855  12.965  1.2315 -0.4304 -0.1964
 4524TIP3    H234988   3.120   4.936  12.850 -0.3544  0.6383 -0.2130
 4525TIP3   OH234989   2.907   0.513  14.962 -0.6682 -0.1752 -0.6195
 4525TIP3    H134990   2.938   0.428  14.931  0.9605 -0.0177  0.5461
 4525TIP3    H234991   2.814   0.499  14.981  0.1140 -2.3633  1.8416
 4526TIP3   OH234992   3.654   3.475   1.911 -0.1201 -0.0933  0.0020
 4526TIP3    H134993   3.741   3.514   1.916  0.2825 -1.1835  2.0939
 4526TIP3    H234994   3.598   3.535   1.961 -0.4749  0.3121 -0.8651
 4527TIP3   OH234995   4.326   4.966   2.471  0.3545 -0.2886 -0.1728
 4527TIP3    H134996   4.416   4.985   2.445  0.6526 -0.2289  0.8625
 4527TIP3    H234997   4.303   5.037   2.531 -0.3381 -0.3807 -0.3229
 4528TIP3   OH234998   3.435   5.712  16.986 -0.2782 -0.0141 -0.2599
 4528TIP3    H134999   3.407   5.670  16.904 -0.9252 -0.1383  0.0260
 4528TIP3    H235000   3.430   5.642  17.051  0.1384  0.1118 -0.0892
 4529TIP3   OH235001   0.178   2.647  13.965 -0.6833  0.2582 -0.0145
 4529TIP3    H135002   0.094   2.664  14.009 -0.2395 -0.7244  1.2430
 4529TIP3    H235003   0.243   2.654  14.035  0.2157  0.3961 -0.8638
 4530TIP3   OH235004   2.994   3.882  13.734  0.0435  0.3209  0.1365
 4530TIP3    H135005   3.060   3.836  13.683 -1.7195 -2.1177 -0.0390
 4530TIP3    H235006   2.995   3.971  13.701  1.7011 -0.2412 -1.3858
 4531TIP3   OH235007   3.208   4.939  17.111 -0.1639  0.2106 -0.2274
 4531TIP3    H135008   3.132   4.980  17.152 -0.2502 -0.9761  0.8271
 4531TIP3    H235009   3.213   4.852  17.151  2.4897  0.7263  0.6515
 4532TIP3   OH235010   4.253   6.543   1.779 -0.1960 -0.2120  0.4823
 4532TIP3    H135011   4.276   6.606   1.847 -2.3937 -0.5531  1.5727
 4532TIP3    H235012   4.159   6.552   1.768  0.2456  0.5549 -3.2783
 4533TIP3   OH235013   5.874   0.031  14.932 -0.0671  0.6338  0.3397
 4533TIP3    H135014   5.965   0.039  14.961 -0.3494  1.5235  1.0176
 4533TIP3    H235015   5.829  -0.007  15.007  0.1524 -1.8979 -0.7925
 4534TIP3   OH235016   3.486   3.966   5.440  0.0980  0.5374 -0.3859
 4534TIP3    H135017   3.426   3.935   5.508 -0.2362  1.5945 -0.1921
 4534TIP3    H235018   3.557   4.008   5.488  0.3704  0.3811 -0.6530
 4535TIP3   OH235019   4.308   5.539   0.352  0.1404 -0.0512  0.4789
 4535TIP3    H135020   4.289   5.629   0.379  1.5885  0.1014  1.0628
 4535TIP3    H235021   4.366   5.548   0.277  0.1893 -0.4999  0.4604
 4536TIP3   OH235022   6.298   6.578   3.027  0.1158 -0.7088  0.3234
 4536TIP3    H135023   6.332   6.501   3.072  1.6945 -0.0691  0.2815
 4536TIP3    H235024   6.211   6.591   3.063  0.9512 -0.8128  2.4571
 4537TIP3   OH235025   1.256   2.973  16.124  0.1586 -0.3632  0.8898
 4537TIP3    H135026   1.302   3.037  16.071 -1.0162 -0.8352 -0.7395
 4537TIP3    H235027   1.320   2.903  16.138  0.8259  0.2731  1.0657
 4538TIP3   OH235028   4.965   1.756   1.943  0.7433  0.3325 -0.2669
 4538TIP3    H135029   4.909   1.815   1.893  0.6618 -0.2525 -0.8633
 4538TIP3    H235030   4.911   1.678   1.957  0.5929  0.6637  1.1297
 4539TIP3   OH235031   2.297   1.140   3.705 -0.3498 -0.0473 -0.3476
 4539TIP3    H135032   2.342   1.213   3.746  0.7054 -1.1181  0.4074
 4539TIP3    H235033   2.358   1.107   3.639  0.3720 -2.0560  1.2779
 4540TIP3   OH235034   5.496   2.994  11.801  0.6671  0.7508 -0.3473
 4540TIP3    H135035   5.531   2.923  11.747 -1.0845  0.4118 -1.0544
 4540TIP3    H235036   5.407   3.006  11.770  0.0500  1.4183  1.6236
 4541TIP3   OH235037   5.457   6.394  15.817 -0.6121  0.3058 -0.2406
 4541TIP3    H135038   5.541   6.378  15.773  0.0751  0.2614  1.0741
 4541TIP3    H235039   5.471   6.474  15.868 -1.7482  0.9724 -0.9511
 4542TIP3   OH235040   0.485   3.115   0.163 -0.0232 -0.1205  0.0967
 4542TIP3    H135041   0.571   3.087   0.132 -1.2247 -2.8257 -0.9113
 4542TIP3    H235042   0.427   3.100   0.089 -1.5803  0.6667  1.1351
 4543TIP3   OH235043   5.011   1.620   3.300  0.0858  0.4944  0.6102
 4543TIP3    H135044   5.102   1.644   3.281  0.3155 -1.5124 -0.9622
 4543TIP3    H235045   5.018   1.557   3.372  0.0097 -0.4768 -0.2371
 4544TIP3   OH235046   2.950   1.443  14.891 -0.3950  0.0134 -0.3763
 4544TIP3    H135047   2.953   1.393  14.972  2.5752  1.2811  0.3816
 4544TIP3    H235048   3.001   1.391  14.829  1.7008  1.4346  0.0857
 4545TIP3   OH235049   0.518   5.947  16.874  0.1592  0.1420  0.0381
 4545TIP3    H135050   0.590   5.942  16.811 -0.3871  0.8615 -0.6451
 4545TIP3    H235051   0.562   5.940  16.959  1.2200  2.0507 -0.3180
 4546TIP3   OH235052   5.701   4.595   2.032  0.2725  0.8343  0.0956
 4546TIP3    H135053   5.642   4.528   2.066  1.3895 -1.4579 -2.3960
 4546TIP3    H235054   5.723   4.648   2.109 -2.2218 -0.3935  1.7077
 4547TIP3   OH235055   0.062   2.303   4.362 -0.1589  0.3882  0.0818
 4547TIP3    H135056   0.021   2.389   4.363  1.4123  1.1831 -1.8142
 4547TIP3    H235057   0.126   2.306   4.434  2.6047  2.2229 -2.3295
 4548TIP3   OH235058   2.209   1.489  14.724 -0.3945  0.5353 -0.0339
 4548TIP3    H135059   2.299   1.467  14.699 -1.1687 -0.6959 -1.8695
 4548TIP3    H235060   2.187   1.564  14.668 -1.1157 -0.3423 -0.9545
 4549TIP3   OH235061   2.679   6.307   5.413 -0.0801  0.1268 -0.3780
 4549TIP3    H135062   2.715   6.391   5.444 -0.0261 -0.6039  1.6182
 4549TIP3    H235063   2.719   6.242   5.471 -1.5336 -1.0957 -0.7431
 4550TIP3   OH235064   3.753   4.035  12.444 -0.1536  0.2252 -0.4061
 4550TIP3    H135065   3.748   4.131  12.437  0.5356  0.3445  0.5502
 4550TIP3    H235066   3.823   4.010  12.384 -0.4321  0.3126 -0.7642
 4551TIP3   OH235067   6.275   1.248   1.305 -0.3661 -0.1479  0.6033
 4551TIP3    H135068   6.212   1.234   1.375 -0.4324 -1.0114  0.3717
 4551TIP3    H235069   6.346   1.298   1.346 -0.5648 -0.3607  1.1980
 4552TIP3   OH235070   0.691   0.852   6.241  0.0190  0.2025  0.6648
 4552TIP3    H135071   0.768   0.797   6.257  0.5451  0.6279 -0.3571
 4552TIP3    H235072   0.617   0.796   6.264  0.6108 -0.3110  1.3808
 4553TIP3   OH235073   4.284   1.354  12.174  0.0877  0.3722  0.4810
 4553TIP3    H135074   4.335   1.393  12.103 -2.1058  0.1275 -1.2662
 4553TIP3    H235075   4.193   1.370  12.150 -0.7034  0.9200  3.6039
 4554TIP3   OH235076   1.726   1.275  11.435 -0.2637 -1.1549  0.0237
 4554TIP3    H135077   1.691   1.252  11.521  1.6228 -0.9340  0.8782
 4554TIP3    H235078   1.728   1.192  11.387 -0.2875 -1.4788  0.5808
 4555TIP3   OH235079   3.443   1.350   4.326  0.3493 -0.1671 -0.1319
 4555TIP3    H135080   3.516   1.386   4.376 -0.1739 -1.6922  1.8169
 4555TIP3    H235081   3.484   1.285   4.269  0.7370  0.3137 -0.4045
 4556TIP3   OH235082   0.537   3.841  16.911  0.1489 -0.4240  0.6834
 4556TIP3    H135083   0.524   3.858  17.005  0.1388 -2.0423  0.9799
 4556TIP3    H235084   0.456   3.800  16.882 -0.7777  2.1877 -0.5790
 4557TIP3   OH235085   5.429   5.285   2.868 -0.2172  0.2707  0.1148
 4557TIP3    H135086   5.405   5.309   2.778 -0.4298 -1.4653 -0.3028
 4557TIP3    H235087   5.442   5.369   2.912 -0.5172  1.1490 -1.4260
 4558TIP3   OH235088   0.719   0.729   3.301 -0.1101 -0.0864  0.0446
 4558TIP3    H135089   0.625   0.710   3.291 -0.2517 -0.5376  2.0821
 4558TIP3    H235090   0.761   0.643   3.299  0.0354 -0.0534  1.2348
 4559TIP3   OH235091   4.439   6.557   3.039 -0.1212 -0.2754  0.2478
 4559TIP3    H135092   4.491   6.514   2.971 -0.7204  0.2916 -0.5837
 4559TIP3    H235093   4.354   6.572   2.997 -0.1608  1.0308  0.7804
 4560TIP3   OH235094   5.412   0.802  15.986  0.0166 -0.1828  0.2683
 4560TIP3    H135095   5.354   0.874  16.009  1.7505  1.0001  1.0596
 4560TIP3    H235096   5.499   0.841  15.982  0.5053 -1.4829 -2.9936
 4561TIP3   OH235097   1.847   2.371   2.030  0.1019  0.2394  0.2295
 4561TIP3    H135098   1.869   2.321   1.952  0.5661 -1.5084  1.4315
 4561TIP3    H235099   1.755   2.394   2.020  0.7618  2.1593 -1.9349
 4562TIP3   OH235100   5.606   5.515   2.742 -0.1991 -0.1979  0.4758
 4562TIP3    H135101   5.658   5.457   2.687 -1.5040  0.6021 -1.6848
 4562TIP3    H235102   5.652   5.599   2.738 -1.2327  0.3203 -0.8520
 4563TIP3   OH235103   0.273   5.698  15.496 -0.7093 -0.0069 -0.0471
 4563TIP3    H135104   0.204   5.693  15.430  0.7290 -0.3548 -1.5400
 4563TIP3    H235105   0.353   5.673  15.450  0.5031  0.8109  1.5529
 4564TIP3   OH235106   2.241   4.320  14.659  0.5622  0.1329  0.3392
 4564TIP3    H135107   2.250   4.282  14.571 -0.8053  0.8552 -0.1224
 4564TIP3    H235108   2.306   4.274  14.711  0.6875 -1.0399 -0.8163
 4565TIP3   OH235109   2.140   0.074  13.107 -0.5442  0.0912 -0.7526
 4565TIP3    H135110   2.079   0.097  13.037  0.8120  0.9406 -1.6842
 4565TIP3    H235111   2.215   0.034  13.062  1.3312  2.6710 -0.0691
 4566TIP3   OH235112   2.234   6.686  13.570  0.2786 -0.1024 -0.4775
 4566TIP3    H135113   2.152   6.730  13.546  0.9304  0.9508 -0.7704
 4566TIP3    H235114   2.207   6.618  13.632 -0.9403 -0.3616 -1.2577
 4567TIP3   OH235115   6.147   3.922  12.629  0.3481 -0.4454  0.5991
 4567TIP3    H135116   6.219   3.982  12.612  0.6299 -0.3458  2.0558
 4567TIP3    H235117   6.076   3.978  12.661 -0.2171 -0.5990 -0.3611
 4568TIP3   OH235118   1.407   3.670  14.436  0.4508 -0.0494  0.0617
 4568TIP3    H135119   1.477   3.631  14.488 -0.5494 -0.5335  1.0881
 4568TIP3    H235120   1.424   3.643  14.346  0.9572 -1.0849  0.4679
 4569TIP3   OH235121   0.904   5.606   5.396 -0.2066 -0.4620 -0.5334
 4569TIP3    H135122   0.840   5.658   5.346  0.1901 -1.5728 -2.2278
 4569TIP3    H235123   0.876   5.615   5.487  0.2524  3.2836 -0.6828
 4570TIP3   OH235124   4.056   0.236   3.204  0.0472 -0.4399  0.6520
 4570TIP3    H135125   4.094   0.273   3.124  1.3992  2.9142  2.7427
 4570TIP3    H235126   4.102   0.152   3.215 -0.0789 -0.9110 -1.9438
 4571TIP3   OH235127   4.498   5.792   4.709 -0.5313  0.5964 -0.4647
 4571TIP3    H135128   4.539   5.857   4.765 -1.4775  0.0712  0.8517
 4571TIP3    H235129   4.540   5.804   4.624  1.8410  0.5502  0.6572
 4572TIP3   OH235130   1.273   2.068   6.400 -0.4781  0.5654 -0.0508
 4572TIP3    H135131   1.237   2.084   6.487 -0.3588 -3.0107  0.7473
 4572TIP3    H235132   1.202   2.023   6.353  0.5438 -0.3461 -0.7370
 4573TIP3   OH235133   3.300   2.358   4.256  0.7192 -0.5860  0.3780
 4573TIP3    H135134   3.254   2.440   4.274  3.2444  0.5857  1.8105
 4573TIP3    H235135   3.309   2.356   4.161  1.2335  1.1803  0.3703
 4574TIP3   OH235136   5.708   0.058   5.889 -0.0698 -0.2452  0.0431
 4574TIP3    H135137   5.727   0.114   5.964 -0.0983 -2.2191  1.5713
 4574TIP3    H235138   5.763   0.093   5.819  0.4247  1.2497  1.1389
 4575TIP3   OH235139   3.782   1.901  11.507  0.4140 -0.0135  0.1362
 4575TIP3    H135140   3.862   1.882  11.458  0.5082  1.4821 -0.3370
 4575TIP3    H235141   3.794   1.992  11.535 -0.9578  0.0867  0.4028
 4576TIP3   OH235142   3.632   3.951  14.696 -0.1912 -0.2852 -0.1026
 4576TIP3    H135143   3.596   4.029  14.739  0.7794  0.4630 -0.6599
 4576TIP3    H235144   3.661   3.895  14.769  0.1117  0.3443  0.2639
 4577TIP3   OH235145   6.093   2.696  14.855  0.1794 -0.3703 -0.3637
 4577TIP3    H135146   6.002   2.675  14.834  0.5889 -1.9457 -0.6317
 4577TIP3    H235147   6.141   2.684  14.773  0.7308 -0.1280 -0.0837
 4578TIP3   OH235148   0.282   2.401  14.886 -0.2602 -0.6661 -1.1714
 4578TIP3    H135149   0.283   2.446  14.970 -1.1292 -0.3105 -1.3491
 4578TIP3    H235150   0.320   2.463  14.825  0.9973 -1.1754 -0.9267
 4579TIP3   OH235151   4.812   2.351   2.554  0.0063  0.5078  0.4509
 4579TIP3    H135152   4.876   2.281   2.564  0.0017  0.3198 -0.7632
 4579TIP3    H235153   4.781   2.343   2.464 -1.3519  0.9197  0.8697
 4580TIP3   OH235154   1.769   1.693  15.107 -0.0945 -0.7113 -0.3819
 4580TIP3    H135155   1.820   1.737  15.040 -0.0325  0.6216  0.5024
 4580TIP3    H235156   1.766   1.756  15.180 -0.3811 -2.0037  0.7503
 4581TIP3   OH235157   3.959   6.087  13.009  0.3829 -0.1987  0.2358
 4581TIP3    H135158   3.879   6.139  13.001  1.6721  1.8267  0.3066
 4581TIP3    H235159   4.012   6.112  12.933  0.1542 -2.9952 -0.8970
 4582TIP3   OH235160   0.058   3.541   0.463 -0.1081  0.1380 -0.4748
 4582TIP3    H135161   0.108   3.466   0.431  0.4146 -0.3428  1.3915
 4582TIP3    H235162   0.024   3.513   0.547 -0.8924  1.5896 -0.2853
 4583TIP3   OH235163   2.229   4.149  15.718 -0.5840 -0.2030  0.0984
 4583TIP3    H135164   2.207   4.061  15.690  1.0291 -0.2005 -1.2800
 4583TIP3    H235165   2.263   4.139  15.806 -1.3979 -0.8090  0.3439
 4584TIP3   OH235166   4.723   6.610   0.905 -0.9048 -0.1453  0.0930
 4584TIP3    H135167   4.715   6.694   0.949 -0.5455  1.0515 -2.0344
 4584TIP3    H235168   4.811   6.611   0.866 -0.6991 -1.7170  0.4737
 4585TIP3   OH235169   4.015   2.031  15.999  0.3006 -0.7080  0.1980
 4585TIP3    H135170   3.924   2.004  16.009  0.2267 -0.4790  0.1267
 4585TIP3    H235171   4.065   1.966  16.050  0.2062 -1.6095 -0.8365
 4586TIP3   OH235172   6.757   5.427  16.592 -0.7833  0.4142  0.7461
 4586TIP3    H135173   6.750   5.486  16.517  0.2666 -2.0693 -1.3536
 4586TIP3    H235174   6.755   5.486  16.668 -1.5234  3.0046 -1.1948
 4587TIP3   OH235175   1.663   0.996  15.111  0.4962 -0.8610 -0.2341
 4587TIP3    H135176   1.711   0.934  15.055  0.5579  0.6157 -1.8671
 4587TIP3    H235177   1.723   1.070  15.121  0.9413 -1.5927  2.8028
 4588TIP3   OH235178   1.505   3.344  14.420  0.7179  0.0713 -0.3062
 4588TIP3    H135179   1.586   3.395  14.430  0.8337 -0.3409  1.0542
 4588TIP3    H235180   1.495   3.299  14.504  0.0306 -1.2920 -1.0979
 4589TIP3   OH235181   0.064   6.220  16.608  0.4700  0.0608 -0.0535
 4589TIP3    H135182   0.103   6.293  16.656 -0.7243  1.5801 -1.3326
 4589TIP3    H235183  -0.003   6.261  16.552  0.0598 -1.9600 -1.0918
 4590TIP3   OH235184   0.640   1.118  13.829  0.2135 -0.1575 -0.8293
 4590TIP3    H135185   0.628   1.037  13.779  2.0688 -1.6378  1.0157
 4590TIP3    H235186   0.707   1.096  13.894 -1.8244  1.7944  2.0490
 4591TIP3   OH235187   1.032   6.564  11.094  0.2727 -0.2416 -0.0619
 4591TIP3    H135188   1.018   6.510  11.172  1.3041 -0.2560  0.1226
 4591TIP3    H235189   1.052   6.651  11.129  1.7547 -0.4858 -0.2779
 4592TIP3   OH235190   5.622   1.692  14.737  0.1602 -0.8604  0.2394
 4592TIP3    H135191   5.543   1.669  14.688 -0.7177  2.1089  0.1493
 4592TIP3    H235192   5.598   1.679  14.829 -0.5885  0.3345  0.2327
 4593TIP3   OH235193   1.121   0.681  11.892  0.2581 -0.6572  0.6487
 4593TIP3    H135194   1.115   0.776  11.885 -0.3355 -0.7912 -1.0255
 4593TIP3    H235195   1.154   0.665  11.980  1.8965  1.1584  0.4054
 4594TIP3   OH235196   4.322   2.086  15.394  0.2709 -0.3484 -0.6972
 4594TIP3    H135197   4.282   2.027  15.457  0.3606  1.3061  0.9741
 4594TIP3    H235198   4.273   2.168  15.404 -0.0032 -0.1870 -3.1104
 4595TIP3   OH235199   0.370   1.869   2.544  1.0235 -0.3868  0.1404
 4595TIP3    H135200   0.437   1.867   2.612  2.1726 -0.1860 -0.9644
 4595TIP3    H235201   0.419   1.876   2.462 -0.3579  0.0467 -0.6690
 4596TIP3   OH235202   4.219   1.616  15.848 -0.3293 -0.1769  0.0834
 4596TIP3    H135203   4.262   1.530  15.842 -0.6854 -0.5318  2.2574
 4596TIP3    H235204   4.152   1.604  15.915 -1.5007  1.3557 -0.7999
 4597TIP3   OH235205   1.960   4.450  17.231 -1.1001  0.2767  0.0174
 4597TIP3    H135206   1.976   4.494  17.148 -0.0797 -0.0871  0.0190
 4597TIP3    H235207   2.033   4.388  17.240 -2.0291 -0.7846  0.4384
 4598TIP3   OH235208   6.124   0.545   3.407 -0.6862 -0.0840  0.2657
 4598TIP3    H135209   6.171   0.480   3.459  0.9815  0.5802 -0.3497
 4598TIP3    H235210   6.155   0.530   3.317 -0.0867  1.6861  0.1504
 4599TIP3   OH235211   5.490   4.933   0.401 -0.2305 -0.9654  0.4902
 4599TIP3    H135212   5.395   4.950   0.401  0.1707  1.6519  2.2199
 4599TIP3    H235213   5.519   4.957   0.313 -1.1937 -1.8689 -0.0780
 4600TIP3   OH235214   5.077   5.556  11.843 -0.2425  0.0504 -0.0271
 4600TIP3    H135215   5.020   5.620  11.885  0.3568  1.0196 -0.6959
 4600TIP3    H235216   5.069   5.478  11.899 -2.3885  0.0822 -0.2268
 4601TIP3   OH235217   5.397   3.736  14.438 -0.1683  0.1133  0.0514
 4601TIP3    H135218   5.477   3.777  14.471  0.7655 -0.6066 -1.2663
 4601TIP3    H235219   5.361   3.800  14.377  0.6552 -0.4966 -1.1027
 4602TIP3   OH235220   4.893   3.469  13.888  0.2882  0.7623 -0.3055
 4602TIP3    H135221   4.878   3.399  13.952 -0.4160 -0.3905 -1.6933
 4602TIP3    H235222   4.918   3.423  13.808 -0.9129  2.0492 -1.4493
 4603TIP3   OH235223   1.130   1.735   2.169 -0.1286 -0.4711 -0.3601
 4603TIP3    H135224   1.185   1.670   2.126 -0.2038 -0.9413  0.2426
 4603TIP3    H235225   1.145   1.816   2.120  0.7483 -0.6993 -0.4775
 4604TIP3   OH235226   1.829   4.467  12.338  0.2910 -0.2972 -0.4922
 4604TIP3    H135227   1.838   4.549  12.289 -1.1777 -1.6122 -3.0697
 4604TIP3    H235228   1.910   4.420  12.319  0.4049 -0.1505 -0.3737
 4605TIP3   OH235229   1.293   2.011   3.345 -0.0552 -0.9448 -0.2040
 4605TIP3    H135230   1.266   2.024   3.254 -1.0351 -0.4117  0.1494
 4605TIP3    H235231   1.376   2.057   3.353  0.7266 -2.1399 -1.1730
 4606TIP3   OH235232   6.127   3.799  14.466 -0.7933 -0.6035 -0.6291
 4606TIP3    H135233   6.201   3.860  14.456 -0.1176 -1.0781  1.2125
 4606TIP3    H235234   6.071   3.841  14.532  0.1229 -2.3791  1.3115
 4607TIP3   OH235235   3.351   2.328  12.497  0.3279 -0.5227 -0.2223
 4607TIP3    H135236   3.350   2.283  12.581 -1.1343  0.8897  0.5409
 4607TIP3    H235237   3.412   2.401  12.509 -3.0518  2.2157  1.0318
 4608TIP3   OH235238   2.390   1.236   5.392  0.3895 -0.0088  0.6658
 4608TIP3    H135239   2.398   1.260   5.484 -1.6918  0.9504  0.6264
 4608TIP3    H235240   2.334   1.304   5.354  0.8901 -0.6197 -1.2118
 4609TIP3   OH235241   2.085   1.469   1.607  0.2009  0.2723  0.3081
 4609TIP3    H135242   2.013   1.474   1.544 -0.2127 -1.1447  0.6646
 4609TIP3    H235243   2.124   1.383   1.593  0.3203  0.0798  1.7623
 4610TIP3   OH235244   3.360   2.551   0.208  0.4009 -0.7610 -0.2122
 4610TIP3    H135245   3.357   2.647   0.215  0.7372 -0.8580  1.4640
 4610TIP3    H235246   3.268   2.524   0.217  0.2834 -0.5822 -0.8858
 4611TIP3   OH235247   5.392   3.872   0.766  0.5984  0.6270  0.6140
 4611TIP3    H135248   5.432   3.787   0.782 -1.0642 -0.4333 -0.5860
 4611TIP3    H235249   5.355   3.898   0.850 -1.7583 -1.4480  0.3024
 4612TIP3   OH235250   2.441   0.503  17.081  0.0928 -0.2538  0.3730
 4612TIP3    H135251   2.505   0.485  17.150 -0.3356 -1.7549  0.3879
 4612TIP3    H235252   2.469   0.587  17.044  0.9334  0.0526  1.6697
 4613TIP3   OH235253   0.570   0.482   5.060 -0.3088 -0.7827  0.0432
 4613TIP3    H135254   0.485   0.439   5.058 -0.0085 -1.3841  0.0574
 4613TIP3    H235255   0.564   0.551   4.994 -1.3577  0.2352  1.1706
 4614TIP3   OH235256   2.807   2.789  15.337 -0.3958  0.1020 -0.6639
 4614TIP3    H135257   2.882   2.828  15.382  0.0798 -0.7102 -0.7336
 4614TIP3    H235258   2.731   2.838  15.370  0.4228  2.9057 -2.7773
 4615TIP3   OH235259   0.014   3.701  14.170 -0.0579 -0.6178 -0.2011
 4615TIP3    H135260  -0.068   3.693  14.218  1.2505 -1.7509  1.9400
 4615TIP3    H235261   0.036   3.794  14.173 -1.2435 -0.3197 -0.7714
 4616TIP3   OH235262   6.700   6.588   0.108 -0.7823  0.1571 -0.6013
 4616TIP3    H135263   6.760   6.518   0.133  0.5042  1.1010 -0.9784
 4616TIP3    H235264   6.615   6.545   0.100  0.0240 -1.4018 -1.0472
 4617TIP3   OH235265   0.354   2.254   2.090 -0.0796 -0.0940  0.2777
 4617TIP3    H135266   0.317   2.173   2.124 -0.6697  0.4580  0.9733
 4617TIP3    H235267   0.311   2.323   2.140  0.6296  0.6384 -0.1046
 4618TIP3   OH235268   1.589   5.195  12.706  0.4234  0.4743  0.2933
 4618TIP3    H135269   1.586   5.269  12.766  1.2584 -0.3398  1.3548
 4618TIP3    H235270   1.679   5.196  12.671  0.7089 -0.5287  0.9674
 4619TIP3   OH235271   3.102   4.062  12.229  0.4794  0.1304 -0.7735
 4619TIP3    H135272   3.193   4.031  12.227  0.5053  0.1094  0.4238
 4619TIP3    H235273   3.049   3.982  12.223  0.5225  0.2000 -2.3344
 4620TIP3   OH235274   3.004   3.319   0.135  0.1282 -0.5842 -0.0312
 4620TIP3    H135275   2.935   3.380   0.160 -0.1146 -0.7398 -0.3130
 4620TIP3    H235276   2.958   3.239   0.109  0.2782 -0.0285 -2.1090
 4621TIP3   OH235277   2.148   5.302  15.497  0.1979  0.3217 -0.4900
 4621TIP3    H135278   2.192   5.283  15.414 -3.0568 -3.0169 -1.6013
 4621TIP3    H235279   2.198   5.253  15.562 -0.0489 -1.0073 -1.2760
 4622TIP3   OH235280   1.641   6.226  15.897  0.0162 -0.2464  0.4013
 4622TIP3    H135281   1.714   6.261  15.948  0.1979  1.2805 -0.8408
 4622TIP3    H235282   1.674   6.144  15.861  0.3725 -0.6274  1.5746
 4623TIP3   OH235283   6.271   0.394   6.462  0.2385 -0.2645  0.2199
 4623TIP3    H135284   6.313   0.310   6.480  0.5073 -0.1877 -0.0393
 4623TIP3    H235285   6.253   0.392   6.369 -0.1128 -0.1959  0.2879
 4624TIP3   OH235286   4.741   2.310   1.448  0.0185  0.1782  0.4598
 4624TIP3    H135287   4.831   2.289   1.474 -0.0412 -0.2992  0.2924
 4624TIP3    H235288   4.743   2.307   1.352 -0.3391 -0.5521  0.4698
 4625TIP3   OH235289   1.179   6.353  16.385  0.3310  0.3710 -0.1465
 4625TIP3    H135290   1.183   6.264  16.421 -0.6500  0.4193  0.0948
 4625TIP3    H235291   1.238   6.351  16.310 -1.2198 -1.0689 -1.3793
 4626TIP3   OH235292   1.609   3.958   1.024 -0.2705 -0.3179  0.0486
 4626TIP3    H135293   1.631   4.010   1.101 -0.6798 -1.4472  0.9461
 4626TIP3    H235294   1.592   4.023   0.956  1.1124  0.6735  0.6168
 4627TIP3   OH235295   3.173   0.008  16.635  0.1560  0.3843  0.0496
 4627TIP3    H135296   3.258   0.026  16.596  0.7256  0.3326  1.2508
 4627TIP3    H235297   3.180   0.042  16.724 -1.6957  2.0419 -0.4044
 4628TIP3   OH235298   1.731   3.488  11.077 -0.1647 -0.0349 -0.1131
 4628TIP3    H135299   1.702   3.572  11.114  1.8261 -0.2399  2.0920
 4628TIP3    H235300   1.819   3.506  11.044 -0.1642 -0.9866 -0.6414
 4629TIP3   OH235301   5.970   5.384  12.208 -0.6461  0.0310  0.0152
 4629TIP3    H135302   5.897   5.374  12.148 -0.2327  0.6517 -0.6055
 4629TIP3    H235303   5.933   5.428  12.284 -1.1169 -0.5263  0.1168
 4630TIP3   OH235304   4.183   1.959   5.107 -0.1127 -0.3096 -0.5192
 4630TIP3    H135305   4.137   2.001   5.035  1.3744  1.8383 -0.2597
 4630TIP3    H235306   4.115   1.940   5.172 -0.7543  2.2234 -0.4199
 4631TIP3   OH235307   2.733   2.360   2.076  0.4194 -0.1727 -0.0317
 4631TIP3    H135308   2.639   2.359   2.097  0.6662 -1.4350  1.0214
 4631TIP3    H235309   2.739   2.420   2.001 -1.1855  0.1566  0.0716
 4632TIP3   OH235310   4.076   5.529   5.088 -0.0924  0.1334  0.0333
 4632TIP3    H135311   4.147   5.508   5.027  0.9456  1.3599  0.7991
 4632TIP3    H235312   4.007   5.564   5.032  1.3409  2.4943 -0.3633
 4633TIP3   OH235313   0.668   2.146   2.428 -0.4800  0.0973  0.2104
 4633TIP3    H135314   0.688   2.066   2.476  0.1504 -0.4906 -1.0023
 4633TIP3    H235315   0.735   2.151   2.360 -1.4679  0.8023 -0.7325
 4634TIP3   OH235316   3.878   2.002  13.205 -0.6641  0.3568 -0.3708
 4634TIP3    H135317   3.873   2.085  13.253 -2.3672 -0.0955  0.2460
 4634TIP3    H235318   3.968   1.973  13.218 -0.8339  0.6980  1.7935
 4635TIP3   OH235319   1.313   0.261  13.003 -0.1588  0.1845 -0.0881
 4635TIP3    H135320   1.233   0.220  12.970  0.8344 -1.7132 -0.1702
 4635TIP3    H235321   1.325   0.225  13.091  0.4170  0.7366  0.0691
 4636TIP3   OH235322   3.255   1.135  12.984 -0.0984 -0.2515  0.5707
 4636TIP3    H135323   3.273   1.222  13.019 -2.0908  0.0987  0.8138
 4636TIP3    H235324   3.231   1.083  13.061  0.0609 -0.7305  0.2962
 4637TIP3   OH235325   2.493   2.795   5.835 -0.6048 -0.0002 -0.4134
 4637TIP3    H135326   2.403   2.775   5.862 -0.7951  1.3177 -0.0078
 4637TIP3    H235327   2.503   2.751   5.751 -1.6887 -0.0307 -0.5355
 4638TIP3   OH235328   3.871   6.272  16.696  0.1619 -0.2112 -0.2928
 4638TIP3    H135329   3.872   6.242  16.605  0.9175 -0.3311 -0.2472
 4638TIP3    H235330   3.962   6.265  16.725 -0.1850 -0.8782  0.7005
 4639TIP3   OH235331   0.985   3.150   4.012 -0.4046  0.1460 -0.0291
 4639TIP3    H135332   1.009   3.131   3.921  0.2371 -2.1260  0.5778
 4639TIP3    H235333   1.004   3.243   4.023  2.8048 -0.3212 -1.2364
 4640TIP3   OH235334   0.063   5.454  15.092  0.0417  0.0424 -0.3109
 4640TIP3    H135335   0.013   5.399  15.151 -1.1024  1.0714 -0.2978
 4640TIP3    H235336   0.100   5.394  15.028  1.0730 -1.0561  1.2642
 4641TIP3   OH235337   1.234   2.050  14.271 -0.2471 -0.0845  0.2849
 4641TIP3    H135338   1.285   2.130  14.259 -0.3958 -0.0012  0.2039
 4641TIP3    H235339   1.143   2.080  14.272 -0.2278 -0.0549  1.9503
 4642TIP3   OH235340   5.214   4.501   5.106 -1.0037 -0.7045  0.2533
 4642TIP3    H135341   5.134   4.462   5.069 -1.4353 -1.3685  1.8558
 4642TIP3    H235342   5.222   4.461   5.193  0.3832  0.3155  0.6039
 4643TIP3   OH235343   5.261   6.208   0.548 -0.0654  0.8161 -0.3227
 4643TIP3    H135344   5.340   6.244   0.589 -0.5796  0.5414  0.9346
 4643TIP3    H235345   5.272   6.226   0.455  2.4526 -1.0177 -0.4422
 4644TIP3   OH235346   4.414   3.736  16.266  0.0802  0.5758  0.2737
 4644TIP3    H135347   4.424   3.671  16.197  0.8868  1.4516 -0.4624
 4644TIP3    H235348   4.425   3.687  16.347  0.9622 -0.1544 -0.2774
 4645TIP3   OH235349   0.846   5.406  11.366 -0.0559 -0.0251  0.3466
 4645TIP3    H135350   0.910   5.428  11.298 -1.2399 -0.1739 -0.8395
 4645TIP3    H235351   0.893   5.346  11.424  0.7716 -0.4518 -0.7370
 4646TIP3   OH235352   3.993   2.765   4.711  0.4919  0.2828 -0.7162
 4646TIP3    H135353   3.955   2.683   4.742  0.3089  0.7883  0.4271
 4646TIP3    H235354   4.088   2.753   4.719  0.5409 -0.3976 -2.0863
 4647TIP3   OH235355   1.414   1.414   0.875  0.8647  0.1073 -0.0352
 4647TIP3    H135356   1.494   1.439   0.830  1.2269 -0.9619  0.0169
 4647TIP3    H235357   1.434   1.423   0.968  0.5810  0.8745 -0.0418
 4648TIP3   OH235358   6.481   6.193   2.783  0.3669 -0.0669 -0.1949
 4648TIP3    H135359   6.450   6.280   2.762 -0.1985 -0.0716  0.5916
 4648TIP3    H235360   6.478   6.145   2.700  1.6189  0.9290 -0.8409
 4649TIP3   OH235361   1.595   2.099   3.001 -0.1620  0.3203  0.2203
 4649TIP3    H135362   1.618   2.095   2.908 -1.7177  0.3116 -0.1789
 4649TIP3    H235363   1.651   2.168   3.037  0.7090  0.0790 -0.6394
 4650TIP3   OH235364   0.051   2.546   5.879  0.6327 -0.3519  0.1144
 4650TIP3    H135365   0.070   2.515   5.968 -1.5810 -0.3033  0.6141
 4650TIP3    H235366  -0.042   2.567   5.880  0.6260 -0.1997 -2.1832
 4651TIP3   OH235367   4.895   5.203   2.403  0.7145 -0.6396  0.6720
 4651TIP3    H135368   4.903   5.297   2.386 -1.8961 -0.5583 -0.3477
 4651TIP3    H235369   4.870   5.197   2.495 -0.1968 -0.2720  0.4525
 4652TIP3   OH235370   4.563   2.719  13.656  0.2068  0.4133  0.1192
 4652TIP3    H135371   4.509   2.769  13.594  0.7389  0.3130 -0.4345
 4652TIP3    H235372   4.564   2.773  13.735  0.7903  1.3015 -0.4744
 4653TIP3   OH235373   5.030   1.557  14.529 -0.0940  0.3415  0.0632
 4653TIP3    H135374   5.079   1.533  14.450  1.8236  0.3303  1.2372
 4653TIP3    H235375   5.078   1.630  14.566 -0.8791  0.2271  1.3452
 4654TIP3   OH235376   1.094   1.249  14.586  0.0168  0.0068 -0.8165
 4654TIP3    H135377   1.034   1.258  14.512 -0.8796  0.2661 -0.0614
 4654TIP3    H235378   1.109   1.339  14.616  0.9433 -0.0345 -1.1122
 4655TIP3   OH235379   4.041   3.741  11.221 -0.2546  0.1679 -0.3859
 4655TIP3    H135380   3.951   3.735  11.190 -0.7202 -0.7409  1.1034
 4655TIP3    H235381   4.095   3.719  11.144 -1.2861  0.6638 -1.2635
 4656TIP3   OH235382   2.262   1.751  12.448 -0.0882 -0.4714 -0.2875
 4656TIP3    H135383   2.234   1.671  12.403 -1.5324  0.3987 -0.9982
 4656TIP3    H235384   2.198   1.763  12.518 -0.6108  0.6820 -0.9348
 4657TIP3   OH235385   0.073   0.510  16.565 -0.3102 -0.0948  0.5502
 4657TIP3    H135386   0.168   0.505  16.578  0.1259 -1.6208 -2.7539
 4657TIP3    H235387   0.038   0.435  16.614  0.2563 -0.0867  0.9764
 4658TIP3   OH235388   6.771   1.798  15.578 -0.6181  0.1977  0.3162
 4658TIP3    H135389   6.724   1.880  15.563 -1.8307 -0.2953  1.2969
 4658TIP3    H235390   6.723   1.732  15.527 -0.0007 -0.0172  0.0027
 4659TIP3   OH235391   3.019   3.136  11.381 -0.0732 -0.1764  0.4433
 4659TIP3    H135392   2.948   3.075  11.403  0.5945 -0.2163  2.6428
 4659TIP3    H235393   3.098   3.093  11.415  0.7562  0.6723 -0.4225
 4660TIP3   OH235394   2.242   3.410  10.655 -0.0708  0.2958 -0.0068
 4660TIP3    H135395   2.182   3.342  10.687 -0.2917  0.8101  0.6879
 4660TIP3    H235396   2.306   3.362  10.602  0.7726 -0.7002  1.8688
 4661TIP3   OH235397   0.679   3.707   0.702 -0.1736  0.2799  0.4596
 4661TIP3    H135398   0.733   3.630   0.717  0.4171  0.9934  2.0329
 4661TIP3    H235399   0.612   3.677   0.641 -0.8324 -1.9072  2.1791
 4662TIP3   OH235400   5.019   2.241  11.366  0.8870 -0.0123 -0.5458
 4662TIP3    H135401   4.995   2.229  11.275  0.3370  0.4531 -0.4646
 4662TIP3    H235402   5.105   2.200  11.374  0.0813 -1.8050 -0.8125
 4663TIP3   OH235403   6.443   1.149  11.445  0.2414  0.4401  0.2219
 4663TIP3    H135404   6.469   1.240  11.459 -0.5058  0.8583 -0.9869
 4663TIP3    H235405   6.480   1.126  11.360 -1.1581  0.2272 -0.3393
 4664TIP3   OH235406   3.103   3.523  16.956 -0.1610 -0.1476 -0.8718
 4664TIP3    H135407   3.086   3.617  16.962  0.4625 -0.1463  1.1616
 4664TIP3    H235408   3.161   3.514  16.881  0.3642  1.1778 -0.6355
 4665TIP3   OH235409   2.213   0.774  16.101 -0.2232  0.0856 -0.1676
 4665TIP3    H135410   2.136   0.754  16.046 -0.6598  1.8601 -0.2075
 4665TIP3    H235411   2.177   0.812  16.180  0.5884  0.2957  0.1021
 4666TIP3   OH235412   1.874   3.112  13.917  0.0179  0.2670 -0.0730
 4666TIP3    H135413   1.893   3.183  13.977 -0.3141 -0.0306  0.3911
 4666TIP3    H235414   1.799   3.066  13.957  0.6021 -0.6980 -0.0590
 4667TIP3   OH235415   6.359   3.008  14.269 -0.5561 -0.1878 -0.2791
 4667TIP3    H135416   6.396   3.052  14.345 -1.2974  0.4718 -0.2878
 4667TIP3    H235417   6.430   2.955  14.234 -0.1655 -0.3845  0.7871
 4668TIP3   OH235418   3.513   5.731   3.673  0.0694  0.1460  0.4863
 4668TIP3    H135419   3.488   5.802   3.732  0.0823 -0.2268  0.9434
 4668TIP3    H235420   3.609   5.729   3.677  0.0650  0.0461  0.5350
 4669TIP3   OH235421   0.742   0.451   2.018 -0.0025 -0.6359  0.2196
 4669TIP3    H135422   0.810   0.476   1.956 -1.8011  1.6180 -0.9550
 4669TIP3    H235423   0.689   0.386   1.971  1.1832 -2.2679  1.0737
 4670TIP3   OH235424   1.631   5.280   5.917 -0.4071 -0.3497 -0.1603
 4670TIP3    H135425   1.723   5.276   5.943 -0.4588 -0.0626  0.0664
 4670TIP3    H235426   1.583   5.295   5.998 -0.4197  2.3445 -0.6261
 4671TIP3   OH235427   1.312   3.368   2.655  0.7927  0.6345  0.3931
 4671TIP3    H135428   1.323   3.280   2.620 -1.4170 -0.6059  2.6223
 4671TIP3    H235429   1.396   3.389   2.697  1.8017  0.2054 -1.3716
 4672TIP3   OH235430   4.773   6.729  12.741 -0.3069  0.4437  0.5367
 4672TIP3    H135431   4.818   6.805  12.704 -3.6846  1.5792 -1.3972
 4672TIP3    H235432   4.713   6.767  12.806 -0.2142 -0.8218  1.3669
 4673TIP3   OH235433   6.539   6.330   1.381  0.2791  0.1492  0.2351
 4673TIP3    H135434   6.544   6.245   1.426  1.5197  0.3154  0.4481
 4673TIP3    H235435   6.451   6.362   1.400 -1.2287 -2.3387 -2.1658
 4674TIP3   OH235436   5.298   4.160  13.287 -0.1898  0.0949  0.1032
 4674TIP3    H135437   5.244   4.193  13.215  0.6738 -1.4237 -1.2699
 4674TIP3    H235438   5.243   4.094  13.330 -1.2941  2.0682  1.8434
 4675TIP3   OH235439   4.916   0.159  12.664  0.1140 -0.1585  0.1797
 4675TIP3    H135440   4.847   0.225  12.660 -1.0410 -1.2544  1.4407
 4675TIP3    H235441   4.996   0.208  12.683 -0.4965  0.9939 -0.1637
 4676TIP3   OH235442   4.523   4.534   2.902 -0.8101 -0.1198 -0.0580
 4676TIP3    H135443   4.514   4.544   2.807  1.0416 -1.4201 -0.3885
 4676TIP3    H235444   4.589   4.466   2.913  0.7216  1.6250  2.1544
 4677TIP3   OH235445   2.088   1.584  17.210  0.2463  0.3929 -0.2436
 4677TIP3    H135446   2.041   1.615  17.287 -0.6044  0.1866 -0.6725
 4677TIP3    H235447   2.069   1.649  17.142  1.2325  0.7288 -0.1970
 4678TIP3   OH235448   3.409   3.067  15.204 -0.4115 -0.1325  0.0267
 4678TIP3    H135449   3.314   3.062  15.194 -0.3414 -2.0437  0.0559
 4678TIP3    H235450   3.424   3.049  15.297 -0.0573  0.6515  0.1206
 4679TIP3   OH235451   4.366   6.454  16.673 -0.0401  0.0422 -0.5535
 4679TIP3    H135452   4.388   6.426  16.762 -0.7728 -0.9804 -0.6805
 4679TIP3    H235453   4.346   6.373  16.627 -3.3368  0.8304 -0.6288
 4680TIP3   OH235454   2.588   1.038  13.548 -0.1080  0.4167 -0.0769
 4680TIP3    H135455   2.592   1.133  13.539 -0.5859  0.3156 -1.3555
 4680TIP3    H235456   2.503   1.021  13.589 -0.5769  0.4645 -1.0099
 4681TIP3   OH235457   3.019   4.075  15.480 -0.2962 -0.0291  0.0476
 4681TIP3    H135458   3.002   4.038  15.393  1.0617  0.9555 -0.6645
 4681TIP3    H235459   3.081   4.013  15.520  1.9069  1.3478 -1.1109
 4682TIP3   OH235460   0.459   4.944  11.696 -0.2745 -0.4313 -0.1775
 4682TIP3    H135461   0.552   4.920  11.697 -0.1715 -0.0120  0.9411
 4682TIP3    H235462   0.418   4.877  11.641  0.2762 -2.1708  1.4658
 4683TIP3   OH235463   1.629   4.107   2.007 -0.1263 -0.5615 -0.7055
 4683TIP3    H135464   1.572   4.169   1.962  1.8711  1.7016 -0.2301
 4683TIP3    H235465   1.707   4.101   1.951  1.7778  1.1778  1.6533
 4684TIP3   OH235466   4.760   4.774  11.066 -0.1721 -0.3169  0.1932
 4684TIP3    H135467   4.689   4.782  11.002  0.5720 -0.3829 -0.6629
 4684TIP3    H235468   4.828   4.833  11.033  0.0868 -0.0844  1.1266
 4685TIP3   OH235469   6.101   2.537  11.393 -0.5229  0.0081  0.4517
 4685TIP3    H135470   6.156   2.477  11.343 -0.0163  0.1090  0.8833
 4685TIP3    H235471   6.133   2.624  11.370 -0.8088  0.0871  0.3490
 4686TIP3   OH235472   2.577   6.524   5.700  0.2260 -0.1098 -0.3422
 4686TIP3    H135473   2.550   6.442   5.658 -0.8563  0.9994 -1.8293
 4686TIP3    H235474   2.511   6.587   5.674  1.1872  1.3117  0.6125
 4687TIP3   OH235475   6.738   5.356   4.635  0.5315 -0.3435  0.5442
 4687TIP3    H135476   6.833   5.367   4.628  0.6307 -0.1961  2.0386
 4687TIP3    H235477   6.725   5.303   4.713 -0.6211 -0.4610  0.2838
 4688TIP3   OH235478   1.211   0.686  13.981 -0.1671 -0.4702 -0.0775
 4688TIP3    H135479   1.282   0.744  14.007  0.0914 -0.8844  0.1436
 4688TIP3    H235480   1.214   0.686  13.885 -0.1762 -0.1091 -0.0778
 4689TIP3   OH235481   1.954   3.695  14.788 -0.2450 -0.2257 -0.0051
 4689TIP3    H135482   1.910   3.703  14.704 -0.5656  0.9935  0.2549
 4689TIP3    H235483   1.883   3.677  14.851  0.1519 -2.4964 -0.1717
 4690TIP3   OH235484   2.194   2.498  15.478 -0.4867  0.2148  0.3640
 4690TIP3    H135485   2.183   2.406  15.453  1.6016  0.7640 -2.8336
 4690TIP3    H235486   2.267   2.498  15.540 -0.7561 -0.3001  0.6869
 4691TIP3   OH235487   5.688   1.122  14.690 -0.0295 -0.5487 -0.1408
 4691TIP3    H135488   5.706   1.093  14.780  0.5532  0.2253  0.0028
 4691TIP3    H235489   5.699   1.217  14.694 -2.6539 -0.2061 -0.4256
 4692TIP3   OH235490   0.187   5.760   1.687 -0.2927 -0.4465  0.7759
 4692TIP3    H135491   0.138   5.842   1.695  0.3165 -0.1961  2.0474
 4692TIP3    H235492   0.132   5.694   1.728 -0.2778 -0.4601  0.7746
 4693TIP3   OH235493   6.355   4.890   0.445  0.1988 -0.0987  0.1664
 4693TIP3    H135494   6.270   4.912   0.407  0.6767  1.0992 -0.2307
 4693TIP3    H235495   6.390   4.823   0.386  0.3452  0.7699 -0.7450
 4694TIP3   OH235496   2.211   0.171   0.784 -0.1900  0.0208  0.6073
 4694TIP3    H135497   2.178   0.252   0.823  0.6751  0.6382  0.0701
 4694TIP3    H235498   2.299   0.162   0.821  0.0506 -0.2037 -0.0228
 4695TIP3   OH235499   1.723   1.950  14.678 -0.4327 -0.0143 -0.2611
 4695TIP3    H135500   1.650   2.011  14.689 -0.0047  0.5151 -0.3075
 4695TIP3    H235501   1.753   1.966  14.588  0.5699  0.7047  0.1921
 4696TIP3   OH235502   3.042   5.553   5.342 -0.2165  0.1023 -0.1299
 4696TIP3    H135503   3.092   5.587   5.416 -1.3014  3.1832 -0.7768
 4696TIP3    H235504   2.978   5.621   5.322 -1.2242 -1.5178 -2.6669
 4697TIP3   OH235505   2.464   1.579  11.413 -0.4123 -0.1127 -0.6328
 4697TIP3    H135506   2.544   1.567  11.362 -0.6874  1.3644 -1.4417
 4697TIP3    H235507   2.494   1.580  11.504  0.6792  1.5498 -0.9759
 4698TIP3   OH235508   3.968   3.297   2.077  0.2045  0.1924  0.2055
 4698TIP3    H135509   3.939   3.308   1.986 -1.4829  0.8386  0.8007
 4698TIP3    H235510   4.029   3.224   2.074 -1.6403 -1.3602 -1.0859
 4699TIP3   OH235511   6.582   4.475   5.003  0.6109  0.5742 -0.4724
 4699TIP3    H135512   6.577   4.514   5.090  1.9503 -2.7675  1.1907
 4699TIP3    H235513   6.673   4.486   4.976  0.7134 -0.2856 -0.5084
 4700TIP3   OH235514   2.300   2.815  15.704 -0.0155 -0.2291  0.1913
 4700TIP3    H135515   2.348   2.843  15.782  1.1841 -0.4402 -0.4607
 4700TIP3    H235516   2.220   2.774  15.738  0.5108 -0.3386  1.3094
 4701TIP3   OH235517   1.185   1.493  11.033 -0.1999  0.2142 -1.3034
 4701TIP3    H135518   1.138   1.512  11.115  1.6494 -0.7953  0.0283
 4701TIP3    H235519   1.276   1.512  11.053  0.6640 -2.6101 -2.2837
 4702TIP3   OH235520   5.373   3.356   2.050 -0.1245 -0.4461 -0.0526
 4702TIP3    H135521   5.355   3.403   1.968 -3.1775 -0.9852  0.2358
 4702TIP3    H235522   5.327   3.272   2.040 -0.4398 -0.5637  2.1678
 4703TIP3   OH235523   4.434   4.030  15.747  0.5076  0.1670 -0.2944
 4703TIP3    H135524   4.414   3.940  15.720 -0.7177  0.6891 -1.2254
 4703TIP3    H235525   4.363   4.053  15.808  1.4773  0.0964  0.8635
 4704TIP3   OH235526   6.641   2.859   3.982 -0.2336 -0.1113  0.4943
 4704TIP3    H135527   6.686   2.901   3.909 -0.3546 -0.5883  0.1391
 4704TIP3    H235528   6.557   2.905   3.988 -0.0554  0.2020  0.5994
 4705TIP3   OH235529   1.788   6.415  11.808  0.0872  0.3354 -0.5344
 4705TIP3    H135530   1.695   6.428  11.829  0.1990  0.7726 -0.3070
 4705TIP3    H235531   1.800   6.460  11.724 -0.1629 -0.6850 -1.1274
 4706TIP3   OH235532   5.841   2.687  13.277  0.1921 -0.2544  0.1292
 4706TIP3    H135533   5.795   2.616  13.321  0.6307 -0.5509  0.1145
 4706TIP3    H235534   5.870   2.648  13.194  0.5734 -0.1081  0.1936
 4707TIP3   OH235535   0.591   5.990  11.503 -0.3664  0.2612 -0.3340
 4707TIP3    H135536   0.610   6.083  11.491  2.5166 -0.2281  0.2147
 4707TIP3    H235537   0.576   5.957  11.415  1.7254  0.6126 -0.8331
 4708TIP3   OH235538   0.488   0.166   3.076 -0.0888  0.2956  0.5072
 4708TIP3    H135539   0.556   0.233   3.080  0.1359 -0.0150  2.0131
 4708TIP3    H235540   0.532   0.085   3.101 -1.0334  0.1181  1.6655
 4709TIP3   OH235541   0.809   6.516  16.130 -0.2038  0.2388 -0.4268
 4709TIP3    H135542   0.814   6.435  16.081 -0.3993 -1.1264  1.7609
 4709TIP3    H235543   0.866   6.577  16.082  0.9809 -1.5520 -1.3393
 4710TIP3   OH235544   6.407   0.097  14.672  0.9560 -0.0486 -0.2265
 4710TIP3    H135545   6.442   0.143  14.748  3.0557 -1.3430 -0.3673
 4710TIP3    H235546   6.458   0.015  14.668 -0.8305 -1.1269 -1.5552
 4711TIP3   OH235547   1.994   0.228   2.844  0.4916 -0.6691 -0.0304
 4711TIP3    H135548   1.926   0.213   2.910  0.5903  0.5666  0.3611
 4711TIP3    H235549   1.974   0.165   2.774 -0.0205 -1.5047  0.8685
 4712TIP3   OH235550   4.192   3.398   0.518  0.3616  0.2715  0.7632
 4712TIP3    H135551   4.114   3.445   0.547 -0.3739 -0.3146 -0.2336
 4712TIP3    H235552   4.185   3.397   0.423  2.4353  1.6503  0.5791
 4713TIP3   OH235553   0.279   6.447  13.102  0.0339  0.1308  0.5572
 4713TIP3    H135554   0.239   6.377  13.050  3.1527 -1.2267 -0.1589
 4713TIP3    H235555   0.278   6.523  13.044 -1.9131  0.2875  0.7489
 4714TIP3   OH235556   4.929   3.444  15.610  0.3848 -0.3982 -0.1365
 4714TIP3    H135557   4.964   3.532  15.622  0.2524 -0.7547  3.3221
 4714TIP3    H235558   4.855   3.455  15.549  0.9565  1.6969 -0.4851
 4715TIP3   OH235559   4.144   2.736   6.577  0.0189 -0.1597  0.0244
 4715TIP3    H135560   4.222   2.738   6.632 -0.7593  0.7124  1.1296
 4715TIP3    H235561   4.091   2.665   6.613 -0.4184  0.3058  0.3057
 4716TIP3   OH235562   5.651   6.499  13.055  0.1499 -0.0192  0.1373
 4716TIP3    H135563   5.619   6.415  13.090 -0.2598 -0.0600 -0.3232
 4716TIP3    H235564   5.715   6.474  12.988  0.8594  0.0563  0.7837
 4717TIP3   OH235565   4.865   2.894   3.915 -0.0780 -0.2302  0.3253
 4717TIP3    H135566   4.845   2.925   4.003 -0.6798  1.7338 -0.4774
 4717TIP3    H235567   4.920   2.962   3.877  0.0414 -0.9827 -0.8784
 4718TIP3   OH235568   5.704   6.725   4.438 -0.4378  0.2220 -0.2736
 4718TIP3    H135569   5.755   6.798   4.401  1.3387 -0.6259  0.4345
 4718TIP3    H235570   5.625   6.767   4.473 -0.1347  1.6032 -1.1873
 4719TIP3   OH235571   4.304   1.555   0.080 -0.0483  0.1716  0.1820
 4719TIP3    H135572   4.335   1.616   0.146  0.7378  0.0587 -0.0774
 4719TIP3    H235573   4.300   1.470   0.125 -2.0316  0.5787  0.7951
 4720TIP3   OH235574   5.411   0.971   1.443  0.0818  0.1466  0.7830
 4720TIP3    H135575   5.495   0.969   1.487 -0.3769  0.9974  1.7103
 4720TIP3    H235576   5.405   0.886   1.399  1.4234  0.0922  0.6875
 4721TIP3   OH235577   5.158   4.447   1.028  0.3944 -0.5481  0.3080
 4721TIP3    H135578   5.194   4.524   1.072  1.9938 -0.8592 -0.4109
 4721TIP3    H235579   5.064   4.451   1.045  0.5302  1.2667  0.7428
 4722TIP3   OH235580   1.168   2.524  11.312  0.3320 -0.3058  0.4402
 4722TIP3    H135581   1.165   2.522  11.408 -0.0123  1.2221  0.4834
 4722TIP3    H235582   1.113   2.599  11.289  0.3617 -0.7099 -0.9580
 4723TIP3   OH235583   4.398   3.269  15.084  0.7891 -0.7481 -0.3700
 4723TIP3    H135584   4.447   3.227  15.155 -0.9108 -1.4720  0.3967
 4723TIP3    H235585   4.402   3.363  15.104 -0.5854 -1.0186  1.3077
 4724TIP3   OH235586   1.652   2.273  16.892  0.0067  0.4180  0.1119
 4724TIP3    H135587   1.738   2.313  16.878  0.8008 -0.8463  1.2460
 4724TIP3    H235588   1.669   2.179  16.894 -1.2737  0.1945  1.2492
 4725TIP3   OH235589   2.905   1.103  16.852 -0.3541 -0.2322 -0.0594
 4725TIP3    H135590   2.898   1.022  16.803 -0.0077 -1.0246  1.1727
 4725TIP3    H235591   2.938   1.077  16.938  0.8257  1.3315 -0.0039
 4726TIP3   OH235592   2.632   5.507  15.450  0.0507  0.5107  0.3845
 4726TIP3    H135593   2.638   5.586  15.395 -1.6588  1.3658  1.3713
 4726TIP3    H235594   2.542   5.477  15.437  0.6127 -1.1335  0.2474
 4727TIP3   OH235595   0.817   4.123  15.924 -0.2773  0.1053 -0.0981
 4727TIP3    H135596   0.909   4.098  15.926  0.2031  1.8789  1.6560
 4727TIP3    H235597   0.776   4.068  15.991  0.1788  1.6830  1.5162
 4728TIP3   OH235598   6.269   2.474  15.773  0.1930 -0.4978  0.1030
 4728TIP3    H135599   6.219   2.396  15.750  0.4399 -0.3753 -0.8812
 4728TIP3    H235600   6.248   2.490  15.864 -1.4508 -0.5203 -0.2608
 4729TIP3   OH235601   0.443   2.624  13.420 -0.4431  0.2701 -0.2448
 4729TIP3    H135602   0.421   2.533  13.445  0.4925 -0.1983 -1.1330
 4729TIP3    H235603   0.530   2.638  13.456 -0.6643  0.9048  0.0604
 4730TIP3   OH235604   1.699   6.668   0.684 -0.2227  0.0077  0.1981
 4730TIP3    H135605   1.641   6.737   0.651 -0.1882  0.4070  0.9566
 4730TIP3    H235606   1.643   6.591   0.689 -0.0718 -0.2370 -1.3944
 4731TIP3   OH235607   6.706   1.001  12.117 -0.1296  0.4441  0.5154
 4731TIP3    H135608   6.735   0.943  12.187 -0.5267 -0.5687 -0.1569
 4731TIP3    H235609   6.786   1.023  12.069  0.1779  1.3286  1.4173
 4732TIP3   OH235610   5.937   3.037   2.258 -0.3196  0.1415  0.3000
 4732TIP3    H135611   5.860   3.095   2.261 -0.2452  0.2714 -0.2168
 4732TIP3    H235612   6.007   3.089   2.298 -1.0401 -0.8381  2.9279
 4733TIP3   OH235613   1.907   4.710   3.040  0.1552 -0.2860  0.0694
 4733TIP3    H135614   1.969   4.749   3.102 -0.4344 -0.7991  0.9964
 4733TIP3    H235615   1.859   4.785   3.004  2.3504  0.2631 -1.8296
 4734TIP3   OH235616   1.300   2.763  13.760  0.9214 -0.4404  0.3826
 4734TIP3    H135617   1.390   2.783  13.787  0.9439  0.2264 -0.1481
 4734TIP3    H235618   1.295   2.668  13.759  2.1230 -0.5059 -1.1622
 4735TIP3   OH235619   3.908   1.342   4.111  0.0810 -0.0645  0.1837
 4735TIP3    H135620   3.863   1.258   4.100 -1.8817  0.6640  2.2093
 4735TIP3    H235621   3.843   1.407   4.086  1.1275  0.9272 -0.0100
 4736TIP3   OH235622   0.659   2.727   2.151 -0.4705 -0.1444  0.0131
 4736TIP3    H135623   0.632   2.734   2.059 -0.2848 -0.8328 -0.0941
 4736TIP3    H235624   0.668   2.633   2.166 -1.1213 -0.0554  0.9223
 4737TIP3   OH235625   2.270   2.078   4.397  0.3578 -0.3775 -0.1509
 4737TIP3    H135626   2.193   2.092   4.452  0.9658 -0.5029  0.7414
 4737TIP3    H235627   2.326   2.153   4.417 -0.1898  0.5330 -1.9452
 4738TIP3   OH235628   0.756   0.380  14.040  0.7217 -0.0065  0.0474
 4738TIP3    H135629   0.725   0.340  13.958  0.6655  1.7335 -0.8109
 4738TIP3    H235630   0.818   0.447  14.011  0.6791  0.6366  1.4334
 4739TIP3   OH235631   1.976   4.827   0.861 -0.4571 -0.7484 -0.0156
 4739TIP3    H135632   2.028   4.876   0.797  0.0607  0.4740  1.3074
 4739TIP3    H235633   1.923   4.767   0.808 -0.8348  0.9916 -1.6772
 4740TIP3   OH235634   5.588   4.699  14.323  0.0197 -0.1487 -0.9649
 4740TIP3    H135635   5.524   4.637  14.288 -0.0803 -0.9562  0.6031
 4740TIP3    H235636   5.559   4.785  14.292 -1.3880 -0.5915 -0.8851
 4741TIP3   OH235637   2.347   4.469  13.538 -0.3348 -0.0502  0.1863
 4741TIP3    H135638   2.353   4.542  13.477  0.0354  1.2500  1.7527
 4741TIP3    H235639   2.257   4.470  13.570 -0.1137  0.2132  0.8059
 4742TIP3   OH235640   6.782   0.804  13.772 -0.5003 -0.9180  0.7200
 4742TIP3    H135641   6.788   0.886  13.721 -1.2710 -0.7481  0.8891
 4742TIP3    H235642   6.872   0.785  13.798 -0.2078 -0.5571 -0.0135
 4743TIP3   OH235643   2.135   2.615  10.877 -0.1882 -0.3107  0.3702
 4743TIP3    H135644   2.122   2.541  10.819  0.4199 -0.5384  0.5134
 4743TIP3    H235645   2.129   2.692  10.821  0.3730 -0.5294  0.0141
 4744TIP3   OH235646   2.761   5.433   6.491  0.1756  0.0667  0.1108
 4744TIP3    H135647   2.701   5.503   6.464  1.5213  1.5288  0.8260
 4744TIP3    H235648   2.849   5.467   6.471  1.0038 -0.3353  2.8390
 4745TIP3   OH235649   3.440   0.535   4.584 -0.1912 -0.4322  0.1638
 4745TIP3    H135650   3.487   0.548   4.667  1.2823 -0.2950 -0.6668
 4745TIP3    H235651   3.396   0.618   4.568  1.7339  0.4959 -0.5258
 4746TIP3   OH235652   4.547   4.314  12.965 -0.2637 -0.6186 -0.1598
 4746TIP3    H135653   4.613   4.292  13.031 -0.8772 -1.7590  0.0762
 4746TIP3    H235654   4.511   4.230  12.937 -2.4830  0.0259  0.6063
 4747TIP3   OH235655   2.072   0.574  14.450  0.0822 -0.0297 -0.3954
 4747TIP3    H135656   2.141   0.586  14.385  0.2482 -2.5729 -0.7629
 4747TIP3    H235657   2.013   0.511  14.409 -2.5718  2.2113 -0.1531
 4748TIP3   OH235658   1.634   4.319  16.641  0.5345 -0.1551 -0.1015
 4748TIP3    H135659   1.574   4.358  16.704  1.2313  1.7125 -0.5675
 4748TIP3    H235660   1.588   4.242  16.609 -1.6476  1.2787 -0.5109
 4749TIP3   OH235661   6.335   3.972  14.459 -0.4331  0.7317  0.1251
 4749TIP3    H135662   6.376   3.994  14.376 -0.7998  1.6190  0.1789
 4749TIP3    H235663   6.407   3.942  14.515 -0.0850  0.8308 -0.2746
 4750TIP3   OH235664   1.056   2.518   3.601 -0.3088 -0.4932 -0.2593
 4750TIP3    H135665   1.043   2.544   3.510 -0.4677  0.2947 -0.0160
 4750TIP3    H235666   0.978   2.467   3.623 -0.7097  0.1022 -0.2866
 4751TIP3   OH235667   6.495   3.457  14.056  0.1000 -0.2078  0.4627
 4751TIP3    H135668   6.421   3.495  14.104 -0.2848 -1.4037  0.8403
 4751TIP3    H235669   6.565   3.452  14.121  0.7473  1.5741 -0.0772
 4752TIP3   OH235670   4.384   1.187  17.238  0.3077 -0.0446  0.3646
 4752TIP3    H135671   4.474   1.167  17.214  0.0503 -0.6804 -0.1187
 4752TIP3    H235672   4.351   1.239  17.164  0.5055  0.8324  0.8965
 4753TIP3   OH235673   1.632   5.332  11.176 -0.1690 -0.4244  0.1722
 4753TIP3    H135674   1.543   5.306  11.200 -2.0928  4.0958 -1.5225
 4753TIP3    H235675   1.638   5.313  11.082 -0.5445  2.2732 -0.4257
 4754TIP3   OH235676   4.875   1.897  11.784  0.4806  0.4100  0.0707
 4754TIP3    H135677   4.915   1.811  11.797 -0.0845  0.4530  2.2951
 4754TIP3    H235678   4.840   1.894  11.695  2.7279 -0.7044 -0.8351
 4755TIP3   OH235679   4.171   0.732  15.948 -0.0087 -0.5545 -0.4577
 4755TIP3    H135680   4.234   0.706  15.881 -0.2318 -1.2962 -0.3892
 4755TIP3    H235681   4.148   0.650  15.992 -0.1283 -0.1269  0.2929
 4756TIP3   OH235682   6.563   2.870  16.755  0.2584 -0.2247 -0.0307
 4756TIP3    H135683   6.502   2.801  16.782  0.8396 -0.4295  0.7940
 4756TIP3    H235684   6.561   2.868  16.660 -0.5072 -0.6926 -0.0128
 4757TIP3   OH235685   3.127   1.089  11.498 -0.3146  0.0487 -0.4067
 4757TIP3    H135686   3.191   1.160  11.493 -0.3782  0.1928  0.8675
 4757TIP3    H235687   3.049   1.123  11.453 -1.6963  2.2329  3.4607
 4758TIP3   OH235688   6.162   2.474   3.016 -0.3243  0.2862 -0.7561
 4758TIP3    H135689   6.198   2.507   2.934  0.8075 -0.3974 -0.5377
 4758TIP3    H235690   6.239   2.451   3.069 -1.0051  1.5535  0.8388
 4759TIP3   OH235691   1.059   1.312   6.563  0.3692 -0.0771 -0.0826
 4759TIP3    H135692   1.010   1.394   6.573  1.3680  0.5799 -0.4571
 4759TIP3    H235693   1.132   1.321   6.625  0.0778 -1.0057  0.4102
 4760TIP3   OH235694   3.710   2.555   0.638 -0.2010 -0.0708 -0.0770
 4760TIP3    H135695   3.774   2.490   0.608  1.8488  0.9961  1.8172
 4760TIP3    H235696   3.674   2.517   0.719  1.2262  1.2550  1.1996
 4761TIP3   OH235697   3.073   0.341   0.095 -0.2978 -0.1663  0.0460
 4761TIP3    H135698   2.981   0.331   0.119 -0.3751  0.5869  0.0721
 4761TIP3    H235699   3.120   0.284   0.156 -0.6891 -0.0128  0.4926
 4762TIP3   OH235700   0.145   1.586  14.297  0.7214  0.5671 -0.1324
 4762TIP3    H135701   0.120   1.675  14.275 -1.1318  0.0685 -0.0807
 4762TIP3    H235702   0.096   1.531  14.235 -0.3329 -0.5611  1.6651
 4763TIP3   OH235703   3.821   1.854   1.767 -0.2823 -0.0402  0.0330
 4763TIP3    H135704   3.752   1.887   1.825 -0.5742  2.8214 -1.8249
 4763TIP3    H235705   3.886   1.924   1.764 -0.1209 -0.2470 -2.8004
 4764TIP3   OH235706   0.931   0.747  16.327 -0.3384 -0.3340 -0.2715
 4764TIP3    H135707   0.846   0.789  16.344  0.3537  0.9190  0.1412
 4764TIP3    H235708   0.957   0.781  16.241 -0.0130 -0.2909 -0.1589
 4765TIP3   OH235709   6.184   5.626  11.866 -0.2391  0.0286 -0.5283
 4765TIP3    H135710   6.230   5.605  11.784  0.1743  1.2293 -0.6024
 4765TIP3    H235711   6.109   5.678  11.838  0.6815  1.6612 -0.0353
 4766TIP3   OH235712   2.499   5.422   0.099 -0.1979  0.0533 -0.6364
 4766TIP3    H135713   2.540   5.453   0.180 -0.8343 -1.3340  0.2221
 4766TIP3    H235714   2.541   5.338   0.081 -2.4789 -1.3105  0.1583
 4767TIP3   OH235715   0.990   0.598   3.366  0.2500  0.5506  0.0536
 4767TIP3    H135716   0.947   0.570   3.447 -1.9980  1.4939 -0.7699
 4767TIP3    H235717   1.070   0.547   3.363  0.6852  0.9341  3.1879
 4768TIP3   OH235718   1.233   6.617  14.769 -0.2009 -0.0018 -0.7539
 4768TIP3    H135719   1.149   6.645  14.733 -0.8846  1.2842  1.7367
 4768TIP3    H235720   1.298   6.674  14.727 -0.9035  0.9793 -0.5314
 4769TIP3   OH235721   2.000   1.130   5.429 -0.0230 -0.0530  0.2294
 4769TIP3    H135722   2.004   1.046   5.383 -1.4443 -0.1346  0.2453
 4769TIP3    H235723   1.914   1.130   5.472  1.1648  0.1047  2.7377
 4770TIP3   OH235724   3.156   0.704   4.291  0.2575 -0.2871 -0.8167
 4770TIP3    H135725   3.146   0.748   4.207 -1.9468  0.4008 -0.2484
 4770TIP3    H235726   3.072   0.718   4.335  1.3662 -0.6243  1.5008
 4771TIP3   OH235727   5.087   0.224   5.361 -0.2064 -0.3312  0.7557
 4771TIP3    H135728   5.151   0.236   5.431  1.4077 -1.0808 -0.5526
 4771TIP3    H235729   5.030   0.154   5.392  1.4531 -1.7418  0.6918
 4772TIP3   OH235730   4.275   5.087   4.495  0.2727 -0.1815 -0.2169
 4772TIP3    H135731   4.238   5.154   4.553 -0.7414 -1.0612  0.1784
 4772TIP3    H235732   4.352   5.128   4.456 -0.2417  1.1500  0.1501
 4773TIP3   OH235733   4.903   6.753  16.687 -0.0546 -0.1875 -0.1912
 4773TIP3    H135734   4.908   6.743  16.782  0.7894 -2.0945 -0.4140
 4773TIP3    H235735   4.811   6.774  16.670 -0.2247  0.0990  1.0264
 4774TIP3   OH235736   4.310   0.981  15.934  0.0455 -0.4900 -0.6814
 4774TIP3    H135737   4.281   0.894  15.908  0.5416 -0.4776 -1.2690
 4774TIP3    H235738   4.231   1.023  15.970 -0.1431 -1.2558 -0.1829
 4775TIP3   OH235739   4.069   4.943   3.734  0.3403  0.5164  0.3248
 4775TIP3    H135740   4.130   4.935   3.660  0.2998  0.7655  0.2677
 4775TIP3    H235741   4.122   4.980   3.805  0.8048 -1.1841  0.9169
 4776TIP3   OH235742   0.845   1.898  11.773 -0.3923 -0.0720 -0.1811
 4776TIP3    H135743   0.785   1.954  11.822 -0.6189 -1.2822  0.9735
 4776TIP3    H235744   0.881   1.839  11.839 -0.8851 -1.8823 -1.4877
 4777TIP3   OH235745   4.442   0.811   1.771  0.2611  0.0827 -0.3409
 4777TIP3    H135746   4.419   0.773   1.856 -1.2107 -0.3121 -0.8961
 4777TIP3    H235747   4.444   0.736   1.712  1.4830  0.3294 -0.6162
 4778TIP3   OH235748   0.743   5.938  13.635 -0.3026 -0.0974  0.0260
 4778TIP3    H135749   0.759   5.859  13.584  2.3719  0.9054 -0.7428
 4778TIP3    H235750   0.778   5.918  13.722  1.8917  0.7692 -0.6201
 4779TIP3   OH235751   2.571   3.294  12.019  0.3608 -0.0783 -0.4603
 4779TIP3    H135752   2.585   3.374  11.968  0.6766 -0.2711 -0.6712
 4779TIP3    H235753   2.627   3.229  11.979  1.1512 -0.0443  0.5699
 4780TIP3   OH235754   1.959   1.320   4.376 -0.0422  0.2608 -0.2940
 4780TIP3    H135755   1.900   1.394   4.361 -0.0396  0.5946  1.2240
 4780TIP3    H235756   2.004   1.341   4.458 -0.1806 -1.5040  0.2695
 4781TIP3   OH235757   0.495   2.349  15.524 -0.0199 -0.0609  0.5459
 4781TIP3    H135758   0.570   2.404  15.501  1.2644 -0.6835  3.0344
 4781TIP3    H235759   0.495   2.280  15.458  0.4841  0.9479 -0.5321
 4782TIP3   OH235760   6.086   0.570  12.307  0.0862  0.3998  0.3268
 4782TIP3    H135761   6.078   0.664  12.289 -2.2547  0.2799  0.5732
 4782TIP3    H235762   6.049   0.559  12.395 -1.6490 -1.0537 -0.5580
 4783TIP3   OH235763   4.714   6.062  11.027  0.2505 -0.2195  0.3561
 4783TIP3    H135764   4.755   5.977  11.041  0.0759 -0.3529  0.0545
 4783TIP3    H235765   4.718   6.077  10.933 -1.0843 -0.5938  0.2200
 4784TIP3   OH235766   5.667   4.437  11.041 -0.0186 -0.1157  0.3552
 4784TIP3    H135767   5.733   4.392  10.988  1.0993  0.0982  1.5535
 4784TIP3    H235768   5.629   4.369  11.096 -0.5160 -0.1630 -0.0434
 4785TIP3   OH235769   0.093   6.170   5.472  0.1788  0.1976 -0.2783
 4785TIP3    H135770   0.035   6.198   5.401 -0.3951 -0.9731 -0.2997
 4785TIP3    H235771   0.129   6.086   5.442  2.2249  1.1169 -0.4402
 4786TIP3   OH235772   3.916   2.914   0.148  0.2628  0.8089  0.5888
 4786TIP3    H135773   3.833   2.947   0.113 -0.0112 -1.5178 -1.0698
 4786TIP3    H235774   3.892   2.871   0.230  0.0029  1.0542  0.6433
 4787TIP3   OH235775   1.033   2.437  10.793 -0.3635 -0.1791  0.7776
 4787TIP3    H135776   1.040   2.486  10.875 -0.8485  1.8355 -0.3557
 4787TIP3    H235777   0.955   2.383  10.804 -0.2411 -0.1699  1.7621
 4788TIP3   OH235778   0.440   3.385   4.930 -0.5651 -0.3011 -0.5792
 4788TIP3    H135779   0.467   3.459   4.875 -1.2545 -0.2370 -0.8344
 4788TIP3    H235780   0.347   3.374   4.910 -0.5413 -1.0111 -0.2737
 4789TIP3   OH235781   3.555   4.193  14.833 -0.1366 -0.5757 -0.1944
 4789TIP3    H135782   3.462   4.211  14.843  0.0227  0.2537 -0.2145
 4789TIP3    H235783   3.584   4.252  14.764  0.7662  0.4043  0.9964
 4790TIP3   OH235784   1.738   2.592   5.368 -0.5106  0.5116  0.1409
 4790TIP3    H135785   1.713   2.501   5.354  0.2101  0.6202 -2.0392
 4790TIP3    H235786   1.698   2.640   5.296 -1.0252  1.9536  1.3713
 4791TIP3   OH235787   0.532   4.923  15.199  0.7624  0.4890  0.6013
 4791TIP3    H135788   0.505   4.990  15.262 -2.8347 -0.4292  0.1697
 4791TIP3    H235789   0.485   4.845  15.226  1.9121 -0.8533 -1.1700
 4792TIP3   OH235790   4.609   1.672   4.068 -0.6616 -0.4968 -0.0186
 4792TIP3    H135791   4.687   1.693   4.119  0.5201 -0.2954 -1.8590
 4792TIP3    H235792   4.555   1.752   4.072  0.8510  0.6324 -1.6468
 4793TIP3   OH235793   4.372   0.521   0.631 -0.2419 -0.6701  0.1704
 4793TIP3    H135794   4.277   0.510   0.625 -0.0972 -2.3975  0.5156
 4793TIP3    H235795   4.389   0.609   0.600 -2.0252 -0.1434  0.6320
 4794TIP3   OH235796   5.414   5.942   0.428  0.1662 -0.0429  0.0846
 4794TIP3    H135797   5.435   5.979   0.514 -2.2030  1.1688  0.1997
 4794TIP3    H235798   5.318   5.937   0.427  0.2440 -1.9896 -1.7057
 4795TIP3   OH235799   5.060   6.034   4.235 -0.2312 -0.0806  0.4383
 4795TIP3    H135800   5.063   6.088   4.314 -2.8146  1.1529 -0.2640
 4795TIP3    H235801   5.026   5.949   4.266  1.7379 -0.6480  1.1500
 4796TIP3   OH235802   5.267   4.819  12.066  0.1414  0.2250  0.7786
 4796TIP3    H135803   5.231   4.744  12.019 -0.6883  2.3194 -2.0145
 4796TIP3    H235804   5.358   4.795  12.084  0.2242 -0.9902 -1.1495
 4797TIP3   OH235805   5.630   1.418  12.153  0.1075 -0.0200 -0.2266
 4797TIP3    H135806   5.584   1.499  12.131  0.2410 -0.5794 -2.7512
 4797TIP3    H235807   5.566   1.366  12.201 -0.4997  0.9416  0.0164
 4798TIP3   OH235808   5.914   2.840  13.525 -0.4112 -0.1533  0.5635
 4798TIP3    H135809   5.853   2.912  13.536  0.9585  0.8330  1.8893
 4798TIP3    H235810   5.920   2.827  13.430 -1.9376  0.3431  0.3899
 4799TIP3   OH235811   3.869   3.880   4.031  0.2111 -0.1823  0.3866
 4799TIP3    H135812   3.812   3.909   3.959 -0.7133 -0.5352  0.9713
 4799TIP3    H235813   3.923   3.811   3.993 -0.7329 -0.8219  0.2039
 4800TIP3   OH235814   2.619   4.423  11.425 -0.4250  0.3465 -0.0794
 4800TIP3    H135815   2.577   4.474  11.494 -0.3732  2.9465 -1.9158
 4800TIP3    H235816   2.646   4.487  11.360  0.3631 -1.9512 -2.1089
 4801TIP3   OH235817   0.588   4.712   3.867 -0.4232  0.3633 -0.0369
 4801TIP3    H135818   0.652   4.739   3.932  0.4743 -2.0752  0.1194
 4801TIP3    H235819   0.633   4.721   3.783 -0.2590 -0.2646 -0.0155
 4802TIP3   OH235820   4.564   3.100   1.744 -0.1170 -0.6697  0.4545
 4802TIP3    H135821   4.655   3.115   1.771 -0.1141  1.2762 -0.4868
 4802TIP3    H235822   4.520   3.183   1.763 -1.1206 -0.7796 -1.3001
 4803TIP3   OH235823   1.661   3.574  15.772  0.0879  0.4406 -0.0703
 4803TIP3    H135824   1.720   3.510  15.733 -1.7189  0.1990 -2.5658
 4803TIP3    H235825   1.716   3.649  15.792  1.5635 -0.4763 -0.6432
 4804TIP3   OH235826   4.501   6.237   4.133  0.3788  0.6948  0.5210
 4804TIP3    H135827   4.498   6.148   4.097 -1.3437  1.2736 -0.8299
 4804TIP3    H235828   4.478   6.226   4.226 -1.0626 -0.1548  0.0877
 4805TIP3   OH235829   5.661   3.453   5.513  0.0306 -0.0088 -0.0176
 4805TIP3    H135830   5.580   3.422   5.471 -1.0343  0.5785  1.5411
 4805TIP3    H235831   5.672   3.542   5.480  0.2624 -0.2230 -0.5280
 4806TIP3   OH235832   2.734   3.737  15.949  0.0381 -0.2275  0.1188
 4806TIP3    H135833   2.704   3.786  15.872 -0.1648  0.0600  0.3805
 4806TIP3    H235834   2.736   3.802  16.019  1.1552 -0.2663  0.1359
 4807TIP3   OH235835   6.272   4.783   6.048  0.0241  0.6577  0.3980
 4807TIP3    H135836   6.365   4.765   6.061  0.1636  1.5314  0.6597
 4807TIP3    H235837   6.244   4.824   6.130 -0.4552  0.9264  0.1054
 4808TIP3   OH235838   4.130   2.912  12.166 -0.4456  0.0479  0.2907
 4808TIP3    H135839   4.118   2.933  12.073  0.0176  0.4773  0.3248
 4808TIP3    H235840   4.053   2.861  12.190  0.4701 -1.9969 -0.9162
 4809TIP3   OH235841   0.920   6.145   2.674 -0.2783  0.2320 -0.2941
 4809TIP3    H135842   0.912   6.050   2.666 -0.1740  0.2877 -1.1118
 4809TIP3    H235843   1.010   6.163   2.650 -0.1511  0.4848  0.3798
 4810TIP3   OH235844   5.720   1.278   2.705  0.1399  0.3874 -0.2063
 4810TIP3    H135845   5.665   1.291   2.627  1.5067  2.6145 -0.8193
 4810TIP3    H235846   5.702   1.354   2.760  1.1326  0.1286  0.4803
 4811TIP3   OH235847   0.373   3.072   3.073 -0.3138 -0.3156  0.6660
 4811TIP3    H135848   0.466   3.053   3.059 -0.2870 -1.3857  2.1012
 4811TIP3    H235849   0.328   3.025   3.004  0.3112  1.6907 -1.1457
 4812TIP3   OH235850   2.923   4.877  16.154 -0.2019  0.1059 -0.2487
 4812TIP3    H135851   2.920   4.791  16.195 -1.1192 -0.2769 -1.0979
 4812TIP3    H235852   2.873   4.867  16.073  2.6587  0.5151 -2.1354
 4813TIP3   OH235853   2.250   0.044   5.428 -0.6374 -0.0187 -0.1323
 4813TIP3    H135854   2.271   0.138   5.424 -1.7631  0.2666  0.4837
 4813TIP3    H235855   2.186   0.037   5.499 -1.3371 -1.1044 -0.8632
 4814TIP3   OH235856   3.767   2.858   2.288 -0.3390  0.1877  0.4049
 4814TIP3    H135857   3.827   2.930   2.304  0.0111  0.4111 -1.7727
 4814TIP3    H235858   3.686   2.885   2.332  0.1941  1.2639  0.7616
 4815TIP3   OH235859   1.282   6.721   1.530 -0.1204  0.2009 -0.1062
 4815TIP3    H135860   1.291   6.688   1.620  0.1203 -0.6734 -0.4403
 4815TIP3    H235861   1.225   6.658   1.487 -0.7299  0.9520 -0.4039
 4816TIP3   OH235862   3.107   4.498  11.433 -0.3706 -0.8005  0.3339
 4816TIP3    H135863   3.180   4.516  11.491 -0.0144  1.4258 -0.7340
 4816TIP3    H235864   3.056   4.579  11.432 -2.2553 -1.9420  0.2008
 4817TIP3   OH235865   4.909   3.457   2.170  0.0403  0.1061 -0.1588
 4817TIP3    H135866   4.868   3.378   2.206 -2.7882  1.9616  0.8409
 4817TIP3    H235867   4.989   3.468   2.222 -1.0033 -0.5258  1.6188
 4818TIP3   OH235868   4.094   4.680   0.274 -0.4519 -0.0381 -0.1775
 4818TIP3    H135869   4.003   4.679   0.306  0.5187 -0.2592  2.7413
 4818TIP3    H235870   4.117   4.773   0.270 -0.2831 -0.0377  0.7068
 4819TIP3   OH235871   2.907   5.127   3.884  0.3972  0.3313  0.4482
 4819TIP3    H135872   2.973   5.087   3.827 -0.0545 -0.3992  0.4268
 4819TIP3    H235873   2.902   5.069   3.960 -0.5779  0.1078  0.2205
 4820TIP3   OH235874   6.443   6.390  14.798  0.0324  0.2411  0.2331
 4820TIP3    H135875   6.443   6.434  14.713 -1.1999  0.2279  0.2265
 4820TIP3    H235876   6.467   6.300  14.778  0.6055  0.4382  0.0094
 4821TIP3   OH235877   3.387   2.608  13.755 -0.0853 -0.5704 -0.2410
 4821TIP3    H135878   3.403   2.701  13.774 -1.7694 -0.6172  1.6023
 4821TIP3    H235879   3.293   2.597  13.767  0.2298 -2.7384  0.4991
 4822TIP3   OH235880   6.350   6.281  12.626 -0.0724  0.2135 -0.6699
 4822TIP3    H135881   6.297   6.361  12.630 -1.2111 -0.5654  0.2175
 4822TIP3    H235882   6.288   6.211  12.645  1.1877 -0.7623 -0.1397
 4823TIP3   OH235883   0.345   4.876   2.504 -0.4853 -0.1192 -0.2335
 4823TIP3    H135884   0.326   4.807   2.441  3.7933 -0.7667 -0.9456
 4823TIP3    H235885   0.311   4.956   2.463 -1.6511 -1.1691 -1.3412
 4824TIP3   OH235886   3.645   5.661  12.315 -0.0225 -0.2814  0.3162
 4824TIP3    H135887   3.684   5.596  12.374  1.0053 -0.4130 -0.4949
 4824TIP3    H235888   3.555   5.669  12.346  0.4560 -0.4400  1.8348
 4825TIP3   OH235889   4.458   5.900  10.820  0.4828 -0.0744  0.0728
 4825TIP3    H135890   4.544   5.931  10.791  0.4252 -1.1877 -1.3733
 4825TIP3    H235891   4.435   5.831  10.758 -1.7254  0.5912  0.0797
 4826TIP3   OH235892   2.270   3.482  12.572 -1.1123 -0.3593  0.5700
 4826TIP3    H135893   2.214   3.534  12.514 -2.6115 -1.0919  1.3361
 4826TIP3    H235894   2.320   3.425  12.513 -0.3171  1.0964 -0.1969
 4827TIP3   OH235895   1.729   6.574  13.053  0.1852  0.4625 -0.0790
 4827TIP3    H135896   1.694   6.503  12.999  0.3083  0.1000  0.3136
 4827TIP3    H235897   1.820   6.585  13.024 -0.1867  1.2754 -0.9695
 4828TIP3   OH235898   4.751   3.973  12.863 -0.0475 -0.1556  0.0402
 4828TIP3    H135899   4.821   3.947  12.802  1.1946  2.6299  0.2018
 4828TIP3    H235900   4.671   3.968  12.810  0.9976  2.1527 -1.8706
 4829TIP3   OH235901   0.106   3.314  16.664 -0.9230 -0.3800 -0.2571
 4829TIP3    H135902   0.196   3.342  16.679 -0.7651 -1.1277  0.2076
 4829TIP3    H235903   0.112   3.251  16.592 -0.8753 -1.5689  0.7730
 4830TIP3   OH235904   5.553   0.550   5.938 -0.4252 -0.2162 -0.0231
 4830TIP3    H135905   5.519   0.508   6.017 -0.4260 -1.7306 -0.8064
 4830TIP3    H235906   5.492   0.523   5.869 -1.2275  2.2163 -0.3231
 4831TIP3   OH235907   2.982   3.659  15.819  0.3521  0.2204  0.4692
 4831TIP3    H135908   2.950   3.600  15.751  2.0396  2.6410 -2.6109
 4831TIP3    H235909   2.912   3.724  15.830 -0.0803 -0.3885  1.3463
 4832TIP3   OH235910   1.774   3.109  11.833 -0.5169  0.0121  0.0850
 4832TIP3    H135911   1.822   3.132  11.914 -2.3111 -0.1926  1.2265
 4832TIP3    H235912   1.807   3.022  11.811  1.3133  0.8077 -0.4363
 4833TIP3   OH235913   1.354   2.701   0.818  0.0082  0.1654  0.4753
 4833TIP3    H135914   1.382   2.617   0.783  1.9079  0.8938  0.1587
 4833TIP3    H235915   1.307   2.743   0.747  1.8233  0.6677 -0.4689
 4834TIP3   OH235916   3.040   6.462  11.949  0.5409 -0.3385 -0.2201
 4834TIP3    H135917   3.019   6.378  11.907 -1.3273 -0.2670  0.5282
 4834TIP3    H235918   3.129   6.450  11.982 -0.1209 -2.4627  0.8998
 4835TIP3   OH235919   2.058   0.524  13.291  0.0849 -0.4542  0.2214
 4835TIP3    H135920   1.987   0.522  13.227  1.3513 -0.1004 -1.1928
 4835TIP3    H235921   2.095   0.437  13.289 -0.6588 -0.8190  1.3940
 4836TIP3   OH235922   6.014   5.322   5.103  0.0713  0.5299 -0.4284
 4836TIP3    H135923   6.026   5.323   5.198 -3.0840  0.6708  0.0232
 4836TIP3    H235924   6.084   5.266   5.071 -0.5393 -1.9419  2.2856
 4837TIP3   OH235925   4.613   1.670   1.805 -0.1091  0.3880  0.1487
 4837TIP3    H135926   4.563   1.750   1.789 -1.5631 -0.7547 -1.2971
 4837TIP3    H235927   4.681   1.670   1.737  1.0036  1.2679  1.2593
 4838TIP3   OH235928   0.748   1.045  12.401  0.3066 -0.1807 -0.1042
 4838TIP3    H135929   0.675   0.983  12.393  1.8645 -2.1065  0.2084
 4838TIP3    H235930   0.714   1.114  12.459 -1.8048 -0.1652 -1.2968
 4839TIP3   OH235931   0.949   6.646   1.854  0.0122  0.1959 -0.5645
 4839TIP3    H135932   0.907   6.732   1.850  0.5794  0.5588  0.8458
 4839TIP3    H235933   0.909   6.604   1.930  1.2030  0.0275 -0.0104
 4840TIP3   OH235934   3.191   1.629  14.078 -0.0764 -0.0708 -0.6889
 4840TIP3    H135935   3.203   1.535  14.068  1.6425  0.2545 -1.8063
 4840TIP3    H235936   3.203   1.665  13.990  0.8987  1.3597  0.0019
 4841TIP3   OH235937   3.090   2.116  17.051 -0.1556  0.4574  0.8677
 4841TIP3    H135938   3.165   2.061  17.075  0.5511  0.1288 -1.8922
 4841TIP3    H235939   3.130   2.199  17.024 -0.5338 -0.5180 -2.9170
 4842TIP3   OH235940   1.929   5.937  10.726 -0.2531  0.2510 -0.3287
 4842TIP3    H135941   1.834   5.931  10.731  0.0105 -3.4295  1.6774
 4842TIP3    H235942   1.952   6.004  10.791 -1.2588 -1.4485  1.8435
 4843TIP3   OH235943   0.692   5.458   5.913  0.4392  0.8735 -0.6319
 4843TIP3    H135944   0.775   5.423   5.880  0.4224  1.8811 -1.7893
 4843TIP3    H235945   0.711   5.485   6.002  1.0154 -0.0859 -0.4584
 4844TIP3   OH235946   0.873   5.020  15.460  0.0097 -0.0074  0.1708
 4844TIP3    H135947   0.851   5.054  15.374 -0.3603  0.9214  0.6230
 4844TIP3    H235948   0.878   4.925  15.448 -1.8370 -0.0419 -0.4757
 4845TIP3   OH235949   2.141   5.639  12.189  0.4146  0.3837 -0.5281
 4845TIP3    H135950   2.138   5.698  12.263 -1.5188 -1.1914  0.6872
 4845TIP3    H235951   2.065   5.582  12.199  0.8377 -0.7244 -2.9930
 4846TIP3   OH235952   4.340   6.688  11.941  0.5748  0.1018  0.2974
 4846TIP3    H135953   4.302   6.695  12.029  0.4189 -0.3842  0.2698
 4846TIP3    H235954   4.295   6.614  11.901 -0.9063  1.6543 -0.9757
 4847TIP3   OH235955   0.653   5.501  16.795 -0.2183  0.8333  0.1930
 4847TIP3    H135956   0.686   5.452  16.720 -1.8253 -1.0640  0.6715
 4847TIP3    H235957   0.622   5.583  16.758 -2.5678 -0.7552 -1.5429
 4848TIP3   OH235958   2.463   6.152  14.283  0.4136 -0.1637 -0.2434
 4848TIP3    H135959   2.412   6.232  14.278 -0.6980 -0.8724 -0.3907
 4848TIP3    H235960   2.479   6.139  14.377  1.6810  0.8980 -0.3036
 4849TIP3   OH235961   5.640   2.298   3.205 -0.3172  0.1246  0.4231
 4849TIP3    H135962   5.686   2.221   3.173  0.0988  0.0916  1.0970
 4849TIP3    H235963   5.605   2.272   3.290 -2.3379 -0.1428 -0.4431
 4850TIP3   OH235964   3.582   4.757  13.219 -0.8033 -0.0064  0.1852
 4850TIP3    H135965   3.576   4.836  13.273 -0.6924  0.7386 -0.8723
 4850TIP3    H235966   3.612   4.689  13.279  2.2325  1.4596  0.4309
 4851TIP3   OH235967   0.155   6.104   4.857  0.1925 -0.5634  0.0678
 4851TIP3    H135968   0.074   6.054   4.862 -0.3095  0.2289  0.0647
 4851TIP3    H235969   0.126   6.196   4.860  0.9575 -0.2417 -1.6866
 4852TIP3   OH235970   5.659   0.413  13.510 -0.1862  0.9288 -0.0153
 4852TIP3    H135971   5.697   0.500  13.504  0.6627  0.4655 -1.8311
 4852TIP3    H235972   5.569   0.424  13.478  0.0375  1.0719 -0.6046
 4853TIP3   OH235973   2.731   4.962   3.173 -0.0066  0.5608  0.5801
 4853TIP3    H135974   2.710   5.015   3.250 -2.5743  1.1683 -0.4943
 4853TIP3    H235975   2.663   4.894   3.173 -0.6417  1.1750 -1.6875
 4854TIP3   OH235976   4.004   2.349   4.881 -0.1401 -0.1551 -0.0023
 4854TIP3    H135977   3.918   2.356   4.924  0.1119 -1.9140  0.8397
 4854TIP3    H235978   3.992   2.393   4.797 -2.0008 -0.7146 -0.0692
 4855TIP3   OH235979   6.690   2.246   0.347  0.2375  0.1391  0.3773
 4855TIP3    H135980   6.595   2.240   0.334 -0.3185  1.8305  3.2807
 4855TIP3    H235981   6.713   2.163   0.387  0.2966 -0.9436 -1.8175
 4856TIP3   OH235982   5.832   5.698   4.067 -0.5613  0.6806  0.0036
 4856TIP3    H135983   5.751   5.673   4.022  1.3361 -0.5570 -2.9390
 4856TIP3    H235984   5.849   5.788   4.039 -0.2878  0.5118 -0.3784
 4857TIP3   OH235985   3.273   0.450  14.610 -0.5193 -0.2176  0.1103
 4857TIP3    H135986   3.310   0.526  14.655 -1.1804 -0.5098  1.1551
 4857TIP3    H235987   3.206   0.488  14.553  1.4925  0.3353 -1.9673
 4858TIP3   OH235988   2.134   6.302   1.974 -0.2465  0.1133 -0.0694
 4858TIP3    H135989   2.190   6.293   2.052 -2.3858 -0.2568  1.4726
 4858TIP3    H235990   2.161   6.385   1.935  0.3791  0.6678  1.4724
 4859TIP3   OH235991   1.893   0.637  15.300  0.0243 -0.1948 -0.7665
 4859TIP3    H135992   1.850   0.637  15.215 -0.3049  0.2981 -0.6105
 4859TIP3    H235993   1.985   0.652  15.281 -0.0077 -0.3810 -1.0575
 4860TIP3   OH235994   2.898   3.452   1.125  0.1126 -0.6550 -0.2341
 4860TIP3    H135995   2.963   3.384   1.106  1.5766  0.6414 -0.0157
 4860TIP3    H235996   2.887   3.447   1.220  1.4067  0.4319 -0.0120
 4861TIP3   OH235997   2.276   4.367  10.962 -0.8543 -0.1117  0.0759
 4861TIP3    H135998   2.274   4.272  10.963  1.3521 -0.1559  1.6636
 4861TIP3    H235999   2.334   4.390  10.889  2.1365 -0.0975  2.3779
 4862TIP3   OH236000   0.915   4.559   2.948 -0.3240  0.0784  0.3670
 4862TIP3    H136001   0.930   4.548   3.042 -2.4050 -2.9107  0.3990
 4862TIP3    H236002   0.983   4.507   2.906 -0.7225 -0.3521  0.2534
 4863TIP3   OH236003   4.176   3.901  13.267  0.1537  0.3570  0.8032
 4863TIP3    H136004   4.128   3.867  13.191 -0.0126  1.4630  0.4074
 4863TIP3    H236005   4.191   3.824  13.322 -0.5780 -0.2858  0.1172
 4864TIP3   OH236006   3.519   4.828  12.299  0.1858 -0.2183  0.1371
 4864TIP3    H136007   3.549   4.747  12.259  3.3767  1.6498 -1.4393
 4864TIP3    H236008   3.480   4.878  12.228  2.9151  1.7312 -0.0923
 4865TIP3   OH236009   1.590   5.496   5.276 -0.0688 -0.2414  0.0553
 4865TIP3    H136010   1.569   5.584   5.247 -0.7479 -0.4475 -0.0841
 4865TIP3    H236011   1.540   5.485   5.357  1.0791 -0.0065  0.8040
 4866TIP3   OH236012   1.416   5.241   5.163  0.4590 -0.2220 -0.0603
 4866TIP3    H136013   1.320   5.245   5.161  0.4490  0.4672  1.3050
 4866TIP3    H236014   1.439   5.272   5.250  2.1297  3.4103 -1.7060
 4867TIP3   OH236015   5.688   3.132   2.357  0.1498  0.2993 -0.2710
 4867TIP3    H136016   5.620   3.126   2.424  1.3191  1.7401  1.0742
 4867TIP3    H236017   5.667   3.212   2.309  0.2763  0.1647 -0.5531
 4868TIP3   OH236018   6.061   4.566   2.562  0.1335 -0.4950  0.0262
 4868TIP3    H136019   5.991   4.503   2.573 -0.4981  0.4418  1.5443
 4868TIP3    H236020   6.079   4.598   2.651  0.7649  1.0929 -0.6424
 4869TIP3   OH236021   0.615   0.875   0.930  0.1971 -0.6160 -0.3697
 4869TIP3    H136022   0.633   0.968   0.945 -1.7220 -0.1645 -0.6705
 4869TIP3    H236023   0.589   0.871   0.838  0.5173 -1.4978 -0.4227
 4870TIP3   OH236024   0.068   4.916  11.867  0.4358 -0.1292  0.1893
 4870TIP3    H136025   0.116   4.870  11.799 -0.9019  1.2949 -1.7570
 4870TIP3    H236026   0.046   5.001  11.829  2.0503  1.8358  3.3809
 4871TIP3   OH236027   5.704   1.588  11.821 -0.0191  0.6782  0.6334
 4871TIP3    H136028   5.649   1.524  11.775  0.8606 -0.1411  0.7050
 4871TIP3    H236029   5.668   1.673  11.796 -0.9240  0.1679  0.1820
 4872TIP3   OH236030   5.598   1.563   3.731 -0.0821 -0.1234  0.0778
 4872TIP3    H136031   5.561   1.556   3.643  0.1393 -0.5282  0.0179
 4872TIP3    H236032   5.567   1.648   3.763 -2.5996 -1.2416  0.7346
 4873TIP3   OH236033   3.200   0.158   5.774  0.0696  0.5044  0.0184
 4873TIP3    H136034   3.171   0.248   5.756  0.6202  1.3924  3.2066
 4873TIP3    H236035   3.253   0.166   5.853  1.5027 -2.4273 -0.5971
 4874TIP3   OH236036   1.950   2.147  14.653  0.2002 -0.2276 -0.2963
 4874TIP3    H136037   2.026   2.133  14.710  0.2522  1.4133  0.0621
 4874TIP3    H236038   1.876   2.153  14.713  0.1671  0.8655 -0.4331
 4875TIP3   OH236039   4.245   6.683   1.507  0.5891 -0.4024  0.7028
 4875TIP3    H136040   4.277   6.626   1.576 -0.7043 -3.1360 -0.8673
 4875TIP3    H236041   4.215   6.623   1.438 -0.9593  2.1645 -0.9489
 4876TIP3   OH236042   1.691   0.437   3.409 -0.5173 -0.1939  0.3319
 4876TIP3    H136043   1.648   0.449   3.324 -2.5550 -0.8643  1.2313
 4876TIP3    H236044   1.760   0.503   3.410  0.3142 -0.9698 -2.3306
 4877TIP3   OH236045   2.654   4.205  14.960 -0.1774 -0.1759 -0.5779
 4877TIP3    H136046   2.739   4.213  14.916 -0.2887 -3.2578 -1.4778
 4877TIP3    H236047   2.655   4.116  14.997 -3.0690 -0.3021 -0.7146
 4878TIP3   OH236048   0.746   6.665   4.985 -0.3901 -0.0402 -0.2203
 4878TIP3    H136049   0.737   6.585   4.933 -0.0628  0.9771 -1.8948
 4878TIP3    H236050   0.662   6.674   5.029 -1.4516  0.1541 -2.2080
 4879TIP3   OH236051   3.970   1.083   5.778 -0.2960 -0.0170 -0.1164
 4879TIP3    H136052   3.956   1.094   5.684 -1.5022 -0.2332  0.0377
 4879TIP3    H236053   4.005   0.995   5.787 -2.6488 -0.9884 -0.1281
 4880TIP3   OH236054   1.856   3.138   1.398  0.0467  1.0009 -0.2191
 4880TIP3    H136055   1.948   3.112   1.391  0.2243  0.8351  2.1489
 4880TIP3    H236056   1.809   3.056   1.414 -0.4004  1.1877 -0.5773
 4881TIP3   OH236057   2.772   2.936  13.253 -0.2751 -0.2041 -0.1295
 4881TIP3    H136058   2.743   2.879  13.324  1.5669 -0.6765  0.2702
 4881TIP3    H236059   2.847   2.890  13.214 -0.5379  0.5936 -1.6384
 4882TIP3   OH236060   6.413   4.635   2.032 -0.8758 -0.3426 -0.6446
 4882TIP3    H136061   6.365   4.703   1.985  1.7581  0.6299 -2.0328
 4882TIP3    H236062   6.433   4.675   2.117 -0.7513  0.0322 -0.8478
 4883TIP3   OH236063   1.617   2.319   1.441 -0.2569 -0.3444  0.1440
 4883TIP3    H136064   1.598   2.332   1.349  1.5200  0.6081 -0.1132
 4883TIP3    H236065   1.577   2.235   1.462 -2.1616  0.2447 -1.0368
 4884TIP3   OH236066   1.203   6.062   6.745  0.0938 -0.2800 -0.2339
 4884TIP3    H136067   1.130   6.121   6.728  1.1023  1.0994  0.1179
 4884TIP3    H236068   1.255   6.107   6.811  0.7032 -1.7319  0.3001
 4885TIP3   OH236069   3.559   3.409   4.934 -0.6091  0.7730 -0.3548
 4885TIP3    H136070   3.635   3.358   4.907 -1.0148 -0.0671  0.0833
 4885TIP3    H236071   3.593   3.470   5.000 -0.5739 -0.5637  0.8901
 4886TIP3   OH236072   1.378   4.412   4.622  0.0569  0.1691 -0.1149
 4886TIP3    H136073   1.387   4.505   4.601 -0.3014  0.2150 -0.0763
 4886TIP3    H236074   1.446   4.395   4.687 -0.5677  0.6645  0.6779
 4887TIP3   OH236075   5.256   5.886   5.092  0.2645 -0.1791  0.2757
 4887TIP3    H136076   5.328   5.942   5.062  1.2179 -1.4830  0.0943
 4887TIP3    H236077   5.249   5.818   5.025 -2.6510  1.1679 -0.8967
 4888TIP3   OH236078   0.057   1.559  16.475 -0.0862  0.0750  0.3751
 4888TIP3    H136079   0.005   1.530  16.400 -0.5397  1.0319  0.3137
 4888TIP3    H236080   0.018   1.643  16.500 -0.9054 -0.9269  2.6158
 4889TIP3   OH236081   1.662   5.649  10.697 -1.1475 -0.1121 -0.0273
 4889TIP3    H136082   1.666   5.743  10.712 -0.6116  0.0038 -0.8524
 4889TIP3    H236083   1.753   5.620  10.700 -1.0725 -0.1952 -2.1858
 4890TIP3   OH236084   1.829   0.693   3.345 -0.8792  0.1466 -0.2909
 4890TIP3    H136085   1.782   0.707   3.263  0.7092  1.0989 -1.0497
 4890TIP3    H236086   1.796   0.761   3.404  0.1977  1.4175 -1.1213
 4891TIP3   OH236087   1.824   6.556   3.563 -0.0292 -0.0003  0.3359
 4891TIP3    H136088   1.895   6.612   3.533 -1.2103  1.1566 -0.3405
 4891TIP3    H236089   1.755   6.567   3.498 -0.2641 -2.2951  0.1527
 4892TIP3   OH236090   0.826   4.663  14.334  0.3096 -0.2060  0.2301
 4892TIP3    H136091   0.876   4.603  14.278 -1.2812 -2.7565  1.3928
 4892TIP3    H236092   0.889   4.695  14.398  1.5125  0.5113 -1.2868
 4893TIP3   OH236093   1.226   1.871  11.444  0.3664  0.4966  0.8681
 4893TIP3    H136094   1.232   1.792  11.392  1.1810  1.4422 -0.4887
 4893TIP3    H236095   1.307   1.873  11.496  0.1980  0.2787  1.1405
 4894TIP3   OH236096   4.476   5.606   0.133 -0.6815 -0.0501 -0.0882
 4894TIP3    H136097   4.548   5.626   0.192  0.4035 -1.9612 -0.7210
 4894TIP3    H236098   4.496   5.655   0.053 -0.7648  0.4269  0.1805
 4895TIP3   OH236099   2.092   6.669   0.902 -0.0128  0.1195  0.9164
 4895TIP3    H136100   2.183   6.695   0.888  0.2105 -0.8622  0.4711
 4895TIP3    H236101   2.098   6.577   0.930 -0.9410 -0.4111 -0.5443
 4896TIP3   OH236102   0.092   0.099   1.704 -0.3484  0.0344  0.2164
 4896TIP3    H136103   0.181   0.069   1.685 -1.1750 -1.9178 -0.7153
 4896TIP3    H236104   0.101   0.194   1.716  1.9241 -0.2025  0.6646
 4897TIP3   OH236105   0.975   1.761   2.582 -0.3068  0.1517  0.0681
 4897TIP3    H136106   1.064   1.731   2.600 -1.0913 -1.5332  1.3099
 4897TIP3    H236107   0.933   1.685   2.542 -0.9077  1.2638 -1.4236
 4898TIP3   OH236108   0.583   3.755   3.993  0.2006 -0.4720  0.1533
 4898TIP3    H136109   0.510   3.811   3.966 -1.6640 -2.3615  1.1398
 4898TIP3    H236110   0.564   3.732   4.084  1.4102 -1.9253  0.0667
 4899TIP3   OH236111   2.840   3.461  11.496 -0.3967  0.1488 -0.6370
 4899TIP3    H136112   2.746   3.458  11.514 -0.2915 -1.3753 -0.2013
 4899TIP3    H236113   2.849   3.419  11.410  0.0264 -1.2698  0.0769
 4900TIP3   OH236114   5.576   0.115  12.458  0.3990  0.2288 -0.2794
 4900TIP3    H136115   5.650   0.075  12.412  0.4816 -0.3451  0.3570
 4900TIP3    H236116   5.615   0.164  12.530  0.1048 -0.9120  0.6818
 4901TIP3   OH236117   1.019   0.383   3.843  0.0121 -0.0374  1.0161
 4901TIP3    H136118   1.100   0.341   3.869 -0.2579 -0.0976  1.7811
 4901TIP3    H236119   0.950   0.324   3.873 -0.2989 -0.2562 -0.1221
 4902TIP3   OH236120   5.348   4.027  15.692  0.1593 -0.1257 -0.0719
 4902TIP3    H136121   5.419   3.967  15.670 -1.3321 -1.1322 -2.2887
 4902TIP3    H236122   5.356   4.040  15.787  3.8861  0.5990 -0.4006
 4903TIP3   OH236123   4.305   1.887   4.275  0.2462  0.3753  0.2735
 4903TIP3    H136124   4.350   1.838   4.344  1.6219  2.4476  0.9046
 4903TIP3    H236125   4.345   1.858   4.194  0.4633 -0.1458  0.5644
 4904TIP3   OH236126   5.499   3.188  15.637 -0.8980 -0.0243  0.0274
 4904TIP3    H136127   5.456   3.176  15.721 -1.1015 -0.1311 -0.0915
 4904TIP3    H236128   5.458   3.265  15.599  0.7021  1.3297  0.9695
 4905TIP3   OH236129   5.077   4.409  11.067  0.2908 -0.1183  0.0954
 4905TIP3    H136130   5.019   4.333  11.060 -1.0175  0.6474  2.0455
 4905TIP3    H236131   5.098   4.431  10.977 -0.2609 -2.0678 -0.5530
 4906TIP3   OH236132   5.143   4.080   0.761 -0.1018 -0.1990  0.2348
 4906TIP3    H136133   5.196   4.094   0.683 -1.4413 -0.1944 -0.6872
 4906TIP3    H236134   5.055   4.110   0.737 -0.7899 -1.2425  1.3521
 4907TIP3   OH236135   3.063   5.372   1.599  0.3780  0.1588  0.2365
 4907TIP3    H136136   3.037   5.422   1.521  1.2426 -0.5129 -0.4860
 4907TIP3    H236137   3.099   5.291   1.565  0.6008 -0.2201  1.3512
 4908TIP3   OH236138   3.701   5.662   4.253 -0.2833  0.0221 -0.4955
 4908TIP3    H136139   3.750   5.668   4.335  0.0177 -0.4589 -0.6326
 4908TIP3    H236140   3.739   5.730   4.197  0.0644 -0.1865 -0.5152
 4909TIP3   OH236141   2.496   2.428   2.933  0.2431 -0.4055  0.3635
 4909TIP3    H136142   2.531   2.516   2.947  2.3420 -0.9209 -1.3215
 4909TIP3    H236143   2.518   2.381   3.013  1.5886 -0.1335  0.1671
 4910TIP3   OH236144   2.017   1.834   5.815  0.2099  0.1274  0.2364
 4910TIP3    H136145   1.937   1.803   5.857  0.7066 -1.4325  0.0795
 4910TIP3    H236146   2.023   1.926   5.838 -2.6623  0.7667 -1.3189
 4911TIP3   OH236147   5.255   3.672  16.950  0.6848  0.0576  0.7158
 4911TIP3    H136148   5.262   3.578  16.933  2.5307 -0.1204  2.1859
 4911TIP3    H236149   5.162   3.691  16.941  0.5132 -1.5617 -1.3181
 4912TIP3   OH236150   3.600   1.041  12.897 -0.0262  0.1314  0.0557
 4912TIP3    H136151   3.657   1.040  12.974  0.7550 -0.6472 -0.5191
 4912TIP3    H236152   3.652   1.085  12.830 -0.8082  1.0500  0.0527
 4913TIP3   OH236153   3.120   1.502  15.572  0.4274  0.7256  0.1765
 4913TIP3    H136154   3.042   1.497  15.517  1.5031  1.5285 -1.4703
 4913TIP3    H236155   3.089   1.537  15.655 -1.5057 -2.0125  0.6805
 4914TIP3   OH236156   6.434   5.292  16.555 -0.1609  0.2596 -0.0310
 4914TIP3    H136157   6.367   5.274  16.621 -0.1353  0.1271 -0.0393
 4914TIP3    H236158   6.492   5.356  16.597 -0.7599  1.0092 -0.3280
 4915TIP3   OH236159   6.420   2.756  15.762  0.7046  0.3876 -0.3161
 4915TIP3    H136160   6.495   2.801  15.802  2.2975 -1.2410 -1.3701
 4915TIP3    H236161   6.412   2.675  15.813 -0.9622  0.9652  0.3791
 4916TIP3   OH236162   5.789   6.079   4.176  0.4813 -0.7205  0.0794
 4916TIP3    H136163   5.850   6.137   4.221  0.1068 -0.8735  0.8024
 4916TIP3    H236164   5.782   6.002   4.233  0.2825 -1.0777 -0.4230
 4917TIP3   OH236165   5.095   1.519   3.766 -0.1801  0.7423  0.1201
 4917TIP3    H136166   5.134   1.607   3.766 -2.1187  1.6529 -0.7963
 4917TIP3    H236167   5.024   1.525   3.830  0.8341 -0.7339  1.4067
 4918TIP3   OH236168   6.528   6.174  15.073 -0.2732  0.0643 -0.0071
 4918TIP3    H136169   6.613   6.174  15.028  0.0545 -0.5753  0.6121
 4918TIP3    H236170   6.525   6.258  15.119 -0.0373  0.1484 -0.1449
 4919TIP3   OH236171   5.775   3.029  10.781  0.0304  0.6658  0.1103
 4919TIP3    H136172   5.831   3.106  10.768 -1.0856  1.8756  2.2185
 4919TIP3    H236173   5.807   2.990  10.863 -0.2066 -0.4544 -0.3116
 4920TIP3   OH236174   3.983   6.502   1.720  0.3209  0.8542  0.2354
 4920TIP3    H136175   3.895   6.464   1.729  0.9533 -0.0158  3.2502
 4920TIP3    H236176   4.009   6.480   1.631 -1.9290 -0.1681 -0.2101
 4921TIP3   OH236177   0.711   3.111   5.684  0.3705  0.5280  0.0580
 4921TIP3    H136178   0.703   3.168   5.607 -0.8751  2.2635  1.4132
 4921TIP3    H236179   0.774   3.044   5.659 -0.3962  0.7810 -2.6373
 4922TIP3   OH236180   0.650   1.369   5.309  0.0642 -0.2933  0.2564
 4922TIP3    H136181   0.643   1.317   5.389 -0.9162  1.2446  1.1915
 4922TIP3    H236182   0.695   1.450   5.336  1.7763 -0.7043 -1.2197
 4923TIP3   OH236183   1.617   6.451  17.204  0.2119  0.4554 -0.2542
 4923TIP3    H136184   1.652   6.377  17.154  0.1074 -1.1306  1.9323
 4923TIP3    H236185   1.543   6.482  17.153  1.1345 -0.0336 -1.9114
 4924TIP3   OH236186   4.405   5.120   5.657  0.0537 -0.5836 -0.5158
 4924TIP3    H136187   4.421   5.187   5.590  0.8873 -1.6578 -1.4250
 4924TIP3    H236188   4.492   5.085   5.675 -0.3701 -1.3382  0.0412
 4925TIP3   OH236189   4.632   2.425  14.361 -0.6145  0.1449  0.0649
 4925TIP3    H136190   4.605   2.334  14.346 -2.2054  0.3881  1.3796
 4925TIP3    H236191   4.556   2.467  14.401 -0.2848  2.3462 -1.5098
 4926TIP3   OH236192   6.664   4.358  12.043  0.1932 -0.6354  0.0990
 4926TIP3    H136193   6.691   4.299  11.973 -1.2790 -1.5465  0.2913
 4926TIP3    H236194   6.659   4.303  12.121  1.4700  0.3004  0.8657
 4927TIP3   OH236195   4.369   0.650   5.140 -0.3846 -0.7250  0.1242
 4927TIP3    H136196   4.357   0.716   5.209 -0.4324 -1.2249  0.5956
 4927TIP3    H236197   4.299   0.668   5.078 -0.8885 -0.8341  0.6566
 4928TIP3   OH236198   2.593   6.073   4.825  0.4576  0.2086 -0.3140
 4928TIP3    H136199   2.663   6.081   4.760 -0.6076  3.6557 -1.1919
 4928TIP3    H236200   2.578   6.163   4.854 -2.9983 -0.5542  0.4885
 4929TIP3   OH236201   4.427   4.783   5.285  0.1515 -0.1189 -0.2501
 4929TIP3    H136202   4.497   4.726   5.254 -0.6745 -0.4097 -1.6182
 4929TIP3    H236203   4.429   4.774   5.380  0.6432 -1.7094 -0.3929
 4930TIP3   OH236204   1.504   4.342   1.902 -0.1592  0.2258  0.0933
 4930TIP3    H136205   1.568   4.386   1.847 -1.2229 -0.2817 -1.5735
 4930TIP3    H236206   1.445   4.412   1.932  1.2296  0.7186  1.7670
 4931TIP3   OH236207   1.223   2.101   3.097  0.3811 -0.2217  0.4544
 4931TIP3    H136208   1.216   2.186   3.142  0.9849  0.3657 -0.5286
 4931TIP3    H236209   1.169   2.112   3.019  0.9400 -0.5406  0.0267
 4932TIP3   OH236210   0.293   1.184   5.319  0.0831  0.7367  0.4429
 4932TIP3    H136211   0.357   1.142   5.377  0.7025 -1.7288 -1.9476
 4932TIP3    H236212   0.342   1.207   5.241 -1.5747  0.3912 -0.7225
 4933TIP3   OH236213   3.422   2.255   1.208 -0.1641 -0.1525 -0.3159
 4933TIP3    H136214   3.377   2.178   1.242 -1.5961  0.7002 -0.2407
 4933TIP3    H236215   3.396   2.261   1.117  1.1736 -0.6324 -0.7390
 4934TIP3   OH236216   3.358   0.970   3.356 -0.5662  0.0674  1.1697
 4934TIP3    H136217   3.453   0.969   3.366 -0.1561  2.9641 -1.6775
 4934TIP3    H236218   3.332   0.878   3.361  2.5511 -0.8976  0.5820
 4935TIP3   OH236219   5.300   2.609   0.902  0.4961  0.5814 -0.2753
 4935TIP3    H136220   5.214   2.651   0.896  0.3561  0.4154  0.5746
 4935TIP3    H236221   5.363   2.680   0.889  0.3293  1.5680  3.7893
 4936TIP3   OH236222   1.449   5.587   0.861  0.8891  0.3144 -0.0108
 4936TIP3    H136223   1.400   5.658   0.903 -0.5166  0.7847 -2.3395
 4936TIP3    H236224   1.541   5.606   0.883  0.3043  1.1864  1.8206
 4937TIP3   OH236225   0.142   4.000   4.113  0.9071 -0.5571  0.0383
 4937TIP3    H136226   0.196   4.073   4.081 -0.5460  0.3310 -0.4392
 4937TIP3    H236227   0.177   3.923   4.068  3.5020 -0.4380  1.7646
 4938TIP3   OH236228   1.819   0.530   0.800 -0.3770 -0.4173 -0.0872
 4938TIP3    H136229   1.749   0.531   0.866  0.2542 -1.0143  0.6036
 4938TIP3    H236230   1.892   0.575   0.842 -0.6382  1.0026 -1.1453
 4939TIP3   OH236231   0.695   4.845  16.349 -0.0254 -0.0316 -0.5233
 4939TIP3    H136232   0.648   4.850  16.267  1.2425 -2.0465 -1.4176
 4939TIP3    H236233   0.784   4.872  16.327  0.3724 -0.7838  0.1097
 4940TIP3   OH236234   2.124   3.680  13.451 -0.2257  0.0653 -0.1297
 4940TIP3    H136235   2.204   3.676  13.397  0.2724 -2.0992  0.7242
 4940TIP3    H236236   2.123   3.770  13.484  1.3876  0.3898 -0.8759
 4941TIP3   OH236237   4.752   0.191   5.678 -0.4052 -0.2866 -0.2305
 4941TIP3    H136238   4.723   0.112   5.724  0.3913 -0.7832 -0.5541
 4941TIP3    H236239   4.814   0.158   5.612  1.3555  0.7809  0.8583
 4942TIP3   OH236240   2.077   6.478   2.950  0.0235 -0.2765 -0.0148
 4942TIP3    H136241   2.120   6.523   2.877 -0.6232  1.3806  0.6047
 4942TIP3    H236242   2.109   6.388   2.945  1.2908  0.2310 -1.3217
 4943TIP3   OH236243   3.307   5.861   2.472  0.1522  0.0816  0.0169
 4943TIP3    H136244   3.285   5.782   2.521  0.9957  0.3139  0.7904
 4943TIP3    H236245   3.396   5.844   2.439  0.0299  0.3920 -0.4742
 4944TIP3   OH236246   3.625   4.023  13.441 -0.2543  0.1043  0.8899
 4944TIP3    H136247   3.642   4.065  13.357  1.0412  1.3744  1.7592
 4944TIP3    H236248   3.636   3.929  13.424 -0.4659  0.3154 -0.4549
 4945TIP3   OH236249   1.475   6.170  14.220 -0.6006  0.1124 -0.4872
 4945TIP3    H136250   1.488   6.265  14.213 -0.0744  0.1189  0.4453
 4945TIP3    H236251   1.426   6.159  14.301 -0.5963 -0.4148 -0.5589
 4946TIP3   OH236252   0.397   1.676  13.752  0.1651 -0.3245 -0.2309
 4946TIP3    H136253   0.478   1.725  13.765 -0.2949  0.6501 -1.0133
 4946TIP3    H236254   0.327   1.740  13.767 -0.4489 -0.8369 -0.8591
 4947TIP3   OH236255   4.375   5.029   1.350  0.5086 -0.5297 -0.1990
 4947TIP3    H136256   4.357   5.092   1.280 -0.9637 -0.8461 -0.1192
 4947TIP3    H236257   4.320   5.058   1.423  0.5032 -1.3748  0.1364
 4948TIP3   OH236258   0.144   0.614   2.589  0.4966 -0.4700  0.1780
 4948TIP3    H136259   0.240   0.608   2.582  0.4142  0.0754 -1.6192
 4948TIP3    H236260   0.113   0.529   2.557  0.3845 -0.8459  1.2588
 4949TIP3   OH236261   2.216   2.911   5.579 -0.1193 -0.6214 -0.7996
 4949TIP3    H136262   2.125   2.933   5.558 -0.4918  0.4628  1.8117
 4949TIP3    H236263   2.211   2.865   5.662  1.8583  0.9305  0.2115
 4950TIP3   OH236264   6.158   2.358  13.350 -0.3208  0.0223  0.8976
 4950TIP3    H136265   6.141   2.314  13.433 -0.6403 -1.9981 -0.2010
 4950TIP3    H236266   6.244   2.327  13.323 -0.6067 -0.0449  0.0427
 4951TIP3   OH236267   5.433   2.294   1.585  0.0912  0.0203  0.3367
 4951TIP3    H136268   5.471   2.255   1.507  1.1233  1.8142 -0.0966
 4951TIP3    H236269   5.341   2.267   1.584  0.0911  0.0624 -1.5298
 4952TIP3   OH236270   5.130   5.109   1.131 -0.7616 -0.3339  0.5047
 4952TIP3    H136271   5.167   5.031   1.089  1.1221  0.3730  0.8018
 4952TIP3    H236272   5.168   5.109   1.219 -0.7833  0.8752  0.5240
 4953TIP3   OH236273   0.273   3.796  13.574 -0.0782 -0.9241 -0.2519
 4953TIP3    H136274   0.218   3.760  13.643  1.0884 -0.6789  0.8153
 4953TIP3    H236275   0.259   3.738  13.499  1.1374 -3.1486  1.1723
 4954TIP3   OH236276   2.860   3.207   3.037 -0.8588  0.0859 -0.6081
 4954TIP3    H136277   2.899   3.184   3.121 -0.6604  0.1307 -0.6858
 4954TIP3    H236278   2.899   3.293   3.016 -0.4097 -0.2220 -1.0509
 4955TIP3   OH236279   6.041   5.970  12.325  0.1724  0.6388 -0.5713
 4955TIP3    H136280   5.957   6.014  12.330  1.1193  2.3657  0.7894
 4955TIP3    H236281   6.075   5.973  12.415  1.1572 -1.1090 -0.8609
 4956TIP3   OH236282   3.788   1.624  13.601  0.0806  0.0001  0.2015
 4956TIP3    H136283   3.835   1.655  13.523  1.8649 -1.7580  0.5636
 4956TIP3    H236284   3.852   1.631  13.672 -0.3178 -1.9876  0.7830
 4957TIP3   OH236285   1.324   6.284  12.424  0.4131  0.1606 -0.2390
 4957TIP3    H136286   1.236   6.286  12.462 -0.2059  0.9540 -1.6550
 4957TIP3    H236287   1.316   6.335  12.343  2.6746  1.9485  0.6278
 4958TIP3   OH236288   6.214   5.382  12.045 -0.5670  0.5293  0.1124
 4958TIP3    H136289   6.211   5.465  11.997 -0.4804  2.4346  3.2189
 4958TIP3    H236290   6.134   5.382  12.098 -0.9287 -1.7495 -0.3923
 4959TIP3   OH236291   2.595   4.097  11.589 -0.6280  0.0015  0.2435
 4959TIP3    H136292   2.665   4.123  11.528 -0.6494 -0.9430 -0.1929
 4959TIP3    H236293   2.641   4.057  11.662 -0.6650  0.2191  0.3888
 4960TIP3   OH236294   0.497   5.004   3.005  0.5359  0.2320  0.1050
 4960TIP3    H136295   0.519   4.964   2.922 -0.9472 -0.6966  0.1417
 4960TIP3    H236296   0.493   5.098   2.986  1.0889  0.1041 -0.6521
 4961TIP3   OH236297   3.792   3.293  13.951 -0.5465 -0.3486 -0.1590
 4961TIP3    H136298   3.721   3.230  13.939 -0.4656 -0.3559 -0.6273
 4961TIP3    H236299   3.866   3.256  13.903 -0.2769 -0.2609  0.1896
 4962TIP3   OH236300   4.330   3.958  12.169  0.1641 -0.5658 -0.1658
 4962TIP3    H136301   4.290   3.949  12.082 -1.4944  1.2212  0.3765
 4962TIP3    H236302   4.391   3.884  12.175 -1.4266 -2.0739 -1.9220
 4963TIP3   OH236303   3.203   6.622  14.616 -0.1295 -0.0780  0.4230
 4963TIP3    H136304   3.120   6.661  14.588  0.1093 -0.4593 -0.8497
 4963TIP3    H236305   3.256   6.619  14.537  1.1568  0.2653  1.2508
 4964TIP3   OH236306   5.991   4.711  12.951 -0.5006 -0.1793 -0.6749
 4964TIP3    H136307   5.974   4.683  13.041  0.4198  1.9882  0.1916
 4964TIP3    H236308   5.915   4.764  12.928 -0.2883  0.0524 -0.8393
 4965TIP3   OH236309   2.533   0.722  16.965  0.6754  0.3333 -0.0792
 4965TIP3    H136310   2.498   0.776  16.894  0.5792  0.8032  0.3212
 4965TIP3    H236311   2.603   0.775  17.003  1.6465 -0.4752 -0.6816
 4966TIP3   OH236312   3.492   5.177   5.153  0.7061  0.2378  0.0160
 4966TIP3    H136313   3.428   5.243   5.178  0.8391  0.4700 -0.2649
 4966TIP3    H236314   3.564   5.226   5.115  0.5893 -0.1053 -0.6569
 4967TIP3   OH236315   6.073   3.520  16.469 -0.0391 -0.1960  0.4873
 4967TIP3    H136316   6.058   3.547  16.379  2.1162  1.3834  0.5661
 4967TIP3    H236317   6.116   3.435  16.462  1.6346  0.6769 -0.0489
 4968TIP3   OH236318   0.868   1.066  14.038 -0.0162 -0.3806 -0.7523
 4968TIP3    H136319   0.913   1.018  13.969 -1.1923 -2.2660 -0.2481
 4968TIP3    H236320   0.885   1.016  14.118 -2.3864 -0.7512 -0.4407
 4969TIP3   OH236321   3.762   0.492   5.782  0.4020 -0.2674 -0.1001
 4969TIP3    H136322   3.811   0.436   5.722  0.8326 -1.0065  0.9387
 4969TIP3    H236323   3.683   0.516   5.733  0.4032 -1.4457 -0.6881
 4970TIP3   OH236324   0.657   6.647  14.917  0.3938  0.3530  0.2792
 4970TIP3    H136325   0.580   6.597  14.890  0.6678 -0.5460  1.1287
 4970TIP3    H236326   0.623   6.710  14.981  0.7238 -1.6682  2.5079
 4971TIP3   OH236327   3.788   1.337  13.792 -0.0600  0.4040 -0.1667
 4971TIP3    H136328   3.728   1.380  13.854 -1.5231 -0.1198 -1.2148
 4971TIP3    H236329   3.875   1.370  13.818 -0.7087  0.7395  1.7156
 4972TIP3   OH236330   1.195   6.766  13.916 -0.1610 -0.0605  0.4997
 4972TIP3    H136331   1.217   6.820  13.992  0.1170  1.6156 -0.7285
 4972TIP3    H236332   1.186   6.829  13.845 -0.2742 -1.6260 -0.8859
 4973TIP3   OH236333   2.790   0.567   3.161  0.2854 -0.7499 -0.1160
 4973TIP3    H136334   2.696   0.568   3.143  0.2558 -0.9084  0.0245
 4973TIP3    H236335   2.813   0.659   3.172  0.9397 -0.2913 -4.2125
 4974TIP3   OH236336   2.857   2.971  12.853 -0.0058 -0.1239  0.1406
 4974TIP3    H136337   2.858   2.948  12.760  1.5110  0.9376 -0.1253
 4974TIP3    H236338   2.919   2.910  12.894 -0.5845 -0.5148  0.4437
 4975TIP3   OH236339   2.981   6.425   5.819 -0.1476  0.0921 -0.0874
 4975TIP3    H136340   3.015   6.455   5.735 -1.0405  1.4054  0.0102
 4975TIP3    H236341   2.973   6.504   5.872  1.4217 -0.8642  1.6167
 4976TIP3   OH236342   4.459   6.508   1.024 -0.1132  0.1889 -0.5854
 4976TIP3    H136343   4.542   6.544   0.993 -0.4307  1.4295 -0.0097
 4976TIP3    H236344   4.402   6.584   1.033 -0.8818 -0.4942  0.3783
 4977TIP3   OH236345   6.250   5.387  14.724 -0.5436  0.1355 -0.0665
 4977TIP3    H136346   6.316   5.433  14.776  1.5068 -0.2855 -2.1721
 4977TIP3    H236347   6.256   5.296  14.753 -0.7524  0.2269  0.2707
 4978TIP3   OH236348   1.180   1.761  16.523 -0.0343 -0.6271 -0.2087
 4978TIP3    H136349   1.115   1.787  16.458  0.8192 -0.3851 -0.9713
 4978TIP3    H236350   1.216   1.678  16.491 -0.2410 -0.9643  0.4108
 4979TIP3   OH236351   4.571   4.525  16.624 -0.2579 -0.3426  0.1411
 4979TIP3    H136352   4.586   4.447  16.677  1.9237  1.0264  1.6242
 4979TIP3    H236353   4.496   4.568  16.665 -0.0671 -0.5050  0.6638
 4980TIP3   OH236354   3.844   1.556   3.719  0.0619  0.6893  0.3021
 4980TIP3    H136355   3.896   1.527   3.794  0.0089 -2.1708 -0.7056
 4980TIP3    H236356   3.879   1.643   3.698  1.7586  0.4653  2.0866
 4981TIP3   OH236357   3.227   0.962   6.529 -0.0504 -0.0406  0.8168
 4981TIP3    H136358   3.277   0.954   6.610  0.3654  0.0725  0.5716
 4981TIP3    H236359   3.293   0.957   6.459 -0.0413  2.9904  0.5600
 4982TIP3   OH236360   3.509   5.394  12.233  0.2876 -0.0336  0.0742
 4982TIP3    H136361   3.440   5.383  12.299  1.1361 -1.0346  0.8215
 4982TIP3    H236362   3.586   5.352  12.272  1.7027  2.2599 -0.1638
 4983TIP3   OH236363   1.028   3.710  14.582  0.5048 -0.1164 -0.4986
 4983TIP3    H136364   1.061   3.799  14.577  2.0901 -0.6474  0.2834
 4983TIP3    H236365   0.956   3.707  14.518  0.3606  1.7338 -0.4462
 4984TIP3   OH236366   4.394   2.762  14.511  0.4346  0.2563  0.0232
 4984TIP3    H136367   4.386   2.685  14.455  0.5198 -0.2373  0.6794
 4984TIP3    H236368   4.318   2.756  14.570  1.3853 -0.2461  1.1981
 4985TIP3   OH236369   1.887   5.205   2.970 -0.0901  0.2453 -0.2970
 4985TIP3    H136370   1.954   5.262   3.006 -1.1496  0.9407  0.5853
 4985TIP3    H236371   1.879   5.231   2.878  1.7768 -0.7407 -0.7585
 4986TIP3   OH236372   1.501   4.224  15.216 -0.0348 -0.7546  0.1016
 4986TIP3    H136373   1.552   4.157  15.170 -0.1534  0.3049 -1.6191
 4986TIP3    H236374   1.466   4.179  15.293  1.1896 -2.2380 -0.1808
 4987TIP3   OH236375   3.592   4.057   2.308  0.0055  0.4813  0.5189
 4987TIP3    H136376   3.527   3.988   2.292 -0.1898  0.4398  1.4559
 4987TIP3    H236377   3.540   4.132   2.337  0.2103  1.0644 -0.6411
 4988TIP3   OH236378   1.320   5.325  13.826 -0.4238  0.0314  0.3639
 4988TIP3    H136379   1.343   5.272  13.750 -0.9137 -1.7270  1.4132
 4988TIP3    H236380   1.241   5.371  13.800 -0.6302 -0.6214 -0.1816
 4989TIP3   OH236381   3.416   0.357  17.191 -0.0008  0.6683  0.7169
 4989TIP3    H136382   3.420   0.451  17.173 -0.0202  0.5040 -0.1541
 4989TIP3    H236383   3.338   0.327  17.145  0.3341  0.1187  0.5045
 4990TIP3   OH236384   6.158   2.009  14.413 -0.0806 -0.1059 -0.1793
 4990TIP3    H136385   6.101   1.992  14.338  0.2423  0.4890 -0.5574
 4990TIP3    H236386   6.235   1.953  14.397 -0.3467 -0.5524  0.0935
 4991TIP3   OH236387   4.717   3.981  13.137 -0.1104 -0.1167  0.0740
 4991TIP3    H136388   4.718   4.073  13.165  0.2572 -0.3883  0.9643
 4991TIP3    H236389   4.722   3.985  13.042  1.2914  0.7438  0.1818
 4992TIP3   OH236390   0.665   1.713  11.326 -0.2373  0.3434  0.4433
 4992TIP3    H136391   0.610   1.692  11.250 -0.7481 -0.1635  0.9504
 4992TIP3    H236392   0.613   1.777  11.376  0.2146  0.8844  0.2298
 4993TIP3   OH236393   2.909   6.729   1.431  0.1905 -0.4463  0.2642
 4993TIP3    H136394   2.897   6.676   1.353 -2.0120  0.5248 -0.0848
 4993TIP3    H236395   2.916   6.819   1.399 -0.5704 -0.0552  1.1531
 4994TIP3   OH236396   3.057   6.328  11.621  0.7301  0.6707 -0.3386
 4994TIP3    H136397   3.063   6.303  11.528  1.4788  0.0357 -0.1271
 4994TIP3    H236398   3.119   6.401  11.630  0.5257  0.8476 -0.3810
 4995TIP3   OH236399   1.224   6.619   6.664 -0.0054  0.1782  0.1764
 4995TIP3    H136400   1.252   6.695   6.715  0.0157  0.7212 -0.6396
 4995TIP3    H236401   1.283   6.617   6.589 -0.1270 -0.5367  0.0892
 4996TIP3   OH236402   0.864   1.246  16.762 -0.6127 -0.4539 -0.8685
 4996TIP3    H136403   0.822   1.165  16.792 -0.1060 -0.0765  0.9621
 4996TIP3    H236404   0.881   1.294  16.843  0.7404  0.6723 -1.8101
 4997TIP3   OH236405   0.576   5.926   5.477  0.2776  0.2490  0.0412
 4997TIP3    H136406   0.613   5.980   5.408  0.7118 -0.3338 -0.1887
 4997TIP3    H236407   0.639   5.932   5.549  0.3577 -0.0037 -0.0085
 4998TIP3   OH236408   6.151   3.602  10.485 -0.0629  0.2228  0.0559
 4998TIP3    H136409   6.128   3.623  10.395  1.5204 -0.0616 -0.4241
 4998TIP3    H236410   6.143   3.507  10.490 -0.6438  0.2857  0.3597
 4999TIP3   OH236411   6.247   0.306   3.568  0.0304  0.7837 -0.2076
 4999TIP3    H136412   6.297   0.320   3.488 -0.2640  0.8863 -0.3731
 4999TIP3    H236413   6.307   0.330   3.638  1.3529 -2.1440 -0.2324
 5000TIP3   OH236414   4.963   3.918  16.728  0.4643  0.1783  0.1338
 5000TIP3    H136415   4.968   3.850  16.794  2.0200 -1.5780 -1.7267
 5000TIP3    H236416   4.929   3.874  16.650 -1.0870  2.1466 -0.3439
 5001TIP3   OH236417   5.901   4.303   5.844  0.3251 -0.1337 -0.1846
 5001TIP3    H136418   5.894   4.305   5.940 -0.0803 -0.5666 -0.2020
 5001TIP3    H236419   5.957   4.377   5.823 -0.4778  0.6272  0.3042
 5002TIP3   OH236420   4.390   2.433  16.096  0.3361  0.2198 -0.8302
 5002TIP3    H136421   4.408   2.471  16.010 -1.4083 -1.9786 -2.2091
 5002TIP3    H236422   4.304   2.469  16.120  1.0402  1.2165  0.2415
 5003TIP3   OH236423   5.786   4.128   0.095 -0.1271  0.1632  0.2133
 5003TIP3    H136424   5.752   4.104   0.182  0.5990  0.1208  0.4889
 5003TIP3    H236425   5.881   4.121   0.104  0.0867  2.5469  0.1294
 5004TIP3   OH236426   6.786   5.358  13.425 -0.6338  0.3855 -0.6352
 5004TIP3    H136427   6.882   5.360  13.416 -0.2246 -0.4343  2.7811
 5004TIP3    H236428   6.764   5.443  13.463 -0.7896 -0.7981  2.0268
 5005TIP3   OH236429   2.426   6.618  11.132 -0.0640 -0.0665 -0.1549
 5005TIP3    H136430   2.404   6.699  11.178  0.1909  0.0186 -0.1840
 5005TIP3    H236431   2.474   6.647  11.054  0.5415 -0.2801  0.1367
 5006TIP3   OH236432   2.712   3.190   4.935 -0.2862  0.3411 -0.1772
 5006TIP3    H136433   2.640   3.253   4.930 -0.8034 -0.2726 -0.6888
 5006TIP3    H236434   2.769   3.223   5.005 -0.7005  1.2090 -0.2480
 5007TIP3   OH236435   1.194   6.081   5.261 -0.7753 -0.7601  0.0987
 5007TIP3    H136436   1.275   6.129   5.244 -1.8898  0.7909 -0.9996
 5007TIP3    H236437   1.217   6.018   5.329  1.0177  0.5896  0.7944
 5008TIP3   OH236438   4.694   1.269   5.895  0.1066 -0.6483  0.0431
 5008TIP3    H136439   4.680   1.299   5.985  1.1004  1.3725 -0.4377
 5008TIP3    H236440   4.662   1.341   5.840  1.8390 -0.7730 -1.1715
 5009TIP3   OH236441   4.875   2.312  13.280 -0.4178  0.0138 -0.1847
 5009TIP3    H136442   4.817   2.239  13.256  1.7059 -1.8754  0.2791
 5009TIP3    H236443   4.859   2.324  13.374 -1.1367  0.4974 -0.3626
 5010TIP3   OH236444   2.410   1.095   1.702 -0.1487 -0.0484 -0.3454
 5010TIP3    H136445   2.433   1.062   1.789  0.6456 -2.6440 -1.4912
 5010TIP3    H236446   2.482   1.153   1.679  1.0419 -1.4949 -0.3683
 5011TIP3   OH236447   4.522   3.130  13.959  0.5434 -0.1858 -0.4469
 5011TIP3    H136448   4.581   3.078  14.013 -1.5170 -2.0405  0.0923
 5011TIP3    H236449   4.579   3.172  13.894  2.4420 -1.8942  0.0770
 5012TIP3   OH236450   5.015   6.059   3.890  0.1257  0.2881 -0.3333
 5012TIP3    H136451   4.962   5.985   3.920 -0.7696  0.4842 -1.4115
 5012TIP3    H236452   5.101   6.043   3.929 -0.3738 -0.6949  0.4108
 5013TIP3   OH236453   1.874   4.335  11.864  0.1421  0.4983  0.5058
 5013TIP3    H136454   1.937   4.384  11.917 -0.0121  0.1760  0.9981
 5013TIP3    H236455   1.895   4.243  11.881 -1.3374  0.3608  1.7910
 5014TIP3   OH236456   1.930   6.149   2.534  0.2002  0.3950 -0.7812
 5014TIP3    H136457   1.884   6.080   2.582  0.7076 -0.0890 -0.9858
 5014TIP3    H236458   1.860   6.205   2.499 -0.1529  1.3237  1.3420
 5015TIP3   OH236459   2.985   0.962  14.045 -0.4047  0.2204  0.5938
 5015TIP3    H136460   2.914   1.011  14.086 -0.8190 -0.6046  0.8614
 5015TIP3    H236461   2.979   0.986  13.952 -0.6329  0.6401  0.7142
 5016TIP3   OH236462   2.962   0.673  15.399  0.4825  0.5181  0.4606
 5016TIP3    H136463   2.959   0.588  15.443 -0.0525  0.5175  0.4235
 5016TIP3    H236464   2.874   0.710  15.411 -0.2683 -0.3198 -2.2517
 5017TIP3   OH236465   5.345   0.804  15.352  0.0466 -0.0119 -0.6327
 5017TIP3    H136466   5.436   0.776  15.349  0.0403 -0.0508 -0.4450
 5017TIP3    H236467   5.303   0.757  15.281 -0.2993 -1.6439  0.6248
 5018TIP3   OH236468   1.489   1.704  12.293  0.3957 -0.1257 -0.5393
 5018TIP3    H136469   1.519   1.785  12.334 -0.9664 -0.2025  0.6472
 5018TIP3    H236470   1.491   1.722  12.199  0.8418  1.0071 -0.3215
 5019TIP3   OH236471   4.503   4.347   3.655 -0.1826 -0.0578  0.8621
 5019TIP3    H136472   4.463   4.434   3.645  0.6249  0.6893  3.7412
 5019TIP3    H236473   4.567   4.358   3.725  2.0505 -2.2814 -0.7689
 5020TIP3   OH236474   1.907   3.299  15.155  0.8894 -0.2687 -0.0544
 5020TIP3    H136475   1.920   3.274  15.246 -2.6310 -0.1766  0.5501
 5020TIP3    H236476   1.916   3.394  15.154  1.3820 -0.3118  0.0882
 5021TIP3   OH236477   6.067   5.571  16.010  0.2555  0.4083 -0.2235
 5021TIP3    H136478   6.043   5.649  15.960 -0.0026  0.4148 -0.0926
 5021TIP3    H236479   6.016   5.500  15.970  0.4961  0.3051 -0.3483
 5022TIP3   OH236480   1.867   0.419   0.567  1.2110 -0.5198  0.4247
 5022TIP3    H136481   1.873   0.490   0.504 -2.6696  0.0047  0.5180
 5022TIP3    H236482   1.863   0.462   0.652 -1.0229 -0.8259  0.4937
 5023TIP3   OH236483   4.754   1.740  10.803  0.0526 -0.5254  0.4755
 5023TIP3    H136484   4.819   1.809  10.790  0.0424 -0.4509  0.7982
 5023TIP3    H236485   4.804   1.667  10.838 -0.1812 -0.1373  1.6622
 5024TIP3   OH236486   1.071   5.481  13.797  0.2576 -0.1613  0.6039
 5024TIP3    H136487   0.983   5.501  13.828 -0.6748 -0.9865 -1.4173
 5024TIP3    H236488   1.100   5.562  13.755 -0.6887 -0.7505 -1.2438
 5025TIP3   OH236489   4.335   0.610  12.563  0.7675  0.2367 -0.0730
 5025TIP3    H136490   4.354   0.649  12.478  1.6761  0.2909  0.1431
 5025TIP3    H236491   4.406   0.641  12.619  0.1801  0.1997  0.7042
 5026TIP3   OH236492   6.672   3.182   2.189  0.1430  0.1029 -0.0694
 5026TIP3    H136493   6.745   3.124   2.167  0.5003  0.2892  0.6045
 5026TIP3    H236494   6.658   3.234   2.110  1.7547  1.1332  0.3179
 5027TIP3   OH236495   5.761   0.934  13.191  0.1129  0.0761 -0.2015
 5027TIP3    H136496   5.815   0.927  13.113  1.4839  1.5427  0.5842
 5027TIP3    H236497   5.821   0.967  13.259 -1.4399  0.4244  1.0364
 5028TIP3   OH236498   5.747   1.116  13.512 -0.5004 -0.3636 -0.7960
 5028TIP3    H136499   5.769   1.023  13.510  1.2116 -0.0443  0.9784
 5028TIP3    H236500   5.688   1.125  13.587  0.8262  0.2222  0.2226
 5029TIP3   OH236501   3.531   0.021   4.527  0.1582 -0.7509 -0.1055
 5029TIP3    H136502   3.452   0.073   4.513  0.2533 -1.2242 -2.5327
 5029TIP3    H236503   3.515  -0.024   4.610 -1.8941 -0.4395 -0.3102
 5030TIP3   OH236504   3.728   5.200  13.416  0.2779  0.4498 -0.6748
 5030TIP3    H136505   3.773   5.244  13.488 -2.4143 -0.6456  1.7806
 5030TIP3    H236506   3.770   5.113  13.411 -0.0164  0.2667  0.0579
 5031TIP3   OH236507   2.158   3.142   1.340 -0.3775  0.8123 -0.2017
 5031TIP3    H136508   2.105   3.222   1.336 -1.8597 -0.2160 -2.1223
 5031TIP3    H236509   2.226   3.155   1.275  0.0540  0.9469  0.2684
 5032TIP3   OH236510   5.003   1.426  13.795  0.4366  0.1033 -0.0732
 5032TIP3    H136511   4.982   1.452  13.885  0.4760  1.0195 -0.3319
 5032TIP3    H236512   4.918   1.405  13.756  0.4470 -0.6199  0.2670
 5033TIP3   OH236513   5.695   2.096  12.228  0.3809  0.5995  0.3200
 5033TIP3    H136514   5.656   2.184  12.228  0.7651  0.7796 -0.9203
 5033TIP3    H236515   5.694   2.069  12.136  0.7544 -0.4779  0.6226
 5034TIP3   OH236516   4.167   1.592   4.205  0.0158  0.0672  0.3184
 5034TIP3    H136517   4.242   1.634   4.246  0.4516  0.2224 -0.6234
 5034TIP3    H236518   4.199   1.506   4.177  0.0821  0.4595 -0.8372
 5035TIP3   OH236519   1.840   2.520   3.842 -0.0530 -0.2621 -0.3375
 5035TIP3    H136520   1.861   2.558   3.757 -1.2675  0.2625 -0.4112
 5035TIP3    H236521   1.754   2.555   3.864 -0.0347 -0.8973  0.8153
 5036TIP3   OH236522   0.633   6.372  14.704 -0.3979 -0.0074 -0.0471
 5036TIP3    H136523   0.602   6.435  14.638 -1.4643 -0.6623 -0.1881
 5036TIP3    H236524   0.570   6.379  14.775 -0.7315 -1.1644 -0.2152
 5037TIP3   OH236525   1.935   5.790  11.535 -0.1961  0.2731  0.3628
 5037TIP3    H136526   1.848   5.830  11.545 -1.1679 -1.6783  0.0455
 5037TIP3    H236527   1.982   5.816  11.615 -0.7050  2.1910  0.0631
 5038TIP3   OH236528   5.499   4.761   4.430  0.0024  0.0899  0.3590
 5038TIP3    H136529   5.590   4.789   4.433  0.2691 -0.8992  1.8187
 5038TIP3    H236530   5.488   4.707   4.508 -1.9067  0.4321  0.3420
 5039TIP3   OH236531   5.580   3.394  14.340  0.5253 -0.4274  0.0598
 5039TIP3    H136532   5.552   3.303  14.331  0.0302 -0.0434 -2.7310
 5039TIP3    H236533   5.547   3.420  14.427  0.2696 -2.7402  0.7029
 5040TIP3   OH236534   3.970   4.941   1.838  0.0815 -0.4254  0.0290
 5040TIP3    H136535   4.032   5.007   1.869 -0.9866  1.1674 -1.1348
 5040TIP3    H236536   3.992   4.929   1.746 -1.8589  0.8237 -0.6428
 5041TIP3   OH236537   4.514   0.348  13.034 -0.2596  0.1290  0.3306
 5041TIP3    H136538   4.572   0.405  13.084  1.7780 -1.0616 -0.5877
 5041TIP3    H236539   4.436   0.339  13.088 -0.8349  4.1083  0.2931
 5042TIP3   OH236540   1.900   3.934  11.533 -0.4890  1.0138  0.1237
 5042TIP3    H136541   1.851   3.893  11.604  1.4995 -1.3114  0.2291
 5042TIP3    H236542   1.948   4.005  11.576  1.9376 -1.3590  1.5411
 5043TIP3   OH236543   4.055   1.388  12.038  0.0943  0.5576 -0.0802
 5043TIP3    H136544   4.027   1.399  12.129 -1.5664 -0.4863 -0.4468
 5043TIP3    H236545   4.035   1.471  11.996  0.5743  0.9367  0.4293
 5044TIP3   OH236546   0.543   2.524   3.154  0.5040 -0.6317 -0.6115
 5044TIP3    H136547   0.461   2.538   3.202  1.0937  2.4170 -0.4105
 5044TIP3    H236548   0.515   2.494   3.068 -0.6964 -2.4291  0.3503
 5045TIP3   OH236549   6.734   0.044  10.370 -0.0546 -0.6247  0.6778
 5045TIP3    H136550   6.731  -0.033  10.313 -2.4213 -0.1494  0.1413
 5045TIP3    H236551   6.661   0.033  10.431 -0.5897  1.3319  0.4225
 5046TIP3   OH236552   4.194   3.231   5.167  0.5298  0.3476  0.1690
 5046TIP3    H136553   4.229   3.151   5.129  1.1319  1.4803 -1.7011
 5046TIP3    H236554   4.131   3.263   5.102  0.8304  1.7755  0.5793
 5047TIP3   OH236555   5.108   2.638   5.426 -0.3324  0.5364 -0.1329
 5047TIP3    H136556   5.115   2.552   5.384  0.9378 -0.0076  1.1737
 5047TIP3    H236557   5.168   2.634   5.500 -0.8714  2.2787  0.4224
 5048TIP3   OH236558   0.004   3.174  15.433  0.1780 -0.1805  0.0306
 5048TIP3    H136559   0.005   3.113  15.507 -0.1501  0.1424  0.3030
 5048TIP3    H236560   0.031   3.258  15.471  1.1842 -0.2706 -0.4521
 5049TIP3   OH236561   4.739   6.308   1.704 -0.2918  0.3909 -0.5357
 5049TIP3    H136562   4.743   6.398   1.672  1.3479  1.3560  2.2272
 5049TIP3    H236563   4.796   6.259   1.646  0.2994  1.5138 -0.9135
 5050TIP3   OH236564   0.795   3.362  15.501  0.2860  0.2455 -0.2138
 5050TIP3    H136565   0.794   3.400  15.588 -2.1523  0.9531 -0.5222
 5050TIP3    H236566   0.862   3.412  15.454 -0.1889  1.5877  0.5022
 5051TIP3   OH236567   1.394   3.453   1.806 -0.2256 -0.4006 -0.2139
 5051TIP3    H136568   1.299   3.446   1.804 -0.3740  1.5758 -0.9452
 5051TIP3    H236569   1.419   3.479   1.717  0.7707  1.5922  0.6195
 5052TIP3   OH236570   4.932   4.200  16.673 -0.0553  0.5381  0.0488
 5052TIP3    H136571   4.933   4.105  16.684  1.4358  0.5063 -0.2365
 5052TIP3    H236572   4.959   4.235  16.758  2.2315  0.5858 -0.6454
 5053TIP3   OH236573   4.523   6.006   1.525  0.3362  0.0659  0.4397
 5053TIP3    H136574   4.490   6.002   1.435  0.8295 -1.5838  0.3040
 5053TIP3    H236575   4.470   6.073   1.567 -0.5895  0.1451 -0.8162
 5054TIP3   OH236576   3.112   6.230   4.929 -0.2968  0.0518 -0.3234
 5054TIP3    H136577   3.154   6.316   4.926  0.8696 -0.5181 -0.4996
 5054TIP3    H236578   3.136   6.194   5.014 -2.1652  0.5780  0.4510
 5055TIP3   OH236579   1.441   3.575  14.149 -0.1544 -0.1993 -0.3323
 5055TIP3    H136580   1.367   3.574  14.088  0.1647 -0.6460 -0.7221
 5055TIP3    H236581   1.453   3.483  14.172 -0.2918 -0.0298  0.4371
 5056TIP3   OH236582   2.811   0.417   5.882 -0.0875  0.3689 -0.2971
 5056TIP3    H136583   2.803   0.362   5.804 -0.1584 -1.9559  1.3124
 5056TIP3    H236584   2.722   0.450   5.896 -0.4243 -0.5467 -0.2395
 5057TIP3   OH236585   4.567   0.765  15.028 -0.0174  0.0914  0.1574
 5057TIP3    H136586   4.520   0.843  14.998  0.2515  0.2747  0.2142
 5057TIP3    H236587   4.608   0.792  15.110 -3.3370 -1.3098  2.3752
 5058TIP3   OH236588   6.279   1.093   6.152  0.2426 -0.4332  0.0374
 5058TIP3    H136589   6.246   1.131   6.071  0.6338 -1.4585 -0.6062
 5058TIP3    H236590   6.254   1.157   6.220 -0.1167  0.4052 -0.8686
 5059TIP3   OH236591   3.547   4.759  16.410  0.5641 -0.3579 -0.6549
 5059TIP3    H136592   3.554   4.699  16.484 -0.5743 -1.1092 -1.1449
 5059TIP3    H236593   3.556   4.846  16.449 -0.6623 -0.7192  0.4737
 5060TIP3   OH236594   6.376   1.017  16.435  0.1519 -0.6242 -0.3420
 5060TIP3    H136595   6.444   1.084  16.444 -0.6835  0.1062  0.7028
 5060TIP3    H236596   6.359   1.013  16.341 -0.7336  1.6229 -0.3135
 5061TIP3   OH236597   4.192   2.720  14.702  0.3024  0.0959 -0.0195
 5061TIP3    H136598   4.248   2.706  14.779  0.0968  0.4057  0.1908
 5061TIP3    H236599   4.131   2.788  14.730 -1.0089 -1.1449  0.1873
 5062TIP3   OH236600   6.460   6.775  12.561 -0.2236  0.9248 -0.6210
 5062TIP3    H136601   6.391   6.840  12.570 -0.3228  0.8057 -0.5191
 5062TIP3    H236602   6.541   6.825  12.567 -0.2910  0.9222  0.3943
 5063TIP3   OH236603   0.546   0.811   5.261 -0.6358  0.3458 -0.9064
 5063TIP3    H136604   0.501   0.739   5.305 -2.0379  0.5727 -1.9746
 5063TIP3    H236605   0.627   0.772   5.229 -1.7598 -0.9760 -2.1999
 5064TIP3   OH236606   5.185   1.701  14.098  0.1670  0.8613  0.8664
 5064TIP3    H136607   5.096   1.697  14.063  0.9338 -1.5838 -0.8722
 5064TIP3    H236608   5.218   1.786  14.069 -0.8431  0.8565 -0.3560
 5065TIP3   OH236609   1.467   1.943  15.756 -0.5301  0.2553 -0.2845
 5065TIP3    H136610   1.467   1.906  15.667 -0.7792  2.5067 -1.2550
 5065TIP3    H236611   1.473   2.037  15.742  0.6196  0.5743  2.1424
 5066TIP3   OH236612   3.317   2.725   2.005 -0.0703 -0.2594 -0.0796
 5066TIP3    H136613   3.304   2.699   2.096  0.5837  1.1230  0.4271
 5066TIP3    H236614   3.409   2.704   1.987  0.4466  1.5952  0.3151
 5067TIP3   OH236615   4.944   3.797  13.610 -0.3460  0.2131  0.2673
 5067TIP3    H136616   5.019   3.737  13.612  0.4326  1.1875  0.6563
 5067TIP3    H236617   4.906   3.791  13.698 -0.1168  0.4671  0.3859
 5068TIP3   OH236618   6.253   0.747   1.536 -0.3020 -0.0859 -0.3046
 5068TIP3    H136619   6.160   0.768   1.536 -0.0431  1.1575 -0.2854
 5068TIP3    H236620   6.281   0.761   1.446  0.0842  0.6324 -0.0783
 5069TIP3   OH236621   5.812   6.346  10.968 -0.3161  0.2223  0.1386
 5069TIP3    H136622   5.778   6.346  10.879 -2.0191  0.0242  0.7819
 5069TIP3    H236623   5.818   6.439  10.991 -0.1514  0.2647 -0.0750
 5070TIP3   OH236624   4.708   5.241  16.956  0.1851 -0.5775  0.2507
 5070TIP3    H136625   4.759   5.271  16.881 -0.1898  2.2353  1.0720
 5070TIP3    H236626   4.633   5.196  16.917 -0.2293  1.2420 -1.0973
 5071TIP3   OH236627   1.076   6.120   2.405  0.9815 -0.0329  0.2245
 5071TIP3    H136628   1.108   6.206   2.430 -1.6041  1.0163  0.0273
 5071TIP3    H236629   1.011   6.136   2.338  1.3648 -2.2395 -0.7408
 5072TIP3   OH236630   5.685   6.174   5.714  0.4618  0.2228 -0.2434
 5072TIP3    H136631   5.595   6.190   5.688  1.0073  1.3235 -1.4799
 5072TIP3    H236632   5.680   6.157   5.809 -0.9100  1.2508 -0.1226
 5073TIP3   OH236633   3.438   3.075  15.517  0.0156  0.8005  0.1691
 5073TIP3    H136634   3.365   3.136  15.507 -0.5503  0.0213 -0.4905
 5073TIP3    H236635   3.516   3.131  15.519 -0.3607  1.4646 -2.0236
 5074TIP3   OH236636   0.043   3.615   2.717  0.2971  0.2409 -0.2280
 5074TIP3    H136637   0.105   3.616   2.644  0.3903  1.6015 -0.1389
 5074TIP3    H236638   0.041   3.523   2.746 -1.3934 -0.7718 -3.3364
 5075TIP3   OH236639   0.292   1.270   0.893  0.6771  0.2355 -0.0317
 5075TIP3    H136640   0.320   1.362   0.890  2.1948 -0.1832  1.1237
 5075TIP3    H236641   0.217   1.270   0.953  1.5769  0.4857  1.0923
 5076TIP3   OH236642   6.472   1.849  17.165 -0.6898  0.3056 -0.6589
 5076TIP3    H136643   6.416   1.926  17.157 -0.9508  0.3019  0.8907
 5076TIP3    H236644   6.558   1.883  17.188 -0.6217  0.1852 -0.7339
 5077TIP3   OH236645   6.479   4.760  14.152 -0.6309 -0.6182  0.0569
 5077TIP3    H136646   6.441   4.800  14.230  0.3995 -1.5413  1.0407
 5077TIP3    H236647   6.466   4.666  14.164 -1.0198 -0.7408 -1.1852
 5078TIP3   OH236648   6.058   3.880  12.373 -0.2676  0.0408 -0.6187
 5078TIP3    H136649   6.083   3.872  12.465 -0.8468 -2.4459 -0.6314
 5078TIP3    H236650   6.013   3.964  12.368  0.5341  0.6131  1.1874
 5079TIP3   OH236651   2.165   0.428   2.882  0.2212  0.0570  0.0884
 5079TIP3    H136652   2.214   0.461   2.808  1.6653 -0.4941  0.7726
 5079TIP3    H236653   2.102   0.366   2.845 -0.0078  0.8162 -0.7959
 5080TIP3   OH236654   3.026   2.340  12.931 -0.1653 -0.1262  0.3536
 5080TIP3    H136655   3.062   2.412  12.878 -1.4927 -0.2549 -0.7561
 5080TIP3    H236656   2.973   2.384  12.998 -2.6011 -0.0689 -1.5279
 5081TIP3   OH236657   0.435   4.597  16.465 -0.0481 -0.0704  0.2406
 5081TIP3    H136658   0.521   4.561  16.486  0.5002  0.9473 -0.2614
 5081TIP3    H236659   0.427   4.587  16.370  0.7122  2.4536 -0.0990
 5082TIP3   OH236660   5.994   1.551  12.531  0.6325  0.0201 -0.6192
 5082TIP3    H136661   5.915   1.559  12.477  0.1711 -2.4968 -0.3643
 5082TIP3    H236662   5.966   1.577  12.619  0.7252  1.5046 -1.0075
 5083TIP3   OH236663   2.800   1.750   5.844  0.3113 -0.1576 -0.6756
 5083TIP3    H136664   2.761   1.837   5.841  0.0422 -0.2751 -0.5995
 5083TIP3    H236665   2.733   1.695   5.885  0.5210 -0.3778 -0.6281
 5084TIP3   OH236666   6.360   2.298  11.441  0.7518 -0.5238  0.2129
 5084TIP3    H136667   6.313   2.277  11.360 -0.4698  1.2642  0.4109
 5084TIP3    H236668   6.452   2.280  11.421  0.4603 -0.1964 -1.5407
 5085TIP3   OH236669   0.008   5.642   4.433 -0.3095  0.4194 -0.0974
 5085TIP3    H136670  -0.038   5.594   4.502 -0.7588 -0.0293 -0.7012
 5085TIP3    H236671   0.020   5.578   4.363  1.3497  0.4966  0.0992
 5086TIP3   OH236672   2.885   1.922  15.720  0.3706  0.1554  0.1059
 5086TIP3    H136673   2.792   1.945  15.723  0.6626  1.3224  0.2381
 5086TIP3    H236674   2.920   1.953  15.803  0.8433 -0.4968  0.1558
 5087TIP3   OH236675   6.038   4.176   4.648  0.1769 -0.5692 -0.2459
 5087TIP3    H136676   6.000   4.101   4.695 -0.1423 -0.6361 -0.6021
 5087TIP3    H236677   6.128   4.180   4.678  0.1085 -0.9095  0.0102
 5088TIP3   OH236678   2.841   2.434   0.045  0.1138  0.6958  0.4741
 5088TIP3    H136679   2.840   2.341   0.067  0.2230  0.6064  0.1035
 5088TIP3    H236680   2.931   2.461   0.060  0.0337  0.7864  0.7778
 5089TIP3   OH236681   2.555   0.725   1.482 -0.4891 -0.0609 -0.1176
 5089TIP3    H136682   2.586   0.804   1.437 -0.0520 -0.7389 -1.0201
 5089TIP3    H236683   2.478   0.754   1.530 -1.1006  0.6466 -1.4831
 5090TIP3   OH236684   2.276   4.537   4.451 -0.0207 -0.1874  0.1569
 5090TIP3    H136685   2.189   4.518   4.485  0.0485 -0.0420  0.4086
 5090TIP3    H236686   2.277   4.496   4.364 -0.3235 -0.2245  0.1727
 5091TIP3   OH236687   6.446   0.396  17.133  0.6839  0.1459  0.0094
 5091TIP3    H136688   6.430   0.400  17.227 -0.0007  0.7793 -0.1270
 5091TIP3    H236689   6.540   0.380  17.126  1.1681  2.3691  0.7949
 5092TIP3   OH236690   3.728   1.906   5.870  0.0376  0.0899  0.2556
 5092TIP3    H136691   3.782   1.828   5.857 -0.4219 -0.5748  2.2478
 5092TIP3    H236692   3.700   1.930   5.781  0.1647 -2.0244 -0.3937
 5093TIP3   OH236693   1.364   6.397   1.753 -0.1257  0.6356  0.0710
 5093TIP3    H136694   1.343   6.343   1.677  1.2305  0.8902 -0.5089
 5093TIP3    H236695   1.384   6.334   1.822 -1.2314  0.4019  0.1948
 5094TIP3   OH236696   2.934   2.409   1.147 -0.6283  0.7300  0.0842
 5094TIP3    H136697   3.017   2.383   1.185 -0.0578  1.0350 -0.9184
 5094TIP3    H236698   2.909   2.488   1.195 -0.7888  0.1353  0.9868
 5095TIP3   OH236699   5.176   1.358  13.262  0.5678  0.4406 -0.5193
 5095TIP3    H136700   5.211   1.425  13.203  1.1882 -0.9296 -1.7397
 5095TIP3    H236701   5.166   1.403  13.346  4.4014  1.2002 -0.3460
 5096TIP3   OH236702   3.622   2.001   2.240  0.1645 -0.1504 -0.3482
 5096TIP3    H136703   3.586   1.976   2.325  0.5300  0.3235 -0.0551
 5096TIP3    H236704   3.717   2.004   2.253  0.3170 -1.3511 -1.1127
 5097TIP3   OH236705   2.676   3.811   1.238 -0.1769  0.2536 -0.4349
 5097TIP3    H136706   2.584   3.819   1.264  0.1693  0.4294  0.7708
 5097TIP3    H236707   2.673   3.788   1.145 -1.4087  1.5360 -0.7246
 5098TIP3   OH236708   2.285   5.761  11.544 -0.2855 -0.2147  0.3944
 5098TIP3    H136709   2.226   5.791  11.614  0.1218 -1.0250  1.0999
 5098TIP3    H236710   2.274   5.666  11.544  0.1006 -0.2572 -0.3059
 5099TIP3   OH236711   4.254   6.234  13.926 -0.2599  0.0479 -0.0783
 5099TIP3    H136712   4.241   6.214  14.019 -0.4686 -1.1963 -0.3548
 5099TIP3    H236713   4.167   6.224  13.888  0.0949 -0.8756 -0.6537
 5100TIP3   OH236714   3.733   6.532   5.790 -0.0497 -0.6766 -0.2066
 5100TIP3    H136715   3.678   6.546   5.867  0.0121  0.5835 -0.3836
 5100TIP3    H236716   3.808   6.482   5.823  1.0066  1.6475  0.9934
 5101TIP3   OH236717   1.307   4.941   6.144 -0.4132 -0.1159  0.0312
 5101TIP3    H136718   1.337   4.911   6.058 -2.2389 -0.1884 -0.6046
 5101TIP3    H236719   1.272   5.029   6.128 -0.0439  0.1901  0.8637
 5102TIP3   OH236720   0.046   2.544   1.394  0.1897 -0.8750  0.8680
 5102TIP3    H136721  -0.045   2.541   1.422 -0.1777 -1.5958 -0.3326
 5102TIP3    H236722   0.073   2.635   1.407 -0.9470 -0.4764  0.4726
 5103TIP3   OH236723   6.482   3.152   6.404 -0.2224  0.6346  0.3252
 5103TIP3    H136724   6.388   3.135   6.397 -0.3048  0.9592  0.6394
 5103TIP3    H236725   6.490   3.247   6.405  0.2669  0.6356 -1.6953
 5104TIP3   OH236726   6.039   3.503   4.004 -0.1056  0.2430 -0.5347
 5104TIP3    H136727   5.997   3.572   3.952 -0.9782 -0.6861 -1.0876
 5104TIP3    H236728   5.982   3.492   4.080  0.0927  0.2020 -0.3902
 5105TIP3   OH236729   4.232   4.560  14.425  0.5222  0.0850 -0.6451
 5105TIP3    H136730   4.191   4.483  14.384 -0.6607 -0.6525  1.8014
 5105TIP3    H236731   4.320   4.531  14.448  0.0472 -0.6105  0.3567
 5106TIP3   OH236732   3.233   0.804  16.818  0.2410  0.3427 -0.2293
 5106TIP3    H136733   3.262   0.875  16.760  0.2541 -0.3283 -1.0547
 5106TIP3    H236734   3.186   0.849  16.889 -1.8336  1.0165 -1.9782
 5107TIP3   OH236735   3.140   1.473   4.227 -0.5642  0.3737  0.1349
 5107TIP3    H136736   3.100   1.559   4.214 -0.1635  0.6300  0.6243
 5107TIP3    H236737   3.220   1.490   4.276 -0.4012 -0.2608  0.0940
 5108TIP3   OH236738   2.145   6.513  11.946 -0.2809 -0.0235 -0.4286
 5108TIP3    H136739   2.104   6.595  11.921  0.4987  0.5239  0.0693
 5108TIP3    H236740   2.105   6.447  11.889 -1.8139  0.5053  0.0294
 5109TIP3   OH236741   6.714   5.114   2.764 -0.2566  0.0289 -0.2967
 5109TIP3    H136742   6.784   5.081   2.708 -0.7183  0.1327 -0.9469
 5109TIP3    H236743   6.650   5.043   2.766  0.2259 -0.3763  0.9434
 5110TIP3   OH236744   1.546   5.068  15.110  0.3868  1.1292 -0.3310
 5110TIP3    H136745   1.555   5.007  15.183  0.7763 -0.2690 -1.5043
 5110TIP3    H236746   1.563   5.154  15.147 -2.4459  0.8125  1.8669
 5111TIP3   OH236747   6.279   3.457  16.811  0.0057 -0.4565  0.3966
 5111TIP3    H136748   6.267   3.403  16.889  2.4279  0.5943  1.5827
 5111TIP3    H236749   6.356   3.419  16.768  1.0006  1.2571  0.6089
 5112TIP3   OH236750   0.269   4.079  15.779 -0.0368 -0.0521  0.5032
 5112TIP3    H136751   0.245   4.036  15.697 -1.5386  0.8112  0.4828
 5112TIP3    H236752   0.365   4.079  15.779 -0.0320 -0.3629 -1.0746
 5113TIP3   OH236753   4.742   4.731   0.589 -0.0781  0.1579  0.3707
 5113TIP3    H136754   4.659   4.701   0.552  0.0721 -1.0458  0.9751
 5113TIP3    H236755   4.723   4.816   0.627 -0.8005  0.3302 -0.3719
 5114TIP3   OH236756   0.200   5.482   4.611 -0.3823  0.3003  0.1784
 5114TIP3    H136757   0.210   5.574   4.587 -2.8234  1.1062  1.9858
 5114TIP3    H236758   0.259   5.471   4.686  1.7531 -0.3068 -1.5300
 5115TIP3   OH236759   3.693   0.568  12.919 -0.4286  0.0139 -0.0968
 5115TIP3    H136760   3.788   0.570  12.907 -0.7063  0.6792 -2.5626
 5115TIP3    H236761   3.677   0.624  12.995  1.0630  0.8373 -0.3789
 5116TIP3   OH236762   3.129   0.773   4.005 -0.6661 -0.4321  0.6108
 5116TIP3    H136763   3.093   0.685   4.014  2.7719 -1.6999  3.1362
 5116TIP3    H236764   3.188   0.767   3.930 -1.9567  0.3162 -0.4854
 5117TIP3   OH236765   3.873   1.965  12.904 -0.0508 -0.6560 -0.0325
 5117TIP3    H136766   3.865   1.987  12.997  0.6413  0.2511 -0.1797
 5117TIP3    H236767   3.929   1.888  12.902  0.2352 -0.4571  0.2814
 5118TIP3   OH236768   3.755   2.500   1.280  0.4934 -0.6132 -0.8106
 5118TIP3    H136769   3.831   2.446   1.302  0.4695 -0.3687 -0.1332
 5118TIP3    H236770   3.681   2.456   1.321  0.3966 -0.3576 -0.7106
 5119TIP3   OH236771   5.903   5.841  16.230 -0.1570 -0.1656 -0.0108
 5119TIP3    H136772   5.820   5.867  16.192  1.1080  1.7661 -1.5856
 5119TIP3    H236773   5.915   5.750  16.204 -1.1835 -0.0673 -0.8288
 5120TIP3   OH236774   2.145   5.163   5.854  0.3862  0.6742  0.3819
 5120TIP3    H136775   2.145   5.114   5.772  1.7342  1.1584  0.0942
 5120TIP3    H236776   2.053   5.164   5.881 -0.2124  1.3337 -1.6171
 5121TIP3   OH236777   3.535   2.978  12.317 -0.4803  0.5452  0.4111
 5121TIP3    H136778   3.535   2.907  12.253 -1.7443 -0.5226  1.5443
 5121TIP3    H236779   3.626   2.987  12.344 -0.0748  0.4438 -0.9198
 5122TIP3   OH236780   3.281   6.453  12.916  0.3712 -0.3498  0.6080
 5122TIP3    H136781   3.273   6.528  12.857  2.1118  0.4200  1.3226
 5122TIP3    H236782   3.348   6.398  12.875  0.1167 -0.8238  0.8241
 5123TIP3   OH236783   3.356   1.159  10.402  0.0854  0.3764  0.0058
 5123TIP3    H136784   3.411   1.180  10.477  0.6436  1.4452 -0.6772
 5123TIP3    H236785   3.387   1.073  10.373 -0.1061 -0.0202  0.9604
 5124TIP3   OH236786   3.832   4.434   2.140  0.0785 -0.1925  0.5880
 5124TIP3    H136787   3.900   4.410   2.077  0.8949  0.1858  1.3108
 5124TIP3    H236788   3.771   4.488   2.091  0.4793 -0.2592  0.0157
 5125TIP3   OH236789   6.728   2.649   4.937 -0.3303 -0.3089  0.4023
 5125TIP3    H136790   6.670   2.604   4.999  0.0902  0.3086  1.2487
 5125TIP3    H236791   6.799   2.683   4.992  0.2272 -0.0649 -0.4729
 5126TIP3   OH236792   6.691   6.042  13.000 -0.0372  0.1916 -0.0740
 5126TIP3    H136793   6.648   6.069  12.919  0.2844 -0.0467 -0.3268
 5126TIP3    H236794   6.619   6.023  13.060 -0.2638  1.6099  0.1192
 5127TIP3   OH236795   5.896   4.079   3.229 -0.3263 -0.2460  0.5598
 5127TIP3    H136796   5.981   4.090   3.187  0.0329 -0.3665  1.2403
 5127TIP3    H236797   5.860   3.999   3.190 -1.1481  1.0652 -1.4023
 5128TIP3   OH236798   6.108   2.220   1.966 -0.4245 -0.2217 -0.3723
 5128TIP3    H136799   6.043   2.169   2.014 -0.6879 -0.1892 -0.6957
 5128TIP3    H236800   6.191   2.178   1.988 -0.2451  1.3789  2.1996
 5129TIP3   OH236801   3.585   1.357   1.649 -0.0095  0.0318  0.3739
 5129TIP3    H136802   3.622   1.423   1.591  0.1509 -1.7956 -1.6718
 5129TIP3    H236803   3.642   1.281   1.638 -1.6100 -1.2656  0.7727
 5130TIP3   OH236804   4.147   2.625   3.055  0.8045 -0.0787 -0.5150
 5130TIP3    H136805   4.211   2.573   3.005  1.9914  2.5465 -1.8442
 5130TIP3    H236806   4.152   2.712   3.016 -3.1703  0.3714 -0.2048
 5131TIP3   OH236807   4.758   5.286  11.911  0.2181 -0.7223 -0.3064
 5131TIP3    H136808   4.751   5.372  11.869  1.8800 -0.2699  0.3131
 5131TIP3    H236809   4.672   5.246  11.899 -0.2744  0.6532 -1.4221
 5132TIP3   OH236810   6.519   4.216   3.303  0.4006 -1.0337 -0.0319
 5132TIP3    H136811   6.473   4.161   3.367 -0.5614  0.4330  0.5895
 5132TIP3    H236812   6.505   4.173   3.219  0.6895 -2.3720  0.5982
 5133TIP3   OH236813   2.018   4.026  15.980 -0.6707  0.2059  0.8594
 5133TIP3    H136814   1.997   4.088  16.049  0.7715  1.1657  0.4611
 5133TIP3    H236815   2.079   4.073  15.924  1.8563 -2.1347  1.5298
 5134TIP3   OH236816   4.922   2.570   5.698 -0.2574  0.0551  0.0308
 5134TIP3    H136817   4.981   2.577   5.773 -1.2467  1.0700  0.7197
 5134TIP3    H236818   4.956   2.495   5.648  1.0573  0.0523  0.8995
 5135TIP3   OH236819   1.706   4.216   2.670 -0.1823  0.2694  0.0463
 5135TIP3    H136820   1.673   4.167   2.745 -0.2834  2.4368  1.4393
 5135TIP3    H236821   1.631   4.269   2.641 -0.3432 -1.0186 -2.0139
 5136TIP3   OH236822   0.322   1.628   1.444  0.7283  0.0926  1.0120
 5136TIP3    H136823   0.232   1.634   1.475  0.8440  1.7476  1.0335
 5136TIP3    H236824   0.345   1.716   1.416  1.8981 -0.5823 -0.2648
 5137TIP3   OH236825   0.955   4.984  16.589  0.6242 -0.7853 -0.2209
 5137TIP3    H136826   0.867   5.020  16.587  0.3232 -1.3209  2.1876
 5137TIP3    H236827   0.945   4.896  16.627  2.1675 -0.9100 -0.0498
 5138TIP3   OH236828   5.254   5.794  13.338  0.8259  0.1498 -0.1092
 5138TIP3    H136829   5.276   5.848  13.263  0.4785  0.4181 -0.0160
 5138TIP3    H236830   5.292   5.708  13.318 -0.8384 -0.3101 -1.4397
 5139TIP3   OH236831   1.825   2.119   1.442 -0.2500  0.3601  0.0087
 5139TIP3    H136832   1.864   2.171   1.513 -0.9232 -0.3055  0.8730
 5139TIP3    H236833   1.746   2.168   1.417 -0.3270  0.2867  0.1109
 5140TIP3   OH236834   2.906   4.943  13.600 -0.5352 -0.3316  0.2341
 5140TIP3    H136835   2.824   4.982  13.571  0.4275  1.6137  0.0657
 5140TIP3    H236836   2.914   4.969  13.692  0.9339  1.2930 -0.3462
 5141TIP3   OH236837   2.870   2.645   3.507  0.2451  0.6811 -0.0348
 5141TIP3    H136838   2.838   2.693   3.584  0.4517  0.5612  0.1255
 5141TIP3    H236839   2.931   2.705   3.464 -2.0527  1.9009 -1.7289
 5142TIP3   OH236840   2.342   3.798  14.558  0.2789 -0.1491 -0.1296
 5142TIP3    H136841   2.331   3.713  14.601  1.7990 -0.9707 -1.3118
 5142TIP3    H236842   2.286   3.793  14.480  0.4989 -0.1498 -0.2900
 5143TIP3   OH236843   3.391   5.385   5.678 -0.5723 -0.0703 -0.0114
 5143TIP3    H136844   3.384   5.479   5.692 -0.5523 -0.0339 -0.2495
 5143TIP3    H236845   3.319   5.347   5.729 -1.0941  0.1335 -0.5947
 5144TIP3   OH236846   0.292   4.078   4.400 -0.4210  0.4655  0.3499
 5144TIP3    H136847   0.381   4.049   4.421  1.3246  5.1279 -0.0083
 5144TIP3    H236848   0.286   4.073   4.305 -0.7210 -0.3655  0.4146
 5145TIP3   OH236849   1.037   0.360  16.630 -0.7689 -0.3719 -0.8726
 5145TIP3    H136850   1.126   0.349  16.595 -0.6127  1.5710 -1.1870
 5145TIP3    H236851   1.012   0.449  16.603 -1.5795  0.2938  1.8983
 5146TIP3   OH236852   0.657   2.412  16.564  0.1306 -0.2355 -0.4301
 5146TIP3    H136853   0.595   2.390  16.634 -0.1532  3.0118  0.4205
 5146TIP3    H236854   0.603   2.447  16.494  0.7796  0.1676 -0.7296
 5147TIP3   OH236855   4.476   3.660  13.213  0.4797 -0.0109  0.1389
 5147TIP3    H136856   4.541   3.725  13.238  3.2481 -2.1480 -1.3034
 5147TIP3    H236857   4.522   3.576  13.219 -1.8902 -1.5169 -1.7213
 5148TIP3   OH236858   6.336   0.643  13.977  0.2708 -0.0311 -1.1091
 5148TIP3    H136859   6.277   0.717  13.996  0.2860 -0.0574 -0.9587
 5148TIP3    H236860   6.423   0.678  13.992  0.3531  0.3473 -2.4658
 5149TIP3   OH236861   0.445   4.820   0.063 -0.1284  0.0367  0.3756
 5149TIP3    H136862   0.488   4.899   0.096  0.1148  0.1114 -0.1129
 5149TIP3    H236863   0.352   4.835   0.079  0.0526 -0.3163  1.8534
 5150TIP3   OH236864   1.180   1.393   1.654 -0.2367 -0.3271 -0.2593
 5150TIP3    H136865   1.209   1.321   1.712 -0.9018  0.3312  0.9075
 5150TIP3    H236866   1.219   1.372   1.569 -2.0288 -3.1172 -0.4463
 5151TIP3   OH236867   3.099   4.944  11.846 -0.4540 -0.0885  0.2253
 5151TIP3    H136868   3.037   4.953  11.919 -1.3892  1.8656 -0.7436
 5151TIP3    H236869   3.154   5.022  11.853 -1.5964  0.9711 -2.0693
 5152TIP3   OH236870   0.807   6.337   4.525 -0.0586 -0.2702  0.1309
 5152TIP3    H136871   0.824   6.249   4.489 -0.2099  0.0126 -0.6478
 5152TIP3    H236872   0.876   6.350   4.591 -0.4903 -1.2732  0.7899
 5153TIP3   OH236873   3.711   0.276   3.765 -0.3296  0.7620 -0.4847
 5153TIP3    H136874   3.682   0.326   3.840 -3.8340  3.1624 -3.2762
 5153TIP3    H236875   3.746   0.341   3.704  2.6279 -1.1417 -0.9761
 5154TIP3   OH236876   4.532   1.773   5.838  0.6704 -0.3470  0.5419
 5154TIP3    H136877   4.590   1.833   5.791  1.7777 -0.9799  1.0894
 5154TIP3    H236878   4.444   1.804   5.817  1.1478 -0.2783 -1.5228
 5155TIP3   OH236879   6.584   4.785  11.475 -0.4306  0.0712 -0.8730
 5155TIP3    H136880   6.668   4.817  11.444 -0.4287  1.3853  0.4274
 5155TIP3    H236881   6.606   4.723  11.545 -0.5696  2.8277  1.6891
 5156TIP3   OH236882   0.893   5.681  11.902 -0.1853 -0.3231 -0.6335
 5156TIP3    H136883   0.838   5.602  11.896 -0.6747 -0.0504  0.1037
 5156TIP3    H236884   0.973   5.651  11.945 -0.9135 -0.1633  0.8728
 5157TIP3   OH236885   0.421   6.262   1.295 -0.4839 -0.1155 -0.0569
 5157TIP3    H136886   0.360   6.332   1.317 -0.9740 -0.3652 -0.6143
 5157TIP3    H236887   0.378   6.214   1.225  1.1580  0.8064 -1.7162
 5158TIP3   OH236888   4.983   3.162  14.461  0.3220  0.2786 -0.8096
 5158TIP3    H136889   5.077   3.173  14.443 -0.1598  3.6278 -1.5594
 5158TIP3    H236890   4.949   3.119  14.383  1.0139  0.2873 -1.1268
 5159TIP3   OH236891   0.933   2.552   4.911  0.2821 -0.0596 -0.2532
 5159TIP3    H136892   0.903   2.627   4.962  4.0491 -0.0775  2.2004
 5159TIP3    H236893   0.912   2.476   4.965 -0.9498 -0.5913 -1.4438
 5160TIP3   OH236894   0.435   2.065   0.284 -0.0864  0.2501 -0.9252
 5160TIP3    H136895   0.353   2.080   0.331  0.4563  1.8843 -0.4674
 5160TIP3    H236896   0.410   2.069   0.192 -0.3968  1.7032 -0.8031
 5161TIP3   OH236897   3.222   2.342   4.918  0.0767 -0.3380  0.1969
 5161TIP3    H136898   3.188   2.393   4.992  0.6521 -0.9569  0.8956
 5161TIP3    H236899   3.181   2.256   4.928  0.8842 -0.7046  0.3329
 5162TIP3   OH236900   4.297   5.229   2.588  0.4853 -0.3351  0.0351
 5162TIP3    H136901   4.333   5.274   2.512 -1.2932 -1.4310 -1.5040
 5162TIP3    H236902   4.240   5.293   2.630  2.2148  0.5854  1.0318
 5163TIP3   OH236903   4.674   4.605  16.071  0.1337  0.1169 -0.3957
 5163TIP3    H136904   4.609   4.535  16.061  0.0877  0.5183 -3.2372
 5163TIP3    H236905   4.756   4.559  16.090 -0.4043 -0.5473  0.3590
 5164TIP3   OH236906   1.483   4.734  16.795  0.7025 -0.1580  0.2588
 5164TIP3    H136907   1.569   4.691  16.802  0.5854  0.1140  4.2530
 5164TIP3    H236908   1.425   4.665  16.763  1.5170 -1.6395  1.8642
 5165TIP3   OH236909   2.516   0.749   3.669 -0.1806  0.1727  0.3774
 5165TIP3    H136910   2.476   0.812   3.728  0.1484  0.2112  0.5610
 5165TIP3    H236911   2.475   0.766   3.584 -1.5070 -0.6616  0.8411
 5166TIP3   OH236912   5.958   2.170  12.361 -0.2790  0.0450 -0.4824
 5166TIP3    H136913   5.902   2.107  12.316 -0.7437  1.0012 -1.2683
 5166TIP3    H236914   5.901   2.245  12.378 -0.0362 -0.2075  1.4767
 5167TIP3   OH236915   5.786   1.803  12.598  0.8103 -0.1406 -0.3602
 5167TIP3    H136916   5.832   1.764  12.673  0.1359 -1.4351 -0.5924
 5167TIP3    H236917   5.852   1.810  12.530  1.3461  0.7115  0.2288
 5168TIP3   OH236918   1.226   0.988  15.811 -0.7640 -0.4155  0.3967
 5168TIP3    H136919   1.300   0.942  15.771 -0.1714  0.0677  0.9291
 5168TIP3    H236920   1.256   1.079  15.817 -1.4387 -0.2064  0.5370
 5169TIP3   OH236921   1.536   6.185   5.415  0.0541  0.0708  0.3533
 5169TIP3    H136922   1.557   6.197   5.323 -2.0061 -1.4902 -0.3683
 5169TIP3    H236923   1.547   6.091   5.430 -1.6221 -0.0257  1.1315
 5170TIP3   OH236924   4.586   1.493  16.902  0.0212 -0.5771  0.3075
 5170TIP3    H136925   4.543   1.463  16.822 -0.4873 -0.7255  0.6357
 5170TIP3    H236926   4.680   1.482  16.884 -0.0868 -0.5708 -0.2802
 5171TIP3   OH236927   3.078   2.590  15.480 -0.2019  0.0922  0.3601
 5171TIP3    H136928   3.105   2.672  15.438 -0.1140 -1.4537 -2.7973
 5171TIP3    H236929   3.049   2.616  15.567 -0.6640  3.5550 -0.7293
 5172TIP3   OH236930   6.168   2.832   5.565 -0.2312  0.4393  0.1086
 5172TIP3    H136931   6.082   2.791   5.574 -0.0024 -0.1937 -0.5608
 5172TIP3    H236932   6.198   2.843   5.656  0.3220 -2.2391  0.3083
 5173TIP3   OH236933   4.687   2.060  11.296 -0.2370 -0.4899  0.4899
 5173TIP3    H136934   4.633   2.060  11.216 -0.4199 -0.3959  0.6140
 5173TIP3    H236935   4.701   1.967  11.315 -0.5669 -0.5180  0.5995
 5174TIP3   OH236936   6.574   4.107  15.851 -0.5516  0.0595 -0.2025
 5174TIP3    H136937   6.663   4.077  15.831 -0.4664 -0.5992  1.1095
 5174TIP3    H236938   6.574   4.119  15.946 -2.0180 -0.4169 -0.1398
 5175TIP3   OH236939   1.247   5.216  11.508  0.0412  0.7173 -0.4961
 5175TIP3    H136940   1.260   5.201  11.415 -1.3341  1.1631 -0.7794
 5175TIP3    H236941   1.156   5.190  11.524 -0.4714  2.8519  0.2349
 5176TIP3   OH236942   1.286   5.715   6.417  0.5399 -0.0391 -0.1208
 5176TIP3    H136943   1.310   5.719   6.510 -1.0654  1.4256  0.2507
 5176TIP3    H236944   1.192   5.696   6.417  0.2841  1.1581 -1.4242
 5177TIP3   OH236945   1.333   5.206  13.130 -0.3004 -0.6191 -0.2240
 5177TIP3    H136946   1.413   5.160  13.156  0.3301  0.3446 -0.4399
 5177TIP3    H236947   1.363   5.276  13.072 -1.6166 -2.3425 -3.1129
 5178TIP3   OH236948   2.099   4.324   0.758 -0.3447 -0.2322 -0.4074
 5178TIP3    H136949   2.061   4.353   0.675 -2.6172  0.7600  0.9445
 5178TIP3    H236950   2.092   4.400   0.816  1.4624 -0.8310  0.6344
 5179TIP3   OH236951   5.177   5.676   5.233 -0.0043  0.5293 -0.1956
 5179TIP3    H136952   5.220   5.760   5.214 -0.7370  1.6715  2.8864
 5179TIP3    H236953   5.241   5.610   5.206  0.7258  2.0613 -2.3382
 5180TIP3   OH236954   6.748   2.770  16.940 -0.6864 -0.2896  0.6052
 5180TIP3    H136955   6.749   2.678  16.916  2.2801  0.4732 -2.5690
 5180TIP3    H236956   6.699   2.813  16.870  0.7884  0.9419  0.3033
 5181TIP3   OH236957   2.861   1.939  14.117  0.1415 -0.4457  0.1169
 5181TIP3    H136958   2.814   1.946  14.034 -0.3106 -0.5400  0.3637
 5181TIP3    H236959   2.875   1.845  14.129 -0.9088 -0.5376  0.7603
 5182TIP3   OH236960   2.315   0.657  12.869 -0.2677 -0.8175  0.1359
 5182TIP3    H136961   2.272   0.682  12.950 -1.9867  0.2644 -1.0930
 5182TIP3    H236962   2.372   0.584  12.894 -0.4985 -0.2734  2.3636
 5183TIP3   OH236963   1.169   1.550  14.419 -0.4050  0.0732  0.5456
 5183TIP3    H136964   1.214   1.634  14.416  0.4640 -0.3443  1.4202
 5183TIP3    H236965   1.171   1.525  14.512  1.4900 -2.0305 -0.0039
 5184TIP3   OH236966   1.562   6.591   0.204  0.1765  0.2318 -0.2557
 5184TIP3    H136967   1.565   6.540   0.123  2.3292  1.8454 -1.2227
 5184TIP3    H236968   1.629   6.658   0.193  1.0471 -0.0001  3.2063
 5185TIP3   OH236969   6.499   3.694  16.567 -0.3623 -0.4954 -0.0674
 5185TIP3    H136970   6.489   3.611  16.614  0.3143  0.2401  1.4108
 5185TIP3    H236971   6.530   3.669  16.480  0.4722 -1.7421  0.5783
 5186TIP3   OH236972   6.513   1.050   2.242  0.1244  0.6577 -0.2325
 5186TIP3    H136973   6.452   1.115   2.277  0.8785  1.3385 -0.1686
 5186TIP3    H236974   6.491   1.045   2.149  0.7675  1.7981 -0.4560
 5187TIP3   OH236975   6.697   5.536   0.507  0.3138 -0.0544  0.0529
 5187TIP3    H136976   6.735   5.455   0.472 -0.3146 -1.2250  2.0202
 5187TIP3    H236977   6.604   5.530   0.489  0.4092  0.7586 -0.7748
 5188TIP3   OH236978   1.405   0.089   3.358 -0.2651 -0.7528  0.3428
 5188TIP3    H136979   1.407   0.132   3.272 -1.7773 -0.5720  0.3816
 5188TIP3    H236980   1.360   0.006   3.342 -0.0025 -0.9950  0.8462
 5189TIP3   OH236981   6.742   2.990  11.370  0.3416  0.2284  0.1639
 5189TIP3    H136982   6.738   3.071  11.319 -0.5273 -0.8119 -1.4504
 5189TIP3    H236983   6.666   2.994  11.428  0.6656  0.8630  0.5476
 5190TIP3   OH236984   4.197   1.344   4.111 -0.0749 -0.0732 -0.0597
 5190TIP3    H136985   4.102   1.352   4.113  0.0899  1.9271  1.6356
 5190TIP3    H236986   4.215   1.256   4.143 -1.3466 -0.5260 -0.5692
 5191TIP3   OH236987   3.759   2.978   3.694  0.1639 -0.2381  0.2935
 5191TIP3    H136988   3.713   2.985   3.778  0.0398 -0.5570  0.2523
 5191TIP3    H236989   3.843   3.021   3.710  0.1326 -0.2771  0.5744
 5192TIP3   OH236990   2.654   3.436   5.647 -0.2326 -0.0611 -0.1317
 5192TIP3    H136991   2.691   3.504   5.591  0.2018 -1.9325 -2.2357
 5192TIP3    H236992   2.673   3.354   5.600 -3.0193 -1.4397  1.0192
 5193TIP3   OH236993   6.227   0.617  16.056 -0.3707 -0.2362 -0.8561
 5193TIP3    H136994   6.282   0.677  16.106 -1.0715 -0.5746  0.3616
 5193TIP3    H236995   6.226   0.652  15.968  1.0523  0.2791 -0.6782
 5194TIP3   OH236996   3.624   1.473   3.186  0.5194  0.1505 -0.1497
 5194TIP3    H136997   3.604   1.465   3.280  0.4349  0.8980 -0.1003
 5194TIP3    H236998   3.550   1.522   3.151  0.6982  0.1255 -0.5561
 5195TIP3   OH236999   5.417   2.894  15.948  0.2084 -0.1275 -0.0819
 5195TIP3    H137000   5.388   2.894  16.039  0.6202 -1.6655  0.0751
 5195TIP3    H237001   5.512   2.877  15.953 -0.1663 -2.7218 -0.8596
 5196TIP3   OH237002   0.660   3.584   4.944 -0.1640  0.0788 -0.4938
 5196TIP3    H137003   0.570   3.616   4.949 -0.0310  0.1933  1.7161
 5196TIP3    H237004   0.701   3.613   5.026  2.1232  0.7132 -1.8050
 5197TIP3   OH237005   6.320   0.384  13.311 -0.2895 -0.8955 -0.6437
 5197TIP3    H137006   6.316   0.453  13.245  0.5182  2.0385  2.2753
 5197TIP3    H237007   6.410   0.388  13.344 -1.4604 -0.3679  2.6192
 5198TIP3   OH237008   0.852   4.051   6.595 -0.3409  0.0661  0.4003
 5198TIP3    H137009   0.857   3.959   6.566  0.3713  0.2761 -0.1875
 5198TIP3    H237010   0.848   4.101   6.513 -3.9511  0.4290  0.7296
 5199TIP3   OH237011   3.216   5.437  13.151  0.1872 -0.5023 -1.1581
 5199TIP3    H137012   3.207   5.342  13.136  1.9126 -0.8959  0.1167
 5199TIP3    H237013   3.290   5.463  13.097  1.6382 -0.4929  0.7612
 5200TIP3   OH237014   5.106   2.599   2.752  0.4429  0.1866  0.3798
 5200TIP3    H137015   5.129   2.513   2.786  2.4780  0.7737  0.5336
 5200TIP3    H237016   5.105   2.587   2.657 -1.2161 -0.4576  0.4574
 5201TIP3   OH237017   5.248   6.337  16.398 -0.1599 -0.0300  0.3684
 5201TIP3    H137018   5.265   6.429  16.379 -0.4201 -0.1193 -0.3306
 5201TIP3    H237019   5.274   6.291  16.317 -0.7102 -0.4927  0.4510
 5202TIP3   OH237020   1.850   5.032  12.780 -0.2640 -0.3515 -0.3565
 5202TIP3    H137021   1.858   5.112  12.833 -0.3574  0.4899 -1.5889
 5202TIP3    H237022   1.879   4.962  12.838  0.4948  0.6646  0.5100
 5203TIP3   OH237023   6.108   0.043   2.637 -0.0778 -0.2096 -0.2946
 5203TIP3    H137024   6.143   0.128   2.664  0.1717 -0.1619 -0.7812
 5203TIP3    H237025   6.138   0.031   2.547 -1.0010 -0.3307 -0.5938
 5204TIP3   OH237026   0.344   6.154   6.430 -0.4903 -0.5988 -0.1022
 5204TIP3    H137027   0.330   6.161   6.524 -1.0566  0.7357 -0.2646
 5204TIP3    H237028   0.435   6.124   6.421 -0.8765 -2.1164  0.8707
 5205TIP3   OH237029   5.146   6.287   1.973 -0.9064  0.1213  0.0380
 5205TIP3    H137030   5.196   6.239   1.907 -0.4653  1.3210 -0.5083
 5205TIP3    H237031   5.213   6.325   2.030 -1.1953  1.3705 -0.4403
 5206TIP3   OH237032   4.994   1.185   3.489 -0.5450  0.3357  0.2761
 5206TIP3    H137033   5.072   1.166   3.542 -0.6467 -1.7481 -0.2630
 5206TIP3    H237034   5.020   1.258   3.433  1.3820 -0.9322 -0.5583
 5207TIP3   OH237035   1.303   3.631  12.799  0.3230  0.3422  0.3876
 5207TIP3    H137036   1.223   3.632  12.851  0.4445  1.5212  0.5750
 5207TIP3    H237037   1.300   3.712  12.748  0.7543 -0.2528 -0.6038
 5208TIP3   OH237038   4.253   0.943  11.069 -0.7436  0.8225 -0.0879
 5208TIP3    H137039   4.225   1.030  11.041 -1.5056  0.1632 -1.4462
 5208TIP3    H237040   4.347   0.941  11.052 -0.7324  1.3426 -0.1133
 5209TIP3   OH237041   1.292   0.824  11.579 -0.1273 -0.1294 -0.4928
 5209TIP3    H137042   1.260   0.748  11.628 -0.5134  0.4405  0.1504
 5209TIP3    H237043   1.375   0.846  11.620 -0.3796  0.2580 -0.1878
 5210TIP3   OH237044   3.171   6.293  10.866  0.3820 -0.0661 -0.3044
 5210TIP3    H137045   3.190   6.205  10.896 -1.4105  0.4924  2.5913
 5210TIP3    H237046   3.196   6.350  10.939 -2.3704  1.4861 -0.5082
 5211TIP3   OH237047   4.928   6.205  14.714 -0.2859 -0.0717 -0.3391
 5211TIP3    H137048   4.910   6.143  14.643  0.1601  1.4549 -1.8165
 5211TIP3    H237049   4.979   6.154  14.778 -0.4743 -1.3933 -1.2178
 5212TIP3   OH237050   3.913   0.577   0.261 -0.4982  0.1223  0.0754
 5212TIP3    H137051   3.863   0.650   0.298  0.2193  0.6118  0.0748
 5212TIP3    H237052   3.880   0.500   0.308  1.3178  0.8965  2.7022
 5213TIP3   OH237053   3.698   0.335   2.442 -0.0258 -0.2520 -0.4946
 5213TIP3    H137054   3.640   0.391   2.391  0.9855  1.2090 -0.0818
 5213TIP3    H237055   3.755   0.396   2.490  1.3502 -1.6239 -0.3124
 5214TIP3   OH237056   6.305   3.316  17.087 -0.1875 -0.1868  0.1330
 5214TIP3    H137057   6.376   3.253  17.088  1.2527  1.3769 -0.5171
 5214TIP3    H237058   6.323   3.375  17.161 -2.4622 -1.5068  1.8090
 5215TIP3   OH237059   2.439   5.470   5.935  0.0145 -0.1994 -0.3348
 5215TIP3    H137060   2.502   5.540   5.919  1.1588 -0.7688  1.5768
 5215TIP3    H237061   2.449   5.449   6.028 -1.4937 -1.7636 -0.4968
 5216TIP3   OH237062   2.984   4.173  13.744  0.4010 -0.1454 -0.3107
 5216TIP3    H137063   3.048   4.243  13.751  1.1304 -0.7180 -1.1807
 5216TIP3    H237064   2.899   4.217  13.753  0.9035  0.6442  0.5701
 5217TIP3   OH237065   3.944   3.826  16.759 -0.7651  0.1446 -0.5605
 5217TIP3    H137066   3.913   3.857  16.674 -1.6665 -1.3023 -0.7896
 5217TIP3    H237067   3.873   3.848  16.820 -0.8007 -0.2013 -0.4747
 5218TIP3   OH237068   1.355   0.864  14.405 -0.4927 -0.1929 -0.2957
 5218TIP3    H137069   1.415   0.882  14.332  0.0404 -1.0033 -0.0628
 5218TIP3    H237070   1.269   0.859  14.364 -0.6286  2.4540 -0.4323
 5219TIP3   OH237071   0.337   5.237  15.221 -0.0022 -0.7821  0.6079
 5219TIP3    H137072   0.241   5.242  15.217  0.1454  3.0142  0.3438
 5219TIP3    H237073   0.354   5.173  15.290 -2.7326 -1.6240  0.5570
 5220TIP3   OH237074   5.926   5.288  14.085  0.2373 -0.0807  0.0964
 5220TIP3    H137075   6.013   5.265  14.118  0.9775  0.8131 -1.1695
 5220TIP3    H237076   5.905   5.371  14.127 -0.6336 -0.9834  1.4847
 5221TIP3   OH237077   1.983   6.628  12.906  0.3098 -0.3037  0.1266
 5221TIP3    H137078   1.932   6.599  12.831  1.0672 -1.2504 -0.0253
 5221TIP3    H237079   1.982   6.723  12.901 -1.2517 -0.3147 -0.0017
 5222TIP3   OH237080   0.030   5.890   5.617 -0.2689  0.3391  0.2906
 5222TIP3    H137081   0.115   5.935   5.619  0.7623 -1.5720  0.7246
 5222TIP3    H237082   0.038   5.822   5.684 -2.9568  1.5172  1.9033
 5223TIP3   OH237083   1.470   3.827  13.082 -0.2542 -0.0792  0.3260
 5223TIP3    H137084   1.562   3.839  13.106  0.4986 -0.0030 -2.4074
 5223TIP3    H237085   1.421   3.875  13.149  1.8817  3.2474 -0.3406
 5224TIP3   OH237086   2.850   5.879  12.985  0.4244  0.3182 -0.5185
 5224TIP3    H137087   2.847   5.869  12.890 -2.1667 -0.3345 -0.4134
 5224TIP3    H237088   2.797   5.957  13.003 -0.2718 -0.3681  0.4727
 5225TIP3   OH237089   0.298   1.157  11.758 -0.0756 -0.1975  0.6506
 5225TIP3    H137090   0.299   1.084  11.696  0.5569  0.6683 -0.3641
 5225TIP3    H237091   0.297   1.235  11.703 -1.4487  0.5593  1.7354
 5226TIP3   OH237092   6.696   5.436  13.722  0.1396  0.2673  0.0446
 5226TIP3    H137093   6.726   5.351  13.755  1.6616 -0.2588 -2.5006
 5226TIP3    H237094   6.601   5.435  13.735  0.6282  0.0074  3.9723
 5227TIP3   OH237095   3.054   0.605   0.722 -0.2138  0.3714 -0.0157
 5227TIP3    H137096   3.106   0.677   0.759  1.8417 -1.3775  0.5944
 5227TIP3    H237097   2.963   0.629   0.741  0.3100  3.6900 -1.4659
 5228TIP3   OH237098   3.381   2.052   1.819 -0.4171  0.3451 -0.0839
 5228TIP3    H137099   3.323   2.116   1.859 -1.5663  0.4807 -1.8954
 5228TIP3    H237100   3.327   2.008   1.753  0.8789 -1.1795 -0.1732
 5229TIP3   OH237101   5.303   2.141  15.287 -0.2317 -0.4054 -0.1178
 5229TIP3    H137102   5.352   2.213  15.328  0.4748 -0.7586 -0.3264
 5229TIP3    H237103   5.228   2.127  15.344 -0.0656  0.1153  0.2316
 5230TIP3   OH237104   6.079   3.813   2.973  0.5535  0.1957  0.4636
 5230TIP3    H137105   5.996   3.766   2.987  0.6611  0.2788  1.4406
 5230TIP3    H237106   6.054   3.906   2.974  0.4548  0.1884 -0.6823
 5231TIP3   OH237107   4.801   1.782   0.254  0.2296  0.0043 -0.2685
 5231TIP3    H137108   4.717   1.811   0.288  0.4344 -1.4776  1.6023
 5231TIP3    H237109   4.781   1.737   0.172 -0.4460  2.2526 -1.3762
 5232TIP3   OH237110   0.916   4.684   2.545  0.1172 -0.1478 -0.1272
 5232TIP3    H137111   0.923   4.768   2.499  0.1805  0.4318  0.9451
 5232TIP3    H237112   0.990   4.634   2.513 -0.6857 -0.3148 -1.8179
 5233TIP3   OH237113   2.514   5.737   1.345  0.4809  0.0025 -0.2751
 5233TIP3    H137114   2.564   5.802   1.394  0.5244  0.1292 -0.4871
 5233TIP3    H237115   2.573   5.662   1.337  0.3856 -0.1074  0.0765
 5234TIP3   OH237116   2.665   0.417  12.514  0.3946  0.6383 -0.0797
 5234TIP3    H137117   2.692   0.326  12.526  1.5554  0.9968  0.1044
 5234TIP3    H237118   2.662   0.430  12.419  0.4722  0.4816 -0.1025
 5235TIP3   OH237119   0.762   1.272  16.300 -0.1527  0.1159 -0.4174
 5235TIP3    H137120   0.681   1.322  16.294 -1.4886 -1.6503  1.9172
 5235TIP3    H237121   0.824   1.332  16.342 -0.8509  0.8115 -0.3711
 5236TIP3   OH237122   1.344   3.287   2.287  0.1093  0.2703 -0.4267
 5236TIP3    H137123   1.339   3.382   2.276 -2.4033  0.2183  0.0141
 5236TIP3    H237124   1.278   3.252   2.226  0.2678 -1.1328  0.1859
 5237TIP3   OH237125   3.822   4.041  14.177  0.4734 -0.0959 -0.4642
 5237TIP3    H137126   3.799   4.087  14.096 -1.1136 -0.0226  0.0056
 5237TIP3    H237127   3.807   4.106  14.246  3.6949  0.4751 -0.2394
 5238TIP3   OH237128   0.871   3.080   3.467  0.1368 -0.5117  0.7025
 5238TIP3    H137129   0.958   3.056   3.433  0.0521  0.6405 -0.4168
 5238TIP3    H237130   0.831   3.129   3.395 -1.3268 -0.7635  1.3310
 5239TIP3   OH237131   5.310   5.427   5.185  0.3191 -0.1378 -0.1406
 5239TIP3    H137132   5.351   5.401   5.268  1.5735  0.5649 -0.5177
 5239TIP3    H237133   5.267   5.347   5.153  2.9038 -1.4054 -0.5905
 5240TIP3   OH237134   6.424   4.106  10.473 -0.0582  0.3188  0.2673
 5240TIP3    H137135   6.415   4.030  10.415  0.1840  0.3202  0.2266
 5240TIP3    H237136   6.483   4.164  10.425  0.5854  0.0784  0.7663
 5241TIP3   OH237137   5.888   2.092   3.350  0.6582 -0.4977 -0.4255
 5241TIP3    H137138   5.853   2.181   3.357  1.6728 -0.2395  2.0365
 5241TIP3    H237139   5.982   2.105   3.338  0.9893 -1.2148  1.2505
 5242TIP3   OH237140   6.048   2.731  12.354  0.0964 -0.4901 -0.8361
 5242TIP3    H137141   6.104   2.744  12.278 -0.2786  0.4636 -0.9595
 5242TIP3    H237142   6.009   2.817  12.370  1.1559 -0.3580  1.2342
 5243TIP3   OH237143   6.083   1.799   3.182  0.4606 -0.1300  0.0769
 5243TIP3    H137144   6.099   1.893   3.187 -1.0466  0.1856 -0.8361
 5243TIP3    H237145   6.011   1.783   3.242 -1.9669 -0.0382 -2.6991
 5244TIP3   OH237146   3.980   4.867  15.554 -0.0102 -0.1308 -0.4128
 5244TIP3    H137147   4.020   4.926  15.618  0.2029 -1.0226  0.2917
 5244TIP3    H237148   3.887   4.868  15.575  0.0177 -0.1856 -0.2884
 5245TIP3   OH237149   1.629   3.941  16.906 -0.1990  0.2171  0.3156
 5245TIP3    H137150   1.665   4.030  16.913  0.2913 -0.0257  0.9049
 5245TIP3    H237151   1.573   3.932  16.984  1.6164 -0.8340  1.5335
 5246TIP3   OH237152   4.643   0.640  15.513 -0.2104  0.2823 -0.2794
 5246TIP3    H137153   4.722   0.588  15.526  0.6053  1.1845 -1.5243
 5246TIP3    H237154   4.675   0.730  15.503 -1.6238  1.1521  2.4114
 5247TIP3   OH237155   4.829   3.464   1.841  0.4908  0.4668 -0.6218
 5247TIP3    H137156   4.882   3.508   1.908  1.7875 -1.5592 -0.2925
 5247TIP3    H237157   4.739   3.491   1.861  0.9530  0.5580  1.4393
 5248TIP3   OH237158   4.965   2.868   0.578  0.2737 -0.0221  0.7026
 5248TIP3    H137159   4.972   2.963   0.589  0.9810 -0.2232  2.0594
 5248TIP3    H237160   4.887   2.855   0.524  1.0754  1.4247 -0.8266
 5249TIP3   OH237161   0.850   3.396   3.479  0.0783 -0.2203 -0.3793
 5249TIP3    H137162   0.785   3.328   3.463 -1.0090  0.0113  2.7883
 5249TIP3    H237163   0.887   3.375   3.564 -1.2571  3.8492  1.3430
 5250TIP3   OH237164   6.126   2.638  12.754 -0.4774 -0.0303  0.0424
 5250TIP3    H137165   6.123   2.570  12.686 -0.1596  0.2429 -0.2400
 5250TIP3    H237166   6.208   2.621  12.801  1.1211  2.0101 -1.9344
 5251TIP3   OH237167   1.126   6.687   4.547 -0.6363  0.1727 -0.0618
 5251TIP3    H137168   1.210   6.668   4.588  0.4374  2.2233 -1.2596
 5251TIP3    H237169   1.075   6.731   4.615 -0.2734  0.0670  0.2768
 5252TIP3   OH237170   5.566   6.499   5.964 -0.5451 -0.5424 -0.0016
 5252TIP3    H137171   5.538   6.418   6.008 -0.2209 -1.0818 -0.7739
 5252TIP3    H237172   5.656   6.513   5.992  0.3330 -1.9616 -1.9893
 5253TIP3   OH237173   1.426   5.834   6.154 -0.2116  0.5009  0.1818
 5253TIP3    H137174   1.447   5.743   6.132 -0.3679  0.6319 -0.5305
 5253TIP3    H237175   1.330   5.837   6.152 -0.4177 -0.2387  3.9756
 5254TIP3   OH237176   3.133   2.484  13.856  0.2009 -0.0515  0.0244
 5254TIP3    H137177   3.120   2.556  13.918 -0.7297  1.3220 -1.7383
 5254TIP3    H237178   3.044   2.456  13.833  0.5337 -0.3931 -0.8775
 5255TIP3   OH237179   3.722   1.974   4.803  0.0055  0.6239  0.2499
 5255TIP3    H137180   3.731   2.003   4.894  0.8725  1.9261 -0.2446
 5255TIP3    H237181   3.650   2.027   4.768 -1.6123 -1.1948  0.6864
 5256TIP3   OH237182   6.083   0.793   2.053 -0.3010  0.1768  0.5283
 5256TIP3    H137183   6.147   0.798   2.123  2.3054 -0.1826 -1.7622
 5256TIP3    H237184   6.096   0.873   2.002  1.4246 -1.9301 -2.4851
 5257TIP3   OH237185   1.001   4.411   1.055  0.4928 -0.3036  0.2114
 5257TIP3    H137186   0.986   4.504   1.075 -0.7527 -0.2370 -0.9428
 5257TIP3    H237187   0.929   4.366   1.099  0.1895 -0.5609 -0.5448
 5258TIP3   OH237188   3.452   4.682   4.416 -0.0914 -0.1034  0.1594
 5258TIP3    H137189   3.468   4.588   4.410  0.8743  0.1091 -0.6755
 5258TIP3    H237190   3.517   4.721   4.358  0.7300  1.1908  1.8907
 5259TIP3   OH237191   6.749   4.401  11.443 -0.0650  0.8938 -0.0312
 5259TIP3    H137192   6.800   4.475  11.474  0.5688  0.8700 -0.9748
 5259TIP3    H237193   6.660   4.434  11.432  0.5711  1.9912 -2.1059
 5260TIP3   OH237194   2.535   0.707   4.555 -0.3153 -0.1282  0.3167
 5260TIP3    H137195   2.472   0.679   4.489 -1.5766  1.6383  0.7164
 5260TIP3    H237196   2.507   0.796   4.578  1.0769 -0.1120  2.0421
 5261TIP3   OH237197   5.984   5.437   0.949  0.3685  0.0270 -0.8094
 5261TIP3    H137198   6.004   5.495   1.022  1.6360  1.2628 -2.1283
 5261TIP3    H237199   6.024   5.354   0.973  0.0899  0.1887  0.2551
 5262TIP3   OH237200   0.228   0.576  15.971  0.2534  0.2332 -0.0772
 5262TIP3    H137201   0.211   0.660  16.014 -0.3823  1.1755 -2.0827
 5262TIP3    H237202   0.303   0.539  16.018  0.0210  1.5399  1.3551
 5263TIP3   OH237203   4.240   0.193   0.688  0.0821 -0.1688 -0.0083
 5263TIP3    H137204   4.274   0.118   0.640 -0.5700  0.5332 -1.5752
 5263TIP3    H237205   4.303   0.205   0.760 -0.0297 -2.4448  0.5255
 5264TIP3   OH237206   5.262   4.466   1.956 -0.0494 -0.0789  0.0857
 5264TIP3    H137207   5.273   4.400   1.888 -0.7503 -1.5999  1.4048
 5264TIP3    H237208   5.320   4.438   2.027 -1.8923 -0.4467  1.4911
 5265TIP3   OH237209   4.237   4.024   3.356  0.0443  0.6414 -0.0044
 5265TIP3    H137210   4.176   4.077   3.304  1.4821  1.6647 -0.6992
 5265TIP3    H237211   4.281   4.088   3.413  1.0790  0.0519 -0.1327
 5266TIP3   OH237212   3.658   3.567   4.032  0.3924  0.0412 -0.6023
 5266TIP3    H137213   3.661   3.551   4.126  2.6374 -0.4354 -0.7200
 5266TIP3    H237214   3.608   3.493   3.997 -2.1905  1.2678  0.3921
 5267TIP3   OH237215   2.910   0.014  15.909 -0.0167 -0.0657  0.0266
 5267TIP3    H137216   2.926  -0.025  15.995 -0.5553 -0.6917 -0.1544
 5267TIP3    H237217   2.937   0.105  15.919 -0.1209 -0.1216  0.8764
 5268TIP3   OH237218   1.901   5.963   0.578 -0.4958  0.0883 -0.3514
 5268TIP3    H137219   1.908   5.964   0.674 -0.9015  2.0013 -0.3210
 5268TIP3    H237220   1.907   5.870   0.555 -2.4399 -0.6128  1.6958
 5269TIP3   OH237221   6.451   6.009  12.357  0.5733 -0.0710 -0.1260
 5269TIP3    H137222   6.451   6.024  12.263 -0.0711  0.5705 -0.0280
 5269TIP3    H237223   6.497   6.085  12.394 -0.9296  0.6885  0.2187
 5270TIP3   OH237224   0.440   3.800   3.099  0.4447  0.7926 -0.5924
 5270TIP3    H137225   0.494   3.727   3.129 -0.4451  0.4093  0.1025
 5270TIP3    H237226   0.357   3.760   3.072  0.1095  1.4887 -0.6238
 5271TIP3   OH237227   5.802   6.104  12.510 -0.1470 -0.6598 -0.4277
 5271TIP3    H137228   5.772   6.022  12.549 -1.0019 -0.9805 -1.7302
 5271TIP3    H237229   5.747   6.115  12.432 -0.9100  1.7929  0.4221
 5272TIP3   OH237230   5.973   1.165  16.302 -0.2268 -0.2850  0.5801
 5272TIP3    H137231   5.944   1.167  16.211 -0.2672 -2.4911  0.5049
 5272TIP3    H237232   6.048   1.224  16.305  1.6722 -2.4701 -1.6040
 5273TIP3   OH237233   5.274   5.145   5.620 -0.4190 -0.1357 -0.1960
 5273TIP3    H137234   5.198   5.195   5.650 -0.3835  0.4671 -1.1109
 5273TIP3    H237235   5.243   5.054   5.618 -0.9853  0.0570 -0.1748
 5274TIP3   OH237236   5.048   4.767  16.261 -0.8462  0.6605  0.3850
 5274TIP3    H137237   5.144   4.771  16.264 -0.8615  0.2358  1.6254
 5274TIP3    H237238   5.029   4.675  16.241 -1.0072  0.4357  1.5225
 5275TIP3   OH237239   0.933   4.521  11.376 -0.0320  0.1792 -0.3091
 5275TIP3    H137240   0.968   4.454  11.435 -1.3277  0.7882  1.1811
 5275TIP3    H237241   0.838   4.509  11.379 -0.2373  1.6203 -0.5972
 5276TIP3   OH237242   2.733   2.930   3.460  0.0032  0.0809 -0.3273
 5276TIP3    H137243   2.720   3.024   3.464 -0.3439 -0.0407  1.6919
 5276TIP3    H237244   2.810   2.919   3.404 -0.4549  1.4996 -1.2580
 5277TIP3   OH237245   4.999   5.475   1.392  0.7990 -0.2524  0.3739
 5277TIP3    H137246   5.087   5.462   1.356  0.9005  1.1534  0.1116
 5277TIP3    H237247   4.941   5.468   1.316  0.8777  1.0949  0.1877
 5278TIP3   OH237248   4.025   0.516  16.951 -0.2522  0.3135 -0.4700
 5278TIP3    H137249   3.971   0.472  16.885  0.1659 -0.4012 -0.3427
 5278TIP3    H237250   4.099   0.552  16.901  0.0746 -0.2442 -0.3965
 5279TIP3   OH237251   3.316   5.553  10.706 -0.3602 -0.5031  0.1511
 5279TIP3    H137252   3.377   5.479  10.704  0.3630  0.1236 -1.1751
 5279TIP3    H237253   3.369   5.628  10.679 -1.6623  0.0824 -0.7819
 5280TIP3   OH237254   0.750   4.210   5.736  0.2653 -0.1814 -0.0718
 5280TIP3    H137255   0.680   4.182   5.677 -0.1218 -0.4823  0.5244
 5280TIP3    H237256   0.819   4.242   5.678 -0.0575 -0.6044 -0.6942
 5281TIP3   OH237257   5.470   2.823  13.785 -0.0629  0.0746 -0.1255
 5281TIP3    H137258   5.493   2.915  13.772 -1.4784  0.2851 -1.2699
 5281TIP3    H237259   5.438   2.794  13.700  0.0507 -1.3900  0.3159
 5282TIP3   OH237260   0.379   0.247  13.954  0.2405 -0.0914 -0.2639
 5282TIP3    H137261   0.285   0.260  13.945  0.2304  0.4710  0.6565
 5282TIP3    H237262   0.390   0.152  13.959 -0.5009 -0.0934  1.9423
 5283TIP3   OH237263   1.068   1.280   1.296 -0.2829  0.1437  0.1435
 5283TIP3    H137264   1.058   1.344   1.226 -0.9687 -0.9668 -0.7915
 5283TIP3    H237265   0.979   1.255   1.320 -0.0121 -1.1457 -0.1432
 5284TIP3   OH237266   5.551   3.046   2.577 -0.6735 -0.5089 -0.1220
 5284TIP3    H137267   5.488   3.015   2.511 -1.4116 -1.1728  0.8800
 5284TIP3    H237268   5.580   2.966   2.621  0.9369 -0.2085 -0.6228
 5285TIP3   OH237269   4.947   0.047  16.089  0.1047  0.4861 -0.1321
 5285TIP3    H137270   4.948  -0.046  16.112 -0.9736  0.5893  0.3434
 5285TIP3    H237271   4.908   0.091  16.164  1.3802  1.4358 -0.0009
 5286TIP3   OH237272   2.850   3.631   5.490  0.0110 -0.8090  1.0320
 5286TIP3    H137273   2.941   3.616   5.466  0.6194  0.7498  2.2933
 5286TIP3    H237274   2.800   3.609   5.411  1.5675 -0.5304 -0.0463
 5287TIP3   OH237275   4.826   1.377   2.834 -0.1164  0.0131 -0.7344
 5287TIP3    H137276   4.887   1.445   2.805  0.4164 -0.8459 -1.6900
 5287TIP3    H237277   4.790   1.409   2.917  1.3089  0.7298 -0.3876
 5288TIP3   OH237278   2.712   5.928  11.721 -0.1411 -0.4167 -0.0611
 5288TIP3    H137279   2.737   5.906  11.632  2.3638 -1.5969  0.8703
 5288TIP3    H237280   2.656   5.855  11.749  1.8673 -1.8112  0.4416
 5289TIP3   OH237281   5.244   4.785  12.660  0.5439 -0.3426 -0.5614
 5289TIP3    H137282   5.242   4.689  12.664  0.0276 -0.3152 -0.0452
 5289TIP3    H237283   5.199   4.806  12.579  1.0822 -0.5520 -0.9170
 5290TIP3   OH237284   0.959   5.810   0.052 -0.2573 -0.0869  0.3170
 5290TIP3    H137285   0.896   5.804   0.124 -0.1115  1.0132  0.5506
 5290TIP3    H237286   0.976   5.904   0.043  0.8983 -0.3307 -0.1380
 5291TIP3   OH237287   6.323   0.496   3.998  0.5184  0.1215  0.0967
 5291TIP3    H137288   6.303   0.497   4.091 -2.1696  1.7567 -0.4496
 5291TIP3    H237289   6.383   0.569   3.985 -1.0146  1.3998  0.1651
 5292TIP3   OH237290   1.146   3.584  15.132 -0.0551 -0.9607 -0.1898
 5292TIP3    H137291   1.231   3.541  15.144  0.0593 -1.1146 -1.4808
 5292TIP3    H237292   1.131   3.583  15.038 -1.2298 -0.4101 -0.0275
 5293TIP3   OH237293   4.960   2.765  14.799 -0.2597 -0.2164  0.0388
 5293TIP3    H137294   5.022   2.797  14.865 -0.6034  1.5026 -0.4549
 5293TIP3    H237295   4.989   2.676  14.781  0.5635 -0.3016  1.6392
 5294TIP3   OH237296   2.728   2.855  12.005 -0.2692  0.4470 -0.0305
 5294TIP3    H137297   2.641   2.879  12.036 -0.7691 -0.4878 -0.6947
 5294TIP3    H237298   2.739   2.763  12.031  0.4115  0.4821 -0.1777
 5295TIP3   OH237299   1.939   5.595  13.901  0.6738  0.2198 -0.2089
 5295TIP3    H137300   1.937   5.691  13.902 -0.3479  0.1955  0.7403
 5295TIP3    H237301   1.864   5.570  13.848  1.3318 -0.0652 -1.0289
 5296TIP3   OH237302   2.637   1.275  15.206 -0.1414  0.4544  0.4420
 5296TIP3    H137303   2.699   1.204  15.187 -1.1227 -1.0078  2.5009
 5296TIP3    H237304   2.567   1.263  15.142 -0.7085 -0.9962  1.2936
 5297TIP3   OH237305   1.671   3.302   5.571 -0.1103  0.0755 -0.7137
 5297TIP3    H137306   1.674   3.208   5.592  0.8416  0.6174  1.7137
 5297TIP3    H237307   1.584   3.330   5.598  0.0285  0.1261 -0.3086
 5298TIP3   OH237308   4.185   0.454   5.214 -0.2313  0.3097  0.3139
 5298TIP3    H137309   4.198   0.395   5.139 -1.1395  0.1258  0.2931
 5298TIP3    H237310   4.246   0.526   5.198  0.3027 -0.2192 -0.0858
 5299TIP3   OH237311   6.512   4.549  13.162 -0.4945 -0.0688  0.2817
 5299TIP3    H137312   6.512   4.534  13.068 -0.1966  1.9152 -0.0425
 5299TIP3    H237313   6.485   4.465  13.199 -0.6087 -0.8687 -1.5605
 5300TIP3   OH237314   3.105   3.474   5.983  0.0855  0.5444  0.2595
 5300TIP3    H137315   3.141   3.389   5.959 -0.0586  0.6159 -0.2236
 5300TIP3    H237316   3.036   3.454   6.046 -0.1953  0.2705 -0.1270
 5301TIP3   OH237317   3.594   2.489   1.852 -0.2484 -0.4907  0.3410
 5301TIP3    H137318   3.562   2.575   1.824 -0.9581 -1.0245 -0.4962
 5301TIP3    H237319   3.683   2.506   1.882  0.1538  0.2968 -1.2395
 5302TIP3   OH237320   2.861   1.020  15.750 -0.5425 -0.0467  0.3820
 5302TIP3    H137321   2.789   0.957  15.761 -1.4209  0.2629 -3.1825
 5302TIP3    H237322   2.911   0.987  15.675  1.2188  1.4559  0.8556
 5303TIP3   OH237323   1.384   3.828   3.406  0.7308  0.1914 -0.2830
 5303TIP3    H137324   1.408   3.741   3.438 -1.6871 -0.8139 -1.0789
 5303TIP3    H237325   1.385   3.820   3.310 -0.3560  0.8002 -0.3515
 5304TIP3   OH237326   6.211   6.668   5.072  0.1025  0.0205  0.3275
 5304TIP3    H137327   6.250   6.597   5.123  0.9837 -0.7874 -1.4160
 5304TIP3    H237328   6.282   6.697   5.014 -0.4877  1.7975  0.4782
 5305TIP3   OH237329   0.016   4.114  12.986 -0.0474  0.6356  0.1939
 5305TIP3    H137330   0.080   4.179  13.015  1.1210 -0.7175  0.6703
 5305TIP3    H237331   0.057   4.071  12.911 -1.8223  2.0713 -1.6942
 5306TIP3   OH237332   5.202   1.351   3.304 -0.1365 -0.1330 -1.0331
 5306TIP3    H137333   5.284   1.308   3.331 -0.8435  0.0520  1.5113
 5306TIP3    H237334   5.231   1.429   3.256  1.2037  0.3708  0.5426
 5307TIP3   OH237335   2.555   5.509  14.620 -0.1835 -0.3659 -0.1279
 5307TIP3    H137336   2.558   5.595  14.662 -1.1902 -0.1722 -0.4317
 5307TIP3    H237337   2.502   5.523  14.541 -2.5897 -1.8218  1.1848
 5308TIP3   OH237338   6.384   3.679   2.125 -0.9319 -0.4577 -0.3910
 5308TIP3    H137339   6.342   3.611   2.177 -0.9070  1.6941  2.5617
 5308TIP3    H237340   6.325   3.753   2.129  0.8465  0.9962 -0.2671
 5309TIP3   OH237341   1.119   0.804   5.337 -0.2277 -0.3516  0.1178
 5309TIP3    H137342   1.103   0.713   5.362 -0.9689 -0.2757 -0.0652
 5309TIP3    H237343   1.197   0.800   5.281 -0.4861 -0.9217 -0.2106
 5310TIP3   OH237344   3.883   0.690   0.002 -0.2365  0.0554  0.0343
 5310TIP3    H137345   3.813   0.637  -0.036 -1.4367  0.3341  1.7985
 5310TIP3    H237346   3.885   0.665   0.094  1.1509  0.9607  0.2658
 5311TIP3   OH237347   6.369   6.744   1.380  0.0365  0.0468  0.0150
 5311TIP3    H137348   6.384   6.687   1.456 -2.8835 -0.0195  0.6001
 5311TIP3    H237349   6.323   6.820   1.416  0.0557  0.7676 -1.4415
 5312TIP3   OH237350   3.023   0.401  13.312  0.0607  0.3726  0.0388
 5312TIP3    H137351   2.987   0.405  13.400  0.0244 -0.6542  0.0766
 5312TIP3    H237352   3.113   0.433  13.320  0.2302 -0.2317  0.5458
 5313TIP3   OH237353   1.879   2.797  13.635  0.0816 -0.4989 -0.1217
 5313TIP3    H137354   1.970   2.800  13.606  0.8498 -0.1710  2.2111
 5313TIP3    H237355   1.860   2.703  13.645  0.5870 -0.5260  0.6293
 5314TIP3   OH237356   5.249   6.716  12.020 -0.8694  0.1184  0.8602
 5314TIP3    H137357   5.258   6.651  12.090 -0.5222 -1.3128 -0.4847
 5314TIP3    H237358   5.163   6.756  12.035 -1.5510 -1.3935  1.0955
 5315TIP3   OH237359   0.351   3.525   4.050  0.0843 -0.0645  0.2193
 5315TIP3    H137360   0.306   3.516   4.134 -0.1107  0.1321  0.1368
 5315TIP3    H237361   0.426   3.582   4.069  1.0960 -1.5079  0.6533
 5316TIP3   OH237362   0.095   0.032   2.241 -0.1685  0.1513 -0.1483
 5316TIP3    H137363   0.009   0.051   2.279  0.7047  0.7094  1.6127
 5316TIP3    H237364   0.076  -0.026   2.167 -1.9345 -0.9548  1.1212
 5317TIP3   OH237365   2.548   1.474  12.419  0.3552  0.0361 -0.4818
 5317TIP3    H137366   2.457   1.477  12.391 -0.5586  0.0579  2.3131
 5317TIP3    H237367   2.566   1.563  12.451  0.7922 -0.4256  0.5816
 5318TIP3   OH237368   3.987   1.218  13.383  0.3509 -0.5386  0.0710
 5318TIP3    H137369   3.997   1.234  13.289 -0.6439  3.5736  0.5383
 5318TIP3    H237370   3.903   1.173  13.391 -0.2292  0.3288 -0.9474
 5319TIP3   OH237371   1.799   4.809   3.388 -0.0986 -0.5207  0.2558
 5319TIP3    H137372   1.762   4.721   3.399 -0.4346 -0.0899  2.8658
 5319TIP3    H237373   1.733   4.868   3.424  1.3000  0.5807  1.0731
 5320TIP3   OH237374   3.082   5.229  14.740  0.5849 -0.0273  0.5188
 5320TIP3    H137375   3.006   5.171  14.749  0.7085  0.0010  1.8074
 5320TIP3    H237376   3.109   5.247  14.830  1.9603  0.1829  0.0737
 5321TIP3   OH237377   5.811   2.070  15.907  0.1861 -0.0958  0.1585
 5321TIP3    H137378   5.855   1.992  15.871 -4.4815 -2.0835 -1.6323
 5321TIP3    H237379   5.813   2.133  15.835 -1.5124 -0.9274 -0.6633
 5322TIP3   OH237380   1.751   5.292   3.335 -0.1575  0.0879  0.9910
 5322TIP3    H137381   1.811   5.361   3.366  0.5586  0.0741 -0.2899
 5322TIP3    H237382   1.705   5.263   3.413  0.5805  1.0209  1.7937
 5323TIP3   OH237383   3.308   0.305  16.726  0.9614 -0.3656  0.3252
 5323TIP3    H137384   3.306   0.311  16.821  0.6648 -3.0138  0.5042
 5323TIP3    H237385   3.255   0.380  16.697  0.3723 -0.0104  2.2486
 5324TIP3   OH237386   5.471   1.591  12.366  0.1534 -0.2010  0.4953
 5324TIP3    H137387   5.524   1.670  12.364 -0.2210  0.0217 -1.2835
 5324TIP3    H237388   5.392   1.613  12.315  0.3673 -1.9259 -0.6392
 5325TIP3   OH237389   2.541   3.540   1.351  0.1600  0.2588 -0.3185
 5325TIP3    H137390   2.563   3.550   1.444  0.0176  0.7036 -0.3298
 5325TIP3    H237391   2.590   3.609   1.307  1.4483 -0.9249 -0.7795
 5326TIP3   OH237392   5.854   3.125   1.933  0.2243 -0.2928 -0.5103
 5326TIP3    H137393   5.760   3.120   1.950  0.0159  1.9262 -0.8742
 5326TIP3    H237394   5.879   3.036   1.909 -1.6282 -1.0686  0.3532
 5327TIP3   OH237395   1.797   3.129   2.394 -0.2848 -0.0864  0.0126
 5327TIP3    H137396   1.849   3.125   2.474 -0.3200 -0.5886  0.0147
 5327TIP3    H237397   1.709   3.103   2.422 -1.2304  3.4091  0.5681
 5328TIP3   OH237398   2.553   5.268   3.601  0.0441  0.2371  0.2375
 5328TIP3    H137399   2.462   5.279   3.629 -0.2767  2.5094 -1.6334
 5328TIP3    H237400   2.604   5.280   3.681 -1.1129  2.4055  0.6856
 5329TIP3   OH237401   6.349   6.328   2.467 -0.0042 -0.1277 -0.3906
 5329TIP3    H137402   6.380   6.375   2.389  2.0218  0.4719  0.7622
 5329TIP3    H237403   6.363   6.389   2.539 -2.4825 -0.4357  0.3983
 5330TIP3   OH237404   0.461   4.223   2.593  0.0652  0.5047 -0.0117
 5330TIP3    H137405   0.515   4.213   2.514 -0.1305 -2.5560  0.1827
 5330TIP3    H237406   0.523   4.254   2.660  1.1814 -1.1367 -0.2681
 5331TIP3   OH237407   6.358   3.614  15.096 -0.4150 -0.0847  0.3670
 5331TIP3    H137408   6.331   3.655  15.013  1.0863  1.0214  0.3920
 5331TIP3    H237409   6.294   3.645  15.160  0.7024  2.3070  0.3899
 5332TIP3   OH237410   4.832   5.250   1.654  0.5883  0.6683  0.6717
 5332TIP3    H137411   4.781   5.295   1.721  0.5991 -1.1362  1.9320
 5332TIP3    H237412   4.770   5.238   1.581  0.0255  0.9593  1.0986
 5333TIP3   OH237413   0.006   2.371  14.093  0.5538 -0.1258 -0.2593
 5333TIP3    H137414  -0.039   2.392  14.012 -0.0352 -4.3783 -1.1582
 5333TIP3    H237415   0.081   2.318  14.066  1.4737  0.0595  1.8094
 5334TIP3   OH237416   4.400   5.356  10.969 -0.1536  0.2282 -0.1242
 5334TIP3    H137417   4.394   5.261  10.954  0.3723  0.4575 -1.9322
 5334TIP3    H237418   4.468   5.385  10.909  0.8556  1.5213  1.6167
 5335TIP3   OH237419   6.733   0.971  16.302  0.0693 -0.1665 -0.2335
 5335TIP3    H137420   6.672   1.042  16.285 -1.9382 -1.5710  0.9646
 5335TIP3    H237421   6.786   1.001  16.376 -1.6314 -0.4116  1.1107
 5336TIP3   OH237422   2.996   2.119   3.129 -0.2796 -0.1833 -0.6244
 5336TIP3    H137423   3.060   2.191   3.130  0.2598 -0.6288  2.3732
 5336TIP3    H237424   2.912   2.162   3.143  0.0686 -0.1293  1.3927
 5337TIP3   OH237425   1.112   5.601   5.200 -0.1619  0.5208  0.0455
 5337TIP3    H137426   1.041   5.600   5.264  0.7311 -0.5114  1.0687
 5337TIP3    H237427   1.082   5.659   5.130 -1.6180  0.8014  0.8879
 5338TIP3   OH237428   1.621   6.130  11.336  0.4614 -0.1728  0.0547
 5338TIP3    H137429   1.576   6.146  11.253 -0.7675  1.5356  1.0438
 5338TIP3    H237430   1.695   6.074  11.312  1.0142  1.5528 -2.4575
 5339TIP3   OH237431   5.420   5.324  13.654 -0.2330 -0.6173 -0.1090
 5339TIP3    H137432   5.499   5.276  13.631 -0.0877  0.8774 -2.9791
 5339TIP3    H237433   5.373   5.335  13.571 -1.0691  2.6565  0.7134
 5340TIP3   OH237434   1.378   5.960  13.744 -0.2211  0.2423 -0.0037
 5340TIP3    H137435   1.466   5.987  13.717 -1.2600  1.9957 -1.7677
 5340TIP3    H237436   1.356   6.020  13.815 -0.4099  0.5154 -0.2915
 5341TIP3   OH237437   3.204   4.885  13.842  0.4828  0.0914 -0.6071
 5341TIP3    H137438   3.242   4.877  13.754 -0.9077  0.5424 -1.2773
 5341TIP3    H237439   3.279   4.900  13.900  1.3063  1.1893 -1.9190
 5342TIP3   OH237440   0.991   3.633  14.845 -0.4935 -0.0250 -0.3828
 5342TIP3    H137441   1.023   3.642  14.755  0.0330 -0.9972 -0.3004
 5342TIP3    H237442   1.051   3.686  14.898  0.0971 -0.6470 -0.4213
 5343TIP3   OH237443   6.598   4.449  14.046  0.1121  0.0422  0.0631
 5343TIP3    H137444   6.609   4.544  14.042  1.6675 -0.1202  0.2137
 5343TIP3    H237445   6.683   4.416  14.075 -0.6227 -1.3543  0.6763
 5344TIP3   OH237446   2.606   4.460   2.863 -0.2818  0.2938  0.1665
 5344TIP3    H137447   2.683   4.499   2.822 -0.9930  1.5011 -0.0484
 5344TIP3    H237448   2.580   4.390   2.802 -0.4751  1.1292 -0.7291
 5345TIP3   OH237449   2.603   0.915  14.320 -0.0010  0.0984 -0.3838
 5345TIP3    H137450   2.649   0.832  14.333  2.2466  1.4553  0.5232
 5345TIP3    H237451   2.668   0.974  14.282 -1.1101  1.9301  0.4754
 5346TIP3   OH237452   5.958   3.648  14.945  0.2485 -0.0112  0.3941
 5346TIP3    H137453   5.898   3.712  14.985 -0.4802 -0.3547 -0.1416
 5346TIP3    H237454   5.908   3.566  14.944  0.4967 -0.1526 -0.6310
 5347TIP3   OH237455   1.603   2.448   5.828 -0.6722  0.6380 -0.5154
 5347TIP3    H137456   1.636   2.528   5.870  3.0144 -0.2895 -1.4857
 5347TIP3    H237457   1.626   2.458   5.736  1.6341 -2.3576 -0.3340
 5348TIP3   OH237458   2.172   5.235   2.733  0.3142  0.2358 -0.0254
 5348TIP3    H137459   2.146   5.327   2.729 -0.0807  0.2031  1.3667
 5348TIP3    H237460   2.197   5.222   2.825 -2.0160 -1.6648  0.3958
 5349TIP3   OH237461   5.008   4.853  11.509  0.1434 -0.0403 -0.1405
 5349TIP3    H137462   4.927   4.802  11.511  0.9753 -1.3761 -0.0491
 5349TIP3    H237463   5.077   4.788  11.521  1.2356  1.0791 -0.3493
 5350TIP3   OH237464   0.420   5.207   4.760 -0.1853 -0.5473  0.3146
 5350TIP3    H137465   0.345   5.230   4.813  0.3017  2.0503 -0.0551
 5350TIP3    H237466   0.384   5.184   4.675 -0.5875  0.5008  0.1991
 5351TIP3   OH237467   5.766   4.945  13.995  0.9015 -0.2888  0.3836
 5351TIP3    H137468   5.739   5.026  13.953  1.7333 -0.4705 -0.5165
 5351TIP3    H237469   5.725   4.948  14.082 -0.8139  0.0900 -0.4336
 5352TIP3   OH237470   5.810   6.390  15.734  0.0311  0.3370 -0.0404
 5352TIP3    H137471   5.859   6.459  15.779 -0.2101  0.2817  0.3098
 5352TIP3    H237472   5.761   6.436  15.665 -0.2800  0.5437  0.3164
 5353TIP3   OH237473   0.369   4.909  13.645 -0.0045 -0.0274  0.4235
 5353TIP3    H137474   0.314   4.948  13.713 -1.2423 -1.6891  0.4212
 5353TIP3    H237475   0.378   4.977  13.579 -2.0350  0.3110  0.4535
 5354TIP3   OH237476   2.224   3.881  15.622 -0.5346 -0.0878  0.5692
 5354TIP3    H137477   2.166   3.867  15.547  1.3367  0.4881 -1.0342
 5354TIP3    H237478   2.311   3.888  15.583  0.4031  0.7767  2.7634
 5355TIP3   OH237479   5.386   3.753  11.647 -0.6633  0.1857 -0.4867
 5355TIP3    H137480   5.444   3.778  11.719 -2.7970  4.3413 -0.0400
 5355TIP3    H237481   5.316   3.703  11.689 -1.0686  1.2322  0.0977
 5356TIP3   OH237482   4.188   0.492  13.255 -0.2996  0.0314 -0.4516
 5356TIP3    H137483   4.210   0.538  13.174 -1.5368  0.8638 -0.3321
 5356TIP3    H237484   4.248   0.418  13.258 -0.2969 -0.0470 -2.1679
 5357TIP3   OH237485   4.096   4.171  10.919  0.0258  0.2649  0.2826
 5357TIP3    H137486   4.188   4.156  10.941 -0.3483  0.6375  2.1527
 5357TIP3    H237487   4.092   4.263  10.892 -0.3510  1.2351  3.4273
 5358TIP3   OH237488   2.766   2.264   0.497  0.2730  0.4348  0.0571
 5358TIP3    H137489   2.679   2.280   0.461 -0.7575 -0.1932  2.2385
 5358TIP3    H237490   2.756   2.274   0.591  3.1011  2.7778  0.1711
 5359TIP3   OH237491   5.216   5.568  14.448 -0.1545  0.1587  0.4894
 5359TIP3    H137492   5.180   5.486  14.481  0.1364  0.2454  1.0222
 5359TIP3    H237493   5.293   5.542  14.397 -0.9817 -0.0320 -0.6925
 5360TIP3   OH237494   1.269   5.508  16.203 -0.2213  0.1151  0.2964
 5360TIP3    H137495   1.194   5.457  16.174 -1.1480  0.5541  1.8796
 5360TIP3    H237496   1.232   5.593  16.228  1.0370  0.9126 -0.4878
 5361TIP3   OH237497   0.029   0.210  16.434 -0.2022  0.1361 -0.4029
 5361TIP3    H137498   0.020   0.219  16.529  1.0773  1.9786 -0.4306
 5361TIP3    H237499  -0.057   0.234  16.399 -1.0484 -1.7595  0.3427
 5362TIP3   OH237500   5.567   5.018  11.501  0.1704  0.0143 -0.0179
 5362TIP3    H137501   5.662   5.021  11.516  0.0945  3.1688  0.0885
 5362TIP3    H237502   5.533   5.096  11.545 -2.3207 -0.3550 -1.1934
 5363TIP3   OH237503   0.965   5.907   2.539 -0.4947  0.0430 -0.3380
 5363TIP3    H137504   1.018   5.972   2.494  1.0832  1.1486  2.9188
 5363TIP3    H237505   1.013   5.824   2.528 -0.8280  0.0405 -1.7859
 5364TIP3   OH237506   0.548   3.909   4.844  0.3432 -0.6847  0.4440
 5364TIP3    H137507   0.469   3.957   4.816 -0.0352 -1.1482  0.7114
 5364TIP3    H237508   0.518   3.855   4.917  1.3396  0.5234  1.7699
 5365TIP3   OH237509   5.370   0.905  17.226  0.2148  0.6412  0.6715
 5365TIP3    H137510   5.390   0.926  17.318  1.6002 -2.6547  1.1833
 5365TIP3    H237511   5.453   0.916  17.180  0.8714 -2.8889  0.8658
 5366TIP3   OH237512   5.246   3.266  14.710 -0.1961 -0.3952  0.0180
 5366TIP3    H137513   5.153   3.283  14.722 -0.3880 -2.1077  1.1120
 5366TIP3    H237514   5.276   3.235  14.796  1.6685  1.3901  0.0436
 5367TIP3   OH237515   5.066   0.846  16.704  0.4813 -0.1860  0.6503
 5367TIP3    H137516   5.085   0.934  16.739 -0.1032 -0.4775  1.7356
 5367TIP3    H237517   5.136   0.791  16.738 -1.4195 -0.9831  3.5280
 5368TIP3   OH237518   2.381   1.078   0.838  0.0883  0.0195  0.1965
 5368TIP3    H137519   2.344   1.141   0.776  0.2458 -0.0154  0.0644
 5368TIP3    H237520   2.474   1.075   0.815  0.0517 -0.3757  0.1028
 5369TIP3   OH237521   4.903   0.017  14.883 -0.4003  0.1653 -0.6377
 5369TIP3    H137522   4.863  -0.058  14.929 -0.7071  0.6481 -0.1097
 5369TIP3    H237523   4.983  -0.019  14.845 -1.2986 -0.8078 -1.6671
 5370TIP3   OH237524   0.268   6.098  11.617 -0.0921 -0.0714  0.1962
 5370TIP3    H137525   0.270   6.098  11.521 -4.1973  0.2461  0.0210
 5370TIP3    H237526   0.277   6.190  11.641 -1.7102  0.1695 -0.0433
 5371TIP3   OH237527   4.429   6.646  15.779  0.1338  0.2628 -0.2492
 5371TIP3    H137528   4.381   6.629  15.698  0.6170 -1.2665 -0.2152
 5371TIP3    H237529   4.399   6.578  15.840  0.9594  0.4362  0.3604
 5372TIP3   OH237530   3.382   2.143   5.453  0.5028 -0.0545  0.4836
 5372TIP3    H137531   3.297   2.103   5.474  1.8072 -1.8613  2.4877
 5372TIP3    H237532   3.404   2.107   5.367 -0.2941 -0.3574  0.3946
 5373TIP3   OH237533   0.356   4.355  14.046  0.4814  0.6487 -0.1320
 5373TIP3    H137534   0.420   4.286  14.057 -0.2038  0.0211 -0.0328
 5373TIP3    H237535   0.369   4.387  13.957  1.2094  0.8190  0.0327
 5374TIP3   OH237536   3.546   3.757   0.131 -0.3969 -0.0104 -0.1005
 5374TIP3    H137537   3.638   3.735   0.146  0.0348  1.0896 -1.0471
 5374TIP3    H237538   3.532   3.738   0.038 -1.3112 -0.7978  0.1916
 5375TIP3   OH237539   5.786   5.241   3.901 -0.0930 -0.4995  0.2124
 5375TIP3    H137540   5.733   5.294   3.841  0.4109  0.4754  0.6149
 5375TIP3    H237541   5.844   5.304   3.944 -2.2853 -0.7487  3.7004
 5376TIP3   OH237542   6.271   6.305   4.790 -0.5056 -0.0843  0.0960
 5376TIP3    H137543   6.252   6.392   4.755 -1.1823 -0.7205 -1.1931
 5376TIP3    H237544   6.226   6.303   4.875 -0.6071  0.7766  0.0660
 5377TIP3   OH237545   6.417   0.771   0.689 -0.1593 -0.0500  0.0220
 5377TIP3    H137546   6.373   0.769   0.604  0.1282  0.3092 -0.1351
 5377TIP3    H237547   6.396   0.857   0.725  0.8061  0.3029 -0.2603
 5378TIP3   OH237548   2.001   0.821  10.939 -0.2115 -0.6419 -0.4468
 5378TIP3    H137549   1.922   0.767  10.941 -0.4036 -0.3415  0.6759
 5378TIP3    H237550   1.988   0.884  11.010  1.9604 -1.9087  1.1437
 5379TIP3   OH237551   4.319   3.337   3.104 -0.3031  0.1891  0.3665
 5379TIP3    H137552   4.241   3.310   3.056  0.3582 -0.3414 -0.4204
 5379TIP3    H237553   4.390   3.282   3.070  0.2546  0.0420  1.7037
 5380TIP3   OH237554   1.626   0.857   4.395 -0.1596  0.5747  0.3433
 5380TIP3    H137555   1.636   0.949   4.371 -0.9500  0.6144  0.1402
 5380TIP3    H237556   1.535   0.849   4.422 -0.6478 -0.5540 -1.5138
 5381TIP3   OH237557   1.381   6.269  16.940  0.0659  0.4452  0.3288
 5381TIP3    H137558   1.380   6.187  16.891 -1.8795  1.1442 -0.8787
 5381TIP3    H237559   1.459   6.315  16.908  0.4484 -0.3758  0.0702
 5382TIP3   OH237560   6.668   2.562   0.584  0.0486  0.1918  0.5238
 5382TIP3    H137561   6.633   2.508   0.513  0.4107  0.0553  0.4487
 5382TIP3    H237562   6.732   2.505   0.627  0.8891  0.7771  0.0541
 5383TIP3   OH237563   3.604   2.907   2.009  0.1002  0.4758 -0.1315
 5383TIP3    H137564   3.605   2.876   1.919 -0.5756  1.0328 -0.3339
 5383TIP3    H237565   3.597   2.828   2.062 -2.5900  0.3150 -0.6760
 5384TIP3   OH237566   5.648   2.682  16.782  0.4294 -0.3704 -0.3228
 5384TIP3    H137567   5.681   2.595  16.804  1.7992  0.3355  0.5256
 5384TIP3    H237568   5.698   2.741  16.839  0.7119  1.1165 -2.0894
 5385TIP3   OH237569   3.971   3.869   3.062  0.8817 -0.0112  0.0272
 5385TIP3    H137570   3.901   3.914   3.109 -0.8868 -0.4822 -2.0660
 5385TIP3    H237571   4.037   3.937   3.047  1.0101  0.3855  2.2046
 5386TIP3   OH237572   2.205   5.670  14.554 -0.0682  0.6128  0.1482
 5386TIP3    H137573   2.132   5.688  14.612 -0.9505  1.6098 -1.2359
 5386TIP3    H237574   2.167   5.615  14.485  1.0141 -0.7656  0.6274
 5387TIP3   OH237575   5.201   4.345  14.369  0.7042 -0.9534  0.0353
 5387TIP3    H137576   5.137   4.279  14.341 -0.0372 -0.4497  0.5200
 5387TIP3    H237577   5.149   4.410  14.416  1.6361 -0.7571  0.8212
 5388TIP3   OH237578   6.561   6.102  15.370  0.6669  0.0863 -0.1204
 5388TIP3    H137579   6.629   6.043  15.405  1.5461  1.9215  1.3531
 5388TIP3    H237580   6.586   6.115  15.279 -0.9747 -3.8232 -1.2442
 5389TIP3   OH237581   3.993   4.527  11.454 -0.2562 -0.1164 -0.4268
 5389TIP3    H137582   4.044   4.587  11.509 -0.4528 -0.8923  0.6302
 5389TIP3    H237583   4.054   4.499  11.386  0.6790 -0.8306  0.6754
 5390TIP3   OH237584   0.411   3.127  16.528  0.1419  0.0045  0.0696
 5390TIP3    H137585   0.474   3.093  16.465  0.7580  1.2237  0.0251
 5390TIP3    H237586   0.351   3.181  16.475 -0.6260 -0.7117  0.1932
 5391TIP3   OH237587   0.601   5.926   2.404  0.0328 -0.7641 -0.0564
 5391TIP3    H137588   0.561   5.997   2.454 -0.5399 -4.2348  4.7592
 5391TIP3    H237589   0.531   5.894   2.348 -0.3162  1.0650 -0.6909
 5392TIP3   OH237590   5.249   4.717   1.109 -1.1308  0.4753  0.0378
 5392TIP3    H137591   5.191   4.745   1.180  0.5467  2.0932  0.8262
 5392TIP3    H237592   5.324   4.777   1.114  0.1497 -0.9251 -1.5769
 5393TIP3   OH237593   0.949   0.494  10.952  0.0984  0.6743 -0.0723
 5393TIP3    H137594   0.858   0.481  10.977 -0.4515  1.8261 -1.4463
 5393TIP3    H237595   0.969   0.584  10.977  1.2048  0.0977  1.2206
 5394TIP3   OH237596   5.914   5.716  14.535  0.2736 -0.3596 -0.0352
 5394TIP3    H137597   5.859   5.690  14.608 -1.2698  2.7296 -0.0484
 5394TIP3    H237598   6.002   5.724  14.573  0.3851 -3.2283  0.4309
 5395TIP3   OH237599   3.947   3.366  17.239  0.1949 -0.0052 -0.2223
 5395TIP3    H137600   3.974   3.302  17.305  0.6692  1.1570  0.7043
 5395TIP3    H237601   4.025   3.419  17.224 -0.3607  0.6979 -0.6110
 5396TIP3   OH237602   1.257   3.580   4.204  0.1537  0.7016  0.2695
 5396TIP3    H137603   1.278   3.673   4.213  2.3150  0.2026  0.6799
 5396TIP3    H237604   1.305   3.538   4.276  0.7780 -0.9534 -1.0898
 5397TIP3   OH237605   5.466   6.773  12.994  0.2030 -0.5522 -0.4987
 5397TIP3    H137606   5.434   6.693  12.951  2.2631 -1.6799 -0.0045
 5397TIP3    H237607   5.423   6.772  13.080  0.2331 -1.1408 -0.4833
 5398TIP3   OH237608   5.156   4.105  14.693 -0.0236 -0.1279 -0.0017
 5398TIP3    H137609   5.142   4.198  14.711 -0.5576 -0.0844 -0.6062
 5398TIP3    H237610   5.069   4.071  14.674 -0.2906 -1.4242  3.1548
 5399TIP3   OH237611   2.832   3.607  12.222  0.3350  0.1062  0.5226
 5399TIP3    H137612   2.755   3.562  12.255 -0.2129  1.6291  1.3541
 5399TIP3    H237613   2.889   3.537  12.189 -1.1271 -1.0631  0.4620
 5400TIP3   OH237614   5.527   0.153   5.654 -0.0708 -0.4916  0.1616
 5400TIP3    H137615   5.620   0.162   5.636 -0.7048  0.7673 -2.7377
 5400TIP3    H237616   5.510   0.217   5.724  0.7723  1.1231 -1.0754
 5401TIP3   OH237617   0.807   1.981   0.343 -0.5182  0.4858 -0.6644
 5401TIP3    H137618   0.811   2.049   0.410 -1.6759 -0.6685  0.6195
 5401TIP3    H237619   0.870   2.008   0.277  2.9173  0.1473  2.3290
 5402TIP3   OH237620   2.248   5.449  11.356 -0.3488  0.2444 -0.0419
 5402TIP3    H137621   2.237   5.355  11.342 -0.0333  0.4989 -2.1906
 5402TIP3    H237622   2.180   5.473  11.419 -1.0353 -1.2549 -0.2092
 5403TIP3   OH237623   1.282   0.162  11.369  0.5518  0.1845  0.4687
 5403TIP3    H137624   1.372   0.133  11.354  0.3333 -1.1099  1.4871
 5403TIP3    H237625   1.291   0.250  11.405  1.3683  0.4348 -0.3275
 5404TIP3   OH237626   3.619   3.692   0.957 -0.2422  0.0863 -0.3249
 5404TIP3    H137627   3.563   3.698   0.880 -0.1714 -0.5933 -0.4235
 5404TIP3    H237628   3.599   3.772   1.006  0.1580  0.8121 -1.3386
 5405TIP3   OH237629   1.960   2.336  13.881 -0.0369 -0.3278 -0.3533
 5405TIP3    H137630   1.966   2.245  13.850 -1.4717 -0.6543  0.2805
 5405TIP3    H237631   2.020   2.340  13.955 -1.2655 -1.2601  0.7234
 5406TIP3   OH237632   5.170   5.506   4.558  0.7163 -0.2366  0.9075
 5406TIP3    H137633   5.121   5.491   4.477  2.3974  0.8509 -0.3491
 5406TIP3    H237634   5.113   5.563   4.610 -0.5427 -1.2589  0.6590
 5407TIP3   OH237635   4.855   3.058   1.755  0.0062  0.4510  0.0961
 5407TIP3    H137636   4.821   3.058   1.666 -2.2690 -0.3624  0.9253
 5407TIP3    H237637   4.912   2.982   1.759 -1.2597 -0.5370 -0.1928
 5408TIP3   OH237638   0.255   1.075  15.984  0.1330  0.7035  0.5827
 5408TIP3    H137639   0.208   1.146  16.026 -1.6697  0.1344 -0.4211
 5408TIP3    H237640   0.196   0.999  15.990  1.6846 -0.5099  0.9341
 5409TIP3   OH237641   1.230   6.423   5.014 -0.2284 -0.5542  0.4824
 5409TIP3    H137642   1.268   6.399   5.099 -0.4952 -4.1552 -0.3047
 5409TIP3    H237643   1.281   6.372   4.951 -1.8636 -0.0873 -1.2486
 5410TIP3   OH237644   0.771   6.418   3.827  0.2032 -0.2853 -0.2855
 5410TIP3    H137645   0.680   6.448   3.832  0.6576  1.2885 -1.0871
 5410TIP3    H237646   0.777   6.347   3.891 -2.5483 -2.9294 -2.8172
 5411TIP3   OH237647   1.844   6.296   0.692 -0.4028 -0.4847 -0.6820
 5411TIP3    H137648   1.817   6.266   0.605  0.0794  1.8801 -1.6921
 5411TIP3    H237649   1.940   6.294   0.689 -0.3709 -2.6542  0.6469
 5412TIP3   OH237650   4.419   1.580   6.783  0.1342 -0.0413  0.3937
 5412TIP3    H137651   4.502   1.544   6.752 -1.0724 -1.0711 -1.7516
 5412TIP3    H237652   4.364   1.503   6.798 -1.4736  0.7741 -1.3026
 5413TIP3   OH237653   2.214   2.806   5.836  0.0180  0.1635  0.7701
 5413TIP3    H137654   2.154   2.737   5.865 -1.2464  1.4059  1.2007
 5413TIP3    H237655   2.183   2.885   5.882  2.0569  0.8049  1.0719
 5414TIP3   OH237656   5.681   5.296  14.196  0.3322  0.7723  0.0193
 5414TIP3    H137657   5.757   5.270  14.144  1.2736  1.4774  1.0159
 5414TIP3    H237658   5.656   5.216  14.243  1.0452  0.7509  0.3871
 5415TIP3   OH237659   5.485   1.691   6.530  0.1449  0.3602 -0.1814
 5415TIP3    H137660   5.395   1.675   6.503 -0.6994  1.5416  1.8609
 5415TIP3    H237661   5.493   1.648   6.615  1.7090 -0.2685 -0.6135
 5416TIP3   OH237662   5.718   4.821  13.389 -0.2092 -0.5214 -0.1608
 5416TIP3    H137663   5.708   4.802  13.483 -0.1978  1.0008  0.1556
 5416TIP3    H237664   5.649   4.884  13.370 -0.7679 -1.4766 -1.3949
 5417TIP3   OH237665   2.918   5.425   2.369  0.2920 -0.0734 -0.1531
 5417TIP3    H137666   2.854   5.418   2.440  0.8674 -3.3721  0.1217
 5417TIP3    H237667   2.879   5.375   2.298  1.8004 -0.6610 -0.5759
 5418TIP3   OH237668   3.391   0.941   3.708  0.4564  0.2527  0.2813
 5418TIP3    H137669   3.346   0.876   3.654  0.9563 -0.4342  0.6702
 5418TIP3    H237670   3.385   0.906   3.797  0.4552  0.9031  0.5367
 5419TIP3   OH237671   2.887   0.550  11.817 -0.5933 -0.6674  0.5089
 5419TIP3    H137672   2.870   0.627  11.763 -1.5528 -1.2007  0.0358
 5419TIP3    H237673   2.980   0.532  11.804 -0.4640  0.1349  0.2679
 5420TIP3   OH237674   2.056   1.827  10.315  0.0872  0.4526 -0.1645
 5420TIP3    H137675   1.997   1.791  10.382  1.1813  1.8760  1.6097
 5420TIP3    H237676   2.014   1.907  10.285  0.0899  0.3500 -0.4455
 5421TIP3   OH237677   0.416   4.481   3.014 -0.0440 -0.0561  0.1829
 5421TIP3    H137678   0.495   4.437   3.043 -0.0203 -0.5775 -0.6539
 5421TIP3    H237679   0.431   4.573   3.033  1.4335  0.0520 -1.4471
 5422TIP3   OH237680   2.067   5.142  12.966  0.4688  0.1149 -0.0445
 5422TIP3    H137681   2.121   5.205  13.014  0.4965  1.3953 -1.7250
 5422TIP3    H237682   2.048   5.184  12.882 -0.6710 -1.5442 -0.6633
 5423TIP3   OH237683   4.402   5.171  15.087  0.0007  0.5482 -0.0708
 5423TIP3    H137684   4.432   5.123  15.164  1.0790 -0.7679 -1.2838
 5423TIP3    H237685   4.481   5.185  15.034 -0.6816  1.6099 -0.8553
 5424TIP3   OH237686   5.120   5.859  14.859 -0.4602 -0.1599 -0.4122
 5424TIP3    H137687   5.031   5.875  14.827 -0.6303 -0.9694 -0.3556
 5424TIP3    H237688   5.172   5.845  14.780 -0.5219 -0.3886 -0.4115
 5425TIP3   OH237689   2.127   4.509   5.387 -0.0988  0.1723 -0.1196
 5425TIP3    H137690   2.093   4.508   5.476 -1.4858  2.4651 -0.5992
 5425TIP3    H237691   2.050   4.508   5.331  0.7289  0.1326 -1.2954
 5426TIP3   OH237692   2.521   3.874   6.034  0.4031 -0.0455  0.0047
 5426TIP3    H137693   2.435   3.836   6.046 -0.0954  1.0400 -0.0619
 5426TIP3    H237694   2.564   3.864   6.119 -0.4668  1.0505  0.5934
 5427TIP3   OH237695   5.243   1.215   1.070  0.7867 -0.4909  0.1959
 5427TIP3    H137696   5.219   1.263   1.149  0.6121  0.5319 -0.4790
 5427TIP3    H237697   5.300   1.274   1.022  1.4841 -1.3931 -0.1068
 5428TIP3   OH237698   3.331   6.316   2.187  0.7323 -0.1444  0.2027
 5428TIP3    H137699   3.326   6.352   2.099 -1.5397 -1.2268 -0.1442
 5428TIP3    H237700   3.317   6.391   2.245 -3.7408 -0.3222 -0.5066
 5429TIP3   OH237701   5.283   1.149   2.477 -0.2638 -0.3339 -0.2594
 5429TIP3    H137702   5.274   1.207   2.552  1.1099 -1.4751  0.8319
 5429TIP3    H237703   5.203   1.162   2.426 -0.6174  1.4155  0.7211
 5430TIP3   OH237704   3.246   5.007  13.509 -0.4091  0.3003 -0.4179
 5430TIP3    H137705   3.284   5.057  13.581  0.3171 -0.2275 -0.4266
 5430TIP3    H237706   3.223   5.073  13.443  0.9881  0.5755 -0.6312
 5431TIP3   OH237707   5.332   6.301  13.257 -0.2738  0.1369  0.6906
 5431TIP3    H137708   5.312   6.395  13.264 -0.4409  0.1527  0.0696
 5431TIP3    H237709   5.416   6.298  13.212 -0.6327 -0.0291  0.0264
 5432TIP3   OH237710   4.752   1.488  11.616 -0.4409  0.8707 -0.0298
 5432TIP3    H137711   4.694   1.431  11.668  0.9759  0.7954  1.4955
 5432TIP3    H237712   4.692   1.546  11.569 -1.8488 -0.7659 -0.3159
 5433TIP3   OH237713   1.928   1.297  12.439  0.5213  0.2953 -0.6153
 5433TIP3    H137714   1.921   1.203  12.420  0.3678  0.4257 -1.2092
 5433TIP3    H237715   1.840   1.321  12.470  0.5563  0.2475 -0.4773
 5434TIP3   OH237716   5.314   4.909  15.263  0.2363  0.2084  0.0926
 5434TIP3    H137717   5.391   4.931  15.316 -0.5497  0.1148  1.2894
 5434TIP3    H237718   5.343   4.922  15.173  1.7219 -0.0111  0.5188
 5435TIP3   OH237719   1.799   2.585   0.492  0.2881 -0.5290 -0.4846
 5435TIP3    H137720   1.771   2.495   0.472 -0.9939 -0.4735  0.9472
 5435TIP3    H237721   1.892   2.587   0.468 -0.3276 -1.4215 -3.0859
 5436TIP3   OH237722   2.931   4.058   0.674  0.0884  0.2523  0.2614
 5436TIP3    H137723   3.020   4.075   0.703 -0.0426 -0.6225  1.1969
 5436TIP3    H237724   2.878   4.061   0.754 -0.2861 -2.0405  0.1388
 5437TIP3   OH237725   4.126   1.464  14.900  0.1273 -0.3473 -0.3225
 5437TIP3    H137726   4.108   1.527  14.969 -0.2031  1.6181 -2.1384
 5437TIP3    H237727   4.044   1.459  14.850  0.1614 -2.1961 -0.2102
 5438TIP3   OH237728   6.586   1.832   4.763 -0.8258 -0.0006 -0.2496
 5438TIP3    H137729   6.663   1.832   4.820 -0.6282 -0.1268 -0.5151
 5438TIP3    H237730   6.517   1.874   4.815 -1.1405 -1.6767  0.7513
 5439TIP3   OH237731   5.647   2.698   1.801 -0.8191 -0.2054 -0.4171
 5439TIP3    H137732   5.718   2.637   1.781 -0.9648 -0.5979  0.2382
 5439TIP3    H237733   5.644   2.701   1.897 -2.6665 -1.3491 -0.4060
 5440TIP3   OH237734   1.588   3.988  14.437  0.2380 -0.1654  0.1957
 5440TIP3    H137735   1.575   3.894  14.421 -1.0979  0.0336  0.1022
 5440TIP3    H237736   1.586   3.996  14.532  0.3612 -0.2316  0.2050
 5441TIP3   OH237737   4.141   3.702   1.615 -0.1161 -0.6506  0.1066
 5441TIP3    H137738   4.102   3.788   1.623 -1.4003 -1.4006  2.1814
 5441TIP3    H237739   4.083   3.654   1.556  0.0077 -0.4621 -0.1730
 5442TIP3   OH237740   3.290   6.469  13.723  0.3561 -0.4098 -0.3727
 5442TIP3    H137741   3.270   6.497  13.813  2.0439  2.7524 -0.9015
 5442TIP3    H237742   3.227   6.399  13.706 -2.3767  1.3006  2.0682
 5443TIP3   OH237743   5.365   3.629  13.014  0.2389  0.2860  0.4148
 5443TIP3    H137744   5.366   3.622  12.918 -0.4189  0.6219  0.3751
 5443TIP3    H237745   5.280   3.594  13.040  0.5977 -0.2210  0.9165
 5444TIP3   OH237746   5.452   6.173  12.503  0.2883 -0.4298  0.3192
 5444TIP3    H137747   5.462   6.117  12.580  0.7746  0.3045  0.7940
 5444TIP3    H237748   5.450   6.112  12.429  0.5518 -1.0892  0.8553
 5445TIP3   OH237749   0.170   6.784   2.658 -0.3797  0.1688  0.4500
 5445TIP3    H137750   0.163   6.699   2.615 -1.1653  0.5999 -0.2660
 5445TIP3    H237751   0.174   6.848   2.587  0.0765  0.7497  0.9833
 5446TIP3   OH237752   5.184   4.495   2.375  0.0650  0.1584 -0.1402
 5446TIP3    H137753   5.251   4.459   2.317 -0.5781 -0.3770 -0.5533
 5446TIP3    H237754   5.229   4.507   2.458  1.0641  1.1717 -0.8097
 5447TIP3   OH237755   5.378   6.317  14.268  0.2870  0.2243  0.2083
 5447TIP3    H137756   5.446   6.284  14.210 -0.5152 -0.7578 -0.1774
 5447TIP3    H237757   5.303   6.334  14.210 -0.0287  0.6511  0.7345
 5448TIP3   OH237758   4.688   0.720  11.718 -0.4073  0.6025  0.2300
 5448TIP3    H137759   4.633   0.676  11.784  1.4875 -0.3091  1.2443
 5448TIP3    H237760   4.663   0.678  11.636 -0.9415 -0.1130  0.7389
 5449TIP3   OH237761   1.077   4.515  15.541  0.4069 -0.0221 -0.1583
 5449TIP3    H137762   1.144   4.508  15.473  0.8399 -0.2556  0.2865
 5449TIP3    H237763   1.079   4.606  15.568 -0.5873  0.3416 -1.2827
 5450TIP3   OH237764   5.772   6.163  11.192  0.1554  0.0703  0.0391
 5450TIP3    H137765   5.766   6.208  11.107 -1.5897  0.8870  0.5721
 5450TIP3    H237766   5.866   6.164  11.213  0.4747  0.8439 -1.3562
 5451TIP3   OH237767   0.261   6.464  11.218 -0.4526 -0.3334 -0.0002
 5451TIP3    H137768   0.279   6.501  11.132 -0.3670  0.5768  0.4016
 5451TIP3    H237769   0.277   6.536  11.279 -0.7305 -0.9048  0.7586
 5452TIP3   OH237770   6.012   4.852   2.486  0.0364  0.2180  0.1504
 5452TIP3    H137771   6.042   4.761   2.489 -0.6064  0.0191  0.4883
 5452TIP3    H237772   5.974   4.861   2.399  0.0349  0.1488  0.1436
 5453TIP3   OH237773   0.682   4.880   2.533  0.0953 -0.1497  0.2800
 5453TIP3    H137774   0.731   4.807   2.495  0.1171 -0.1601  0.3278
 5453TIP3    H237775   0.602   4.886   2.480  0.5944  0.4889 -0.4175
 5454TIP3   OH237776   1.288   6.028   4.540 -0.1304 -0.4297 -0.5576
 5454TIP3    H137777   1.210   5.996   4.585  0.6153 -1.0289  0.3232
 5454TIP3    H237778   1.347   5.953   4.538  0.4923  0.0688 -1.0710
 5455TIP3   OH237779   0.687   1.938   2.993 -0.0572 -0.2823 -0.5793
 5455TIP3    H137780   0.633   1.872   2.949  0.9356 -0.4928 -1.5043
 5455TIP3    H237781   0.760   1.953   2.933 -0.0455  1.3525 -0.1813
 5456TIP3   OH237782   4.632   0.611   5.074 -0.3245  0.7128 -0.3149
 5456TIP3    H137783   4.538   0.623   5.089 -0.1338  0.9487  0.7254
 5456TIP3    H237784   4.639   0.586   4.981 -1.5683 -1.1823  0.0688
 5457TIP3   OH237785   6.358   1.493  17.194  0.0429  0.1279 -0.0653
 5457TIP3    H137786   6.353   1.408  17.238  1.5085 -0.4557 -0.9855
 5457TIP3    H237787   6.452   1.508  17.182  0.0762  3.5503  3.2658
 5458TIP3   OH237788   0.644   1.583  16.095 -0.1032 -0.0661 -0.3482
 5458TIP3    H137789   0.587   1.563  16.170 -0.2948 -0.4831 -0.6071
 5458TIP3    H237790   0.631   1.677  16.081 -1.2022 -0.2776 -0.7876
 5459TIP3   OH237791   5.404   4.494  14.262  0.3760 -0.5185  0.4434
 5459TIP3    H137792   5.413   4.465  14.171  2.7763  0.9198  0.1793
 5459TIP3    H237793   5.318   4.463  14.288 -0.1546 -1.3980 -2.1623
 5460TIP3   OH237794   0.799   1.969   1.744  0.2356 -0.0096 -0.3801
 5460TIP3    H137795   0.805   1.900   1.809  1.9706 -0.2728 -0.7843
 5460TIP3    H237796   0.797   1.923   1.660  0.7789  0.3887 -0.6202
 5461TIP3   OH237797   5.126   1.173  11.686  0.3107  0.2141 -0.2384
 5461TIP3    H137798   5.131   1.159  11.591  0.2128  1.4664 -0.4289
 5461TIP3    H237799   5.035   1.156  11.708  0.2887  0.1148 -0.4040
 5462TIP3   OH237800   0.900   0.290   4.580  0.2371  0.2772 -0.8400
 5462TIP3    H137801   0.843   0.262   4.651  1.4469 -0.6490 -0.2105
 5462TIP3    H237802   0.851   0.360   4.536 -1.2397 -0.3081 -0.1561
 5463TIP3   OH237803   1.896   4.732  14.706 -0.2221  0.4458  0.1850
 5463TIP3    H137804   1.967   4.755  14.765 -2.8116  0.3709  3.4596
 5463TIP3    H237805   1.882   4.638  14.721  0.7213 -0.1607 -2.4398
 5464TIP3   OH237806   0.883   1.213  13.177 -0.1229 -0.4935 -0.3886
 5464TIP3    H137807   0.875   1.303  13.211 -1.6344 -0.2865 -1.2456
 5464TIP3    H237808   0.795   1.177  13.184  0.4143 -1.8099 -0.3601
 5465TIP3   OH237809   5.069   1.140   0.537 -0.0287  0.4910  0.1975
 5465TIP3    H137810   5.071   1.232   0.563  0.4587  0.4029  0.4716
 5465TIP3    H237811   4.991   1.132   0.481 -0.7028  0.8201  1.0909
 5466TIP3   OH237812   3.256   1.416  13.422  0.0191  0.2992  0.0656
 5466TIP3    H137813   3.274   1.369  13.504  0.7321  1.3497  0.5299
 5466TIP3    H237814   3.272   1.508  13.444  1.1393  0.4981 -1.5104
 5467TIP3   OH237815   6.696   4.390  16.209 -0.6614 -0.2132  0.1624
 5467TIP3    H137816   6.768   4.379  16.147 -1.1307  1.6100 -0.7418
 5467TIP3    H237817   6.650   4.307  16.207  0.9340 -1.1185  0.1393
 5468TIP3   OH237818   2.027   0.468   0.123  0.5939  0.6431  0.6597
 5468TIP3    H137819   2.119   0.447   0.111  0.4775  0.7784 -0.5922
 5468TIP3    H237820   2.018   0.558   0.090 -0.2225  0.1632 -0.4993
 5469TIP3   OH237821   4.531   3.997  15.283 -0.4711  0.0093 -0.4185
 5469TIP3    H137822   4.558   3.989  15.192 -2.0658  1.5607 -1.0697
 5469TIP3    H237823   4.436   3.985  15.282 -0.3608 -1.2081  1.2185
 5470TIP3   OH237824   5.721   4.065   1.575 -0.1048 -0.2535 -0.1674
 5470TIP3    H137825   5.652   4.087   1.512 -0.1146 -2.9106 -1.1650
 5470TIP3    H237826   5.680   4.076   1.661 -1.3794 -0.5693 -0.7303
 5471TIP3   OH237827   1.102   6.735  15.562  0.0558  0.4474  0.2745
 5471TIP3    H137828   1.145   6.678  15.499  0.0090  0.0478  0.5983
 5471TIP3    H237829   1.033   6.681  15.600 -2.8808  2.0556 -2.5446
 5472TIP3   OH237830   3.017   4.166  12.466  0.7893 -0.0801 -0.6432
 5472TIP3    H137831   3.080   4.229  12.501  0.1080 -0.6388  1.6752
 5472TIP3    H237832   3.043   4.154  12.375  1.7644  2.4974 -0.7567
 5473TIP3   OH237833   6.561   2.710   4.284  0.2808  0.3959  0.2121
 5473TIP3    H137834   6.552   2.793   4.238  0.9991 -0.1416 -0.9186
 5473TIP3    H237835   6.473   2.672   4.283  0.4375  0.0421 -1.3995
 5474TIP3   OH237836   0.217   0.389  15.418 -0.0947 -0.3199 -0.2472
 5474TIP3    H137837   0.307   0.417  15.405 -0.0198 -0.3504  0.1980
 5474TIP3    H237838   0.208   0.381  15.513 -0.7207  0.1885 -0.2607
 5475TIP3   OH237839   5.078   3.103   2.368  0.0833 -0.0466  0.7034
 5475TIP3    H137840   5.024   3.041   2.321  1.0265 -1.5064  1.5128
 5475TIP3    H237841   5.022   3.180   2.380 -0.5064 -0.0673 -1.8204
 5476TIP3   OH237842   1.155   0.595   4.965 -0.6902  0.1706 -0.0520
 5476TIP3    H137843   1.095   0.605   4.892 -0.7446 -1.4836 -0.2450
 5476TIP3    H237844   1.187   0.684   4.982 -0.0959  0.4575 -2.5694
 5477TIP3   OH237845   1.348   2.466  15.001  0.1228 -0.2759  0.3206
 5477TIP3    H137846   1.329   2.473  15.094  1.0463 -1.3344  0.5998
 5477TIP3    H237847   1.331   2.374  14.979 -0.1231 -0.0279 -0.5548
 5478TIP3   OH237848   5.001   1.795  13.866  0.0209  0.1511  0.4183
 5478TIP3    H137849   4.974   1.829  13.781  0.1198  1.0226  0.7358
 5478TIP3    H237850   4.990   1.868  13.927  1.5040  0.0317  0.8561
 5479TIP3   OH237851   1.011   4.123  11.410 -0.2796 -0.0648  0.0339
 5479TIP3    H137852   1.065   4.120  11.331 -0.0757  0.7932  0.1342
 5479TIP3    H237853   1.050   4.058  11.468  0.0822 -0.1031 -0.2490
 5480TIP3   OH237854   5.714   5.048   0.492  0.2061  0.3507  0.6062
 5480TIP3    H137855   5.637   4.999   0.466  1.2853 -0.1206 -1.8369
 5480TIP3    H237856   5.722   5.033   0.587 -3.4873  1.6079  1.1755
 5481TIP3   OH237857   3.358   2.532  15.592 -0.3917  0.3303 -0.4327
 5481TIP3    H137858   3.315   2.570  15.669 -1.5370 -0.8643 -0.4632
 5481TIP3    H237859   3.296   2.467  15.560  0.2061  0.6234 -2.2188
 5482TIP3   OH237860   1.963   5.088  17.233 -0.5235  0.1058  0.1367
 5482TIP3    H137861   1.901   5.132  17.175  0.9431 -0.8039 -2.2146
 5482TIP3    H237862   1.911   5.024  17.280 -1.6438  0.3814 -0.6922
 5483TIP3   OH237863   2.905   3.279  16.329 -0.3111  0.1814 -0.2463
 5483TIP3    H137864   2.969   3.243  16.267  0.1860  0.7444 -0.0580
 5483TIP3    H237865   2.956   3.297  16.408 -0.7354  0.4657 -0.0369
 5484TIP3   OH237866   5.513   0.048  11.043  0.3016 -0.2340  0.0283
 5484TIP3    H137867   5.419   0.037  11.027  0.4241 -0.7889 -0.3519
 5484TIP3    H237868   5.520   0.125  11.098 -0.3178  0.3313 -0.6778
 5485TIP3   OH237869   4.238   2.264   2.798 -0.0653 -0.3644  0.2770
 5485TIP3    H137870   4.181   2.188   2.784 -2.0576  1.4974 -1.9944
 5485TIP3    H237871   4.277   2.281   2.712 -0.7921  2.0960  0.4185
 5486TIP3   OH237872   4.912   1.893  13.636 -0.3136 -0.2764 -0.1611
 5486TIP3    H137873   4.916   1.831  13.563 -4.2002  0.0174 -0.7543
 5486TIP3    H237874   4.971   1.963  13.611  0.0941 -1.2343 -2.0030
 5487TIP3   OH237875   1.944   6.190  15.407  0.9660 -0.1438  0.2468
 5487TIP3    H137876   1.985   6.239  15.478  1.5818 -0.1051 -0.1269
 5487TIP3    H237877   1.858   6.231  15.396  0.9487 -0.0197  0.8299
 5488TIP3   OH237878   4.362   2.186   0.567  0.2952 -0.3240  0.5571
 5488TIP3    H137879   4.391   2.277   0.555 -0.0143 -0.5917 -2.8242
 5488TIP3    H237880   4.440   2.134   0.549 -0.1937 -0.7712 -0.3321
 5489TIP3   OH237881   3.224   2.882   0.905 -0.4436 -0.2182 -0.4762
 5489TIP3    H137882   3.170   2.806   0.929 -1.7974  1.1516  1.0018
 5489TIP3    H237883   3.250   2.866   0.815 -1.8544 -1.7880 -0.6325
 5490TIP3   OH237884   5.490   1.231  13.953 -0.2771  0.6382 -0.0535
 5490TIP3    H137885   5.442   1.313  13.940 -0.8975  0.0860 -1.3208
 5490TIP3    H237886   5.518   1.234  14.045 -0.8370  1.9750  0.0871
 5491TIP3   OH237887   6.402   1.973  14.791 -0.0913 -0.0381  0.8464
 5491TIP3    H137888   6.386   1.896  14.847  0.7932  0.0904  1.2825
 5491TIP3    H237889   6.427   2.042  14.852 -1.7663  0.8684  0.5429
 5492TIP3   OH237890   1.494   2.800  15.791 -0.1164  0.3885 -0.3169
 5492TIP3    H137891   1.430   2.804  15.720  1.5445  1.2487 -1.7968
 5492TIP3    H237892   1.534   2.714  15.784  1.0945  1.0217 -1.3832
 5493TIP3   OH237893   5.705   5.832   0.450 -0.8181  0.6042  0.1783
 5493TIP3    H137894   5.614   5.842   0.479 -0.9183  4.1913 -1.0365
 5493TIP3    H237895   5.757   5.855   0.527 -0.9735  0.2315  0.3930
 5494TIP3   OH237896   0.427   1.165   6.450 -0.2598 -0.3546 -0.2159
 5494TIP3    H137897   0.513   1.150   6.410 -1.0602  0.4169 -2.2733
 5494TIP3    H237898   0.394   1.078   6.469  0.5642 -0.6912 -0.2822
 5495TIP3   OH237899   4.765   6.153  15.185  0.0130  0.6182 -0.6556
 5495TIP3    H137900   4.783   6.085  15.250 -1.8162  0.0952 -0.6633
 5495TIP3    H237901   4.774   6.235  15.233  0.5617  0.3094 -0.2225
 5496TIP3   OH237902   4.767   3.907   2.114  0.0873  0.6887  0.4326
 5496TIP3    H137903   4.690   3.852   2.124 -1.1424  1.7879 -2.4891
 5496TIP3    H237904   4.832   3.850   2.074 -0.1728  0.5496  0.2106
 5497TIP3   OH237905   2.716   0.205   5.154 -0.7642  0.1643 -0.2873
 5497TIP3    H137906   2.766   0.123   5.151 -0.7357  0.0752  1.7727
 5497TIP3    H237907   2.652   0.197   5.084  2.2832  0.4009 -3.2380
 5498TIP3   OH237908   1.781   2.429  15.489 -0.0969 -0.0400 -0.6502
 5498TIP3    H137909   1.875   2.448  15.492  0.6471 -3.5289  0.4975
 5498TIP3    H237910   1.747   2.465  15.571  0.6966 -0.7319  0.0043
 5499TIP3   OH237911   3.036   6.698   3.625  0.9638 -0.1191 -0.1701
 5499TIP3    H137912   3.049   6.710   3.720  0.6321  0.1476 -0.1561
 5499TIP3    H237913   2.962   6.639   3.619  1.6754 -1.0096 -0.2566
 5500TIP3   OH237914   6.500   5.181  12.211 -0.1226 -0.0372 -0.3126
 5500TIP3    H137915   6.587   5.141  12.204  0.2377  0.4633  1.0646
 5500TIP3    H237916   6.483   5.182  12.305 -1.5152  0.1072 -0.5625
 5501TIP3   OH237917   5.180   3.585  15.808 -0.0592  0.8798 -0.2522
 5501TIP3    H137918   5.211   3.631  15.886  1.1104  1.0101 -0.7773
 5501TIP3    H237919   5.085   3.598  15.809  0.2192  3.2806 -0.3472
 5502TIP3   OH237920   4.042   2.066   3.760 -0.4424  1.2195  0.2089
 5502TIP3    H137921   4.057   2.016   3.840 -0.4304  0.8889  0.0002
 5502TIP3    H237922   4.117   2.126   3.754 -0.4787  1.2888  0.4813
 5503TIP3   OH237923   5.181   6.047  10.524 -0.3009 -0.1266 -0.1186
 5503TIP3    H137924   5.090   6.046  10.494 -0.4002 -2.7700  0.1304
 5503TIP3    H237925   5.179   6.095  10.606 -0.7152  3.5469 -2.1677
 5504TIP3   OH237926   1.517   5.007  12.505 -0.1197 -0.7977  0.0104
 5504TIP3    H137927   1.594   5.062  12.488  0.5600 -1.7346  0.0083
 5504TIP3    H237928   1.456   5.029  12.435 -0.0226  0.2660  0.2516
 5505TIP3   OH237929   3.389   6.599  14.418 -0.6024 -0.2990 -0.3195
 5505TIP3    H137930   3.464   6.624  14.472 -1.5076  0.4015  0.6320
 5505TIP3    H237931   3.393   6.657  14.342  0.4715 -1.0466 -0.8401
 5506TIP3   OH237932   1.933   6.753  13.238  0.3906  0.7239 -0.3463
 5506TIP3    H137933   2.027   6.768  13.227  0.3653  1.1797  0.0325
 5506TIP3    H237934   1.892   6.810  13.174  0.4354 -1.2375 -2.1816
 5507TIP3   OH237935   4.377   1.402  16.151 -0.0723 -0.1149  0.5652
 5507TIP3    H137936   4.281   1.401  16.156 -0.2103 -1.3256 -1.6634
 5507TIP3    H237937   4.402   1.309  16.155  0.9379  0.1354  0.2356
 5508TIP3   OH237938   6.266   6.138  10.619 -0.3009 -0.0643 -0.5225
 5508TIP3    H137939   6.259   6.083  10.541  0.6985 -0.9172 -0.0175
 5508TIP3    H237940   6.176   6.153  10.646 -0.6149 -0.5416 -1.2914
 5509TIP3   OH237941   1.427   4.944  14.690  0.1781 -0.2103  0.2528
 5509TIP3    H137942   1.407   5.032  14.658  1.5891 -0.2711 -0.8128
 5509TIP3    H237943   1.479   4.958  14.769 -0.2843 -0.0862  0.5348
 5510TIP3   OH237944   0.840   0.343  16.029  0.5645  0.4468  0.1048
 5510TIP3    H137945   0.896   0.266  16.036  0.4813  0.3663 -0.1150
 5510TIP3    H237946   0.815   0.362  16.120  2.6632  1.7690  0.4449
 5511TIP3   OH237947   1.588   2.183  13.570  0.2026  0.2700 -0.6370
 5511TIP3    H137948   1.521   2.245  13.599  0.3659  0.4626 -0.6711
 5511TIP3    H237949   1.662   2.238  13.543  0.2902  0.0685 -0.8142
 5512TIP3   OH237950   1.112   6.183   5.851  0.3379  0.0197 -0.0847
 5512TIP3    H137951   1.073   6.107   5.894  2.4300  0.3176  2.5008
 5512TIP3    H237952   1.058   6.197   5.773 -0.4855 -3.6867 -0.2686
 5513TIP3   OH237953   4.032   4.380   3.059  0.0148 -0.8047 -0.5511
 5513TIP3    H137954   4.027   4.317   2.988  1.1872  0.2836 -1.6327
 5513TIP3    H237955   3.972   4.450   3.033 -2.5242 -2.1804  1.4168
 5514TIP3   OH237956   1.298   4.249  11.685 -0.1011 -0.1803 -0.2731
 5514TIP3    H137957   1.341   4.259  11.600  0.9655  1.7469  0.4493
 5514TIP3    H237958   1.340   4.172  11.725 -0.7306 -1.1947 -1.5342
 5515TIP3   OH237959   3.480   1.323  12.258  0.2806 -0.4243 -0.3208
 5515TIP3    H137960   3.558   1.342  12.206  0.3057 -3.1009 -1.3434
 5515TIP3    H237961   3.413   1.303  12.192 -0.9651  0.6955  0.5863
 5516TIP3   OH237962   6.343   1.566   0.742  0.5203 -0.6997  0.2019
 5516TIP3    H137963   6.255   1.551   0.775  0.1307  2.2060  0.5857
 5516TIP3    H237964   6.330   1.608   0.657  1.5358 -0.3187  0.2214
 5517TIP3   OH237965   2.827   2.399   3.419 -0.0930  0.4287 -0.2506
 5517TIP3    H137966   2.823   2.412   3.324  0.5297  1.1159 -0.1895
 5517TIP3    H237967   2.840   2.487   3.454  1.5295 -0.0424  0.3629
 5518TIP3   OH237968   2.656   5.946  13.215  0.2639  0.0773  0.1881
 5518TIP3    H137969   2.682   6.008  13.147  0.2804  0.5032  0.5807
 5518TIP3    H237970   2.738   5.910  13.249  0.2747  0.2318  0.3238
 5519TIP3   OH237971   6.136   1.257   1.545 -0.4862  0.3898 -0.0600
 5519TIP3    H137972   6.044   1.250   1.519  0.0660 -0.1835 -1.9338
 5519TIP3    H237973   6.162   1.166   1.563  0.6533  0.0921 -2.9642
 5520TIP3   OH237974   3.335   2.245   0.948  0.1957 -0.5407  0.2812
 5520TIP3    H137975   3.382   2.324   0.925 -2.2671  1.7506  2.7073
 5520TIP3    H237976   3.254   2.249   0.897 -0.2287 -1.1612  0.8834
 5521TIP3   OH237977   3.516   0.064  17.213  0.3686 -0.3257  0.0419
 5521TIP3    H137978   3.516   0.086  17.119 -2.1038 -1.7537 -0.3271
 5521TIP3    H237979   3.493   0.146  17.256 -0.0761 -0.0277 -0.7308
 5522TIP3   OH237980   0.215   0.073  12.628 -0.0913  0.3943 -0.0187
 5522TIP3    H137981   0.278   0.002  12.638 -0.4950 -0.0427 -0.5108
 5522TIP3    H237982   0.198   0.077  12.533 -3.4522 -1.8716  0.3728
 5523TIP3   OH237983   4.886   4.052  14.822 -0.1197 -0.0211 -0.1665
 5523TIP3    H137984   4.896   4.005  14.739  0.0628  0.9750 -0.7215
 5523TIP3    H237985   4.809   4.014  14.862  0.1969 -1.0070 -0.4608
 5524TIP3   OH237986   1.998   5.160   1.712  0.3630 -0.1671 -0.4571
 5524TIP3    H137987   1.905   5.135   1.704  0.6155 -1.4049  0.2147
 5524TIP3    H237988   2.003   5.247   1.673 -1.0965 -0.0641 -0.4569
 5525TIP3   OH237989   2.629   6.568  12.074  0.2259  0.0241  0.6648
 5525TIP3    H137990   2.553   6.551  12.129  0.0143  0.0318  0.3747
 5525TIP3    H237991   2.654   6.658  12.095 -0.6844  0.4939 -0.2478
 5526TIP3   OH237992   0.604   5.019  14.538 -0.0643 -0.8100 -0.2355
 5526TIP3    H137993   0.679   5.071  14.566  0.7519 -1.8009 -0.5367
 5526TIP3    H237994   0.590   5.043  14.447  1.3815 -2.3443 -0.8795
 5527TIP3   OH237995   5.106   5.224  14.613  0.4587 -0.1963  0.3974
 5527TIP3    H137996   5.029   5.223  14.556  1.8069 -0.1883 -1.4923
 5527TIP3    H237997   5.130   5.132  14.622 -0.0038 -0.2274  1.3151
 5528TIP3   OH237998   2.131   5.308  14.987 -0.0124  0.0209  0.6743
 5528TIP3    H137999   2.223   5.323  14.965 -0.3984  1.1279 -0.2189
 5528TIP3    H238000   2.092   5.275  14.906 -0.3212 -0.8125  1.1619
 5529TIP3   OH238001   2.721   6.240   1.995 -0.2706  0.3471  0.0727
 5529TIP3    H138002   2.759   6.159   2.029 -0.1518  1.0324  1.5753
 5529TIP3    H238003   2.724   6.229   1.900 -1.0433 -1.7783  0.2749
 5530TIP3   OH238004   3.530   3.344   2.782  0.0400 -0.1924 -0.3745
 5530TIP3    H138005   3.608   3.307   2.741 -0.6295 -0.4774 -1.4112
 5530TIP3    H238006   3.492   3.272   2.832  0.4515 -0.0451  0.1575
 5531TIP3   OH238007   1.035   6.415  15.433  0.2782  0.3323 -0.3325
 5531TIP3    H138008   1.113   6.465  15.457  0.1536  0.1104  0.5463
 5531TIP3    H238009   1.026   6.428  15.339  0.6800  1.3475 -0.2336
 5532TIP3   OH238010   1.430   5.435  12.445 -0.3580 -0.1510 -1.1230
 5532TIP3    H138011   1.475   5.430  12.361  1.6264  1.2636 -0.1586
 5532TIP3    H238012   1.475   5.372  12.501 -2.5103 -2.0674 -1.4415
 5533TIP3   OH238013   3.002   1.123   3.568  0.2060 -0.4175 -0.0083
 5533TIP3    H138014   2.917   1.164   3.552  0.1107 -1.1510 -1.3785
 5533TIP3    H238015   2.993   1.082   3.654 -0.3374  0.7384  0.5064
 5534TIP3   OH238016   2.934   1.223   0.908  0.3005  0.0488  0.2450
 5534TIP3    H138017   2.953   1.307   0.950 -0.6868  0.4471 -0.0952
 5534TIP3    H238018   2.854   1.192   0.951  1.4716 -1.4335  1.4024
 5535TIP3   OH238019   4.357   5.547  12.004  0.0643  0.7000 -0.6293
 5535TIP3    H138020   4.281   5.601  12.030  0.9819  0.3055  3.2141
 5535TIP3    H238021   4.433   5.602  12.023  0.9158 -0.9848  1.0099
 5536TIP3   OH238022   2.895   4.363  14.592 -0.1030 -0.1770  0.2829
 5536TIP3    H138023   2.905   4.446  14.547 -1.1871  0.4241  1.1184
 5536TIP3    H238024   2.926   4.297  14.530  1.5656  0.9158 -0.0603
 5537TIP3   OH238025   6.585   1.428  12.664 -0.0885 -0.1474 -0.5287
 5537TIP3    H138026   6.510   1.394  12.616 -0.4309  0.6222 -0.5581
 5537TIP3    H238027   6.587   1.377  12.745  0.4656 -1.4085 -1.3425
 5538TIP3   OH238028   1.079   6.093  12.573 -0.4531  0.2163 -0.1718
 5538TIP3    H138029   0.999   6.045  12.597  0.8205 -1.1808  1.3758
 5538TIP3    H238030   1.108   6.133  12.655  0.2842  0.9445 -0.7918
 5539TIP3   OH238031   3.495   0.598  12.204 -0.2986  0.2547  0.4926
 5539TIP3    H138032   3.459   0.589  12.292 -1.9871  0.3161 -0.1638
 5539TIP3    H238033   3.427   0.562  12.147  0.7123  0.3558 -0.7958
 5540TIP3   OH238034   0.600   5.955   0.539  0.0362  0.1734 -0.6672
 5540TIP3    H138035   0.610   5.985   0.629 -0.7599  0.6345 -0.7259
 5540TIP3    H238036   0.678   5.987   0.494  1.3528 -1.6575  0.2630
 5541TIP3   OH238037   2.163   3.046   2.488 -0.2300  0.2580 -0.1960
 5541TIP3    H138038   2.102   3.052   2.415  0.7427  2.0883 -0.9137
 5541TIP3    H238039   2.142   3.122   2.543  0.2606 -0.0564  0.4331
 5542TIP3   OH238040   0.505   2.339  14.124  0.1574  0.3567 -0.6362
 5542TIP3    H138041   0.466   2.426  14.116 -1.9677 -0.5662 -0.4498
 5542TIP3    H238042   0.462   2.286  14.057 -1.3567 -1.5430  1.7671
 5543TIP3   OH238043   3.960   2.461  14.352 -0.2660 -0.4674  0.0655
 5543TIP3    H138044   3.979   2.496  14.439  3.2594 -2.1999  0.0990
 5543TIP3    H238045   3.946   2.538  14.297  1.5776  0.8264  1.3524
 5544TIP3   OH238046   3.217   1.892  15.232 -0.4474  0.2829  0.2555
 5544TIP3    H138047   3.215   1.808  15.186 -1.7935 -0.6922  2.0404
 5544TIP3    H238048   3.216   1.869  15.325 -0.7150  2.2742  0.7707
 5545TIP3   OH238049   3.877   3.215   0.718  0.2120  0.0427  0.0006
 5545TIP3    H138050   3.822   3.222   0.796  0.7187  0.8558  0.2850
 5545TIP3    H238051   3.957   3.174   0.749 -1.1336 -3.4390 -0.8682
 5546TIP3   OH238052   0.661   0.368   6.569  0.2859  0.2952  0.1202
 5546TIP3    H138053   0.684   0.429   6.500  0.7201 -0.5968 -0.5454
 5546TIP3    H238054   0.743   0.321   6.587 -0.0025  0.0157  0.7173
 5547TIP3   OH238055   6.105   6.325  17.026  0.3641  0.1280  0.5939
 5547TIP3    H138056   6.163   6.292  16.958  0.0204 -0.0820  0.4071
 5547TIP3    H238057   6.164   6.347  17.099  0.7102  0.2032  0.2908
 5548TIP3   OH238058   6.266   3.518  11.578  0.1773  0.4294  0.3454
 5548TIP3    H138059   6.309   3.603  11.572  1.4055 -0.2718 -1.2809
 5548TIP3    H238060   6.173   3.537  11.562  0.6428  1.3146 -1.4801
 5549TIP3   OH238061   2.988   0.409  14.095 -0.1554  0.1447  0.2329
 5549TIP3    H138062   3.009   0.336  14.037  1.7405  0.1346  0.8947
 5549TIP3    H238063   2.963   0.480  14.036  1.2438 -0.0272 -0.6062
 5550TIP3   OH238064   1.597   3.590  15.384 -0.3061 -0.3075 -0.3452
 5550TIP3    H138065   1.618   3.640  15.463 -1.7026  1.2140 -0.9012
 5550TIP3    H238066   1.681   3.557  15.353  0.5584  1.1387  0.4258
 5551TIP3   OH238067   2.728   3.767  10.835 -0.1444  0.4104 -0.5117
 5551TIP3    H138068   2.651   3.807  10.795  0.0021  0.1991 -1.0132
 5551TIP3    H238069   2.801   3.796  10.780  0.1552  0.7591  0.0701
 5552TIP3   OH238070   0.222   3.046   1.858  0.3641  0.0568  0.0957
 5552TIP3    H138071   0.307   3.003   1.864 -1.3039 -3.5066 -0.3346
 5552TIP3    H238072   0.208   3.057   1.764 -0.1782 -0.5636  0.0967
 5553TIP3   OH238073   5.847   5.279  14.619 -0.3378  0.2697  0.0572
 5553TIP3    H138074   5.820   5.351  14.561  0.3702  2.0443  1.8570
 5553TIP3    H238075   5.764   5.239  14.646 -0.8038  1.0998 -0.1030
 5554TIP3   OH238076   3.708   0.468   3.042 -0.2104  0.0648  0.0989
 5554TIP3    H138077   3.792   0.431   3.012 -0.3375 -0.5075  0.4281
 5554TIP3    H238078   3.659   0.485   2.962 -0.5941 -1.5574 -0.0240
 5555TIP3   OH238079   1.426   1.289   5.621  0.2178 -0.2704  0.5788
 5555TIP3    H138080   1.351   1.285   5.562  0.9712 -0.3762 -0.3765
 5555TIP3    H238081   1.402   1.355   5.686 -0.6272 -0.1776  0.1778
 5556TIP3   OH238082   3.495   2.660   2.462 -0.1163 -0.2643  0.1335
 5556TIP3    H138083   3.493   2.723   2.389 -0.4744  0.6621  0.9345
 5556TIP3    H238084   3.556   2.697   2.525  0.1504 -1.0386  0.3333
 5557TIP3   OH238085   4.962   0.803  14.086 -0.3557 -0.6388 -0.2074
 5557TIP3    H138086   4.991   0.721  14.044 -0.6324 -0.2397 -1.1777
 5557TIP3    H238087   4.870   0.811  14.062 -0.2904  0.0326 -0.2190
 5558TIP3   OH238088   3.293   3.039  12.783 -0.4789  0.1058  0.3910
 5558TIP3    H138089   3.328   3.072  12.701 -3.6010 -1.4640 -1.6694
 5558TIP3    H238090   3.273   3.118  12.834  0.5903  1.1105 -0.7224
 5559TIP3   OH238091   2.841   6.011   5.362  0.6580 -0.1934 -0.3634
 5559TIP3    H138092   2.756   6.016   5.317 -0.9894 -0.3170  2.5604
 5559TIP3    H238093   2.857   5.918   5.373  0.8790 -0.1586 -0.3859
 5560TIP3   OH238094   3.256   4.680   5.735 -0.1389  0.2794 -0.0175
 5560TIP3    H138095   3.242   4.672   5.641 -1.1587  0.8431  0.0770
 5560TIP3    H238096   3.178   4.727   5.767  0.2486  0.1876  1.0836
 5561TIP3   OH238097   1.286   4.564  11.216  0.1051  0.6308  0.0101
 5561TIP3    H138098   1.212   4.606  11.173  0.3842  1.5988  0.4660
 5561TIP3    H238099   1.318   4.629  11.279  0.5405 -0.2625  0.7265
 5562TIP3   OH238100   3.991   1.669  17.042  0.1969  0.0897  0.6516
 5562TIP3    H138101   4.043   1.671  16.961 -1.7183 -2.1186 -0.6901
 5562TIP3    H238102   3.955   1.757  17.050  0.4153  0.3309 -0.9084
 5563TIP3   OH238103   5.775   3.846  15.924 -0.1168  0.0785 -0.2264
 5563TIP3    H138104   5.725   3.778  15.969 -0.1868  0.6335  0.5390
 5563TIP3    H238105   5.863   3.809  15.916  0.6852  1.1310  3.0435
 5564TIP3   OH238106   1.889   1.434   4.001 -0.4090  0.0033  0.3930
 5564TIP3    H138107   1.940   1.417   3.922 -0.0136 -0.4490  0.7449
 5564TIP3    H238108   1.954   1.436   4.072 -0.9819 -1.5236  0.9839
 5565TIP3   OH238109   4.679   6.039  11.990  0.3308  0.3401 -0.7334
 5565TIP3    H138110   4.736   6.000  11.923 -0.5468 -0.9093 -0.7713
 5565TIP3    H238111   4.592   6.038  11.950 -0.3484 -1.1971  0.7344
 5566TIP3   OH238112   4.413   4.706   4.143  0.1900 -0.1855  0.1846
 5566TIP3    H138113   4.420   4.674   4.233  0.6937  0.6997  0.4725
 5566TIP3    H238114   4.330   4.753   4.140 -0.2257 -0.9290 -0.0493
 5567TIP3   OH238115   1.950   1.150  16.545 -0.3991 -0.5686  0.0168
 5567TIP3    H138116   1.967   1.172  16.637 -0.9276 -3.6004  0.9015
 5567TIP3    H238117   2.036   1.128  16.509 -0.1850  0.6653 -0.2552
 5568TIP3   OH238118   3.352   3.965   3.027 -0.1793 -0.1736 -0.6075
 5568TIP3    H138119   3.387   3.942   2.941 -0.5431 -0.6375 -0.6322
 5568TIP3    H238120   3.387   4.052   3.044 -0.1067 -0.0774 -1.2264
 5569TIP3   OH238121   4.780   1.777   3.333  0.3392 -0.5499  0.3809
 5569TIP3    H138122   4.843   1.710   3.306  1.1525 -0.2555  1.5064
 5569TIP3    H238123   4.746   1.745   3.416 -1.0594 -0.7414 -0.2602
 5570TIP3   OH238124   2.271   2.038  10.404 -0.0241 -0.0715  0.4960
 5570TIP3    H138125   2.258   1.948  10.373 -1.3102 -0.8362  3.0692
 5570TIP3    H238126   2.188   2.082  10.385  0.4908  0.4924 -0.4704
 5571TIP3   OH238127   1.099   2.169   0.979 -0.3096 -0.0196 -0.3116
 5571TIP3    H138128   1.006   2.183   0.992 -0.3248 -1.6587  1.6661
 5571TIP3    H238129   1.138   2.186   1.065  1.0445 -0.4745 -0.8202
 5572TIP3   OH238130   6.785   0.889   3.123 -0.4124  0.3401 -0.2655
 5572TIP3    H138131   6.746   0.976   3.112  0.6740  0.7180 -1.1814
 5572TIP3    H238132   6.734   0.832   3.065  0.2750  0.7928 -1.3112
 5573TIP3   OH238133   5.094   5.964   1.090  0.7530  0.2099 -0.4391
 5573TIP3    H138134   5.169   6.023   1.093  1.1153 -0.0477 -3.2852
 5573TIP3    H238135   5.019   6.022   1.077  0.7402  0.2509 -0.2025
 5574TIP3   OH238136   2.452   2.365   4.132  0.4507 -0.7643 -0.0366
 5574TIP3    H138137   2.432   2.354   4.225  1.3528 -1.8473  0.0402
 5574TIP3    H238138   2.407   2.446   4.107 -1.2591 -1.4153  0.9087
 5575TIP3   OH238139   1.155   3.440  16.894 -0.1702  0.6339 -0.1030
 5575TIP3    H138140   1.146   3.423  16.800  0.0775  0.0506 -0.0198
 5575TIP3    H238141   1.068   3.422  16.930  0.1575 -0.7016  0.0237
 5576TIP3   OH238142   3.436   2.365  17.016  0.0371 -1.1440 -0.2984
 5576TIP3    H138143   3.452   2.347  17.108  0.6456 -0.3557 -0.2412
 5576TIP3    H238144   3.428   2.461  17.012 -3.1967 -1.3717 -0.5684
 5577TIP3   OH238145   5.739   6.256   1.564  0.0273 -0.2227  0.0045
 5577TIP3    H138146   5.694   6.263   1.480  0.0444 -0.1507  0.0019
 5577TIP3    H238147   5.699   6.324   1.619  2.1991  1.8708 -0.9123
 5578TIP3   OH238148   5.837   3.302  14.923 -0.3868  0.2076 -0.0590
 5578TIP3    H138149   5.803   3.373  14.869 -0.6586 -0.8108 -1.2502
 5578TIP3    H238150   5.909   3.265  14.871  0.1647  0.0141  0.8261
 5579TIP3   OH238151   1.435   0.134   2.855  0.3276  0.3914 -0.6399
 5579TIP3    H138152   1.457   0.055   2.904 -1.1518  0.9915  1.0298
 5579TIP3    H238153   1.519   0.180   2.844  0.9054 -0.5103 -0.0470
 5580TIP3   OH238154   3.999   5.831   6.030  0.8171 -0.3317 -0.7613
 5580TIP3    H138155   3.920   5.812   5.979  1.0213 -0.8710 -0.8833
 5580TIP3    H238156   3.997   5.767   6.102  0.7020  0.2082 -0.2743
 5581TIP3   OH238157   0.108   6.194  15.796 -0.4179 -0.0130 -0.1142
 5581TIP3    H138158   0.039   6.127  15.798 -1.5474  1.1527  0.8153
 5581TIP3    H238159   0.117   6.222  15.887  0.7673  0.3774 -0.3407
 5582TIP3   OH238160   5.801   5.335  11.854 -0.2098  0.3781 -0.4278
 5582TIP3    H138161   5.763   5.326  11.941 -1.0513  0.3071 -0.8028
 5582TIP3    H238162   5.886   5.291  11.860  0.3890  1.6652  0.7673
 5583TIP3   OH238163   4.289   0.437   1.232  0.4877  0.0346  0.2453
 5583TIP3    H138164   4.225   0.415   1.164  1.9979 -2.6311 -0.3774
 5583TIP3    H238165   4.357   0.486   1.186 -0.5100  1.8930  0.6940
 5584TIP3   OH238166   4.841   2.457   4.576 -0.4986  1.0111 -0.5890
 5584TIP3    H138167   4.850   2.400   4.652  0.5501 -1.3366 -2.4345
 5584TIP3    H238168   4.751   2.445   4.546  0.1101 -0.7586 -1.7781
 5585TIP3   OH238169   4.873   0.147   4.857  0.6404  0.3635 -0.6077
 5585TIP3    H138170   4.807   0.139   4.788  0.1948  1.0787 -0.2665
 5585TIP3    H238171   4.897   0.240   4.856  0.3739  0.4440  0.4413
 5586TIP3   OH238172   3.080   5.479  16.312 -0.2977  0.4100 -0.2337
 5586TIP3    H138173   3.122   5.430  16.242 -0.5021  0.0866 -0.1296
 5586TIP3    H238174   3.007   5.424  16.339  1.6329 -0.9431  2.4107
 5587TIP3   OH238175   3.878   6.540   1.320  0.4626 -0.1561 -0.3646
 5587TIP3    H138176   3.788   6.508   1.333  0.6818  0.0544  1.8069
 5587TIP3    H238177   3.870   6.635   1.323  0.5153 -0.0729 -2.0605
 5588TIP3   OH238178   4.385   1.911   3.716 -0.4416  0.2428  0.5497
 5588TIP3    H138179   4.312   1.851   3.727 -0.0202 -0.5622 -0.8821
 5588TIP3    H238180   4.344   1.996   3.699 -1.0454 -0.0562  0.5097
 5589TIP3   OH238181   6.742   3.389  14.903  0.2291 -0.0307  0.3185
 5589TIP3    H138182   6.706   3.303  14.880 -0.0814  0.3376 -0.6178
 5589TIP3    H238183   6.666   3.447  14.904  0.9393  1.1942 -3.7367
 5590TIP3   OH238184   1.267   1.485  14.669  0.1679 -0.3426  0.3498
 5590TIP3    H138185   1.246   1.500  14.761 -1.6873  1.8850 -0.3734
 5590TIP3    H238186   1.360   1.504  14.662 -0.4047  3.1733  1.1319
 5591TIP3   OH238187   3.757   4.470  17.191  0.3358  0.2861 -0.1085
 5591TIP3    H138188   3.692   4.401  17.208 -0.3931  0.7962 -0.8151
 5591TIP3    H238189   3.815   4.432  17.125 -0.4656  0.5954 -0.9973
 5592TIP3   OH238190   2.000   4.106   3.889  0.0608  0.1510 -0.2004
 5592TIP3    H138191   2.023   4.151   3.970 -0.2975 -0.0229 -0.0044
 5592TIP3    H238192   1.943   4.034   3.916  1.6398 -1.2036 -0.3664
 5593TIP3   OH238193   1.171   6.265   1.564 -0.1348 -0.6934 -0.6165
 5593TIP3    H138194   1.110   6.320   1.613  0.7924  0.9267 -1.2590
 5593TIP3    H238195   1.118   6.224   1.496 -0.5151  0.6894 -1.1602
 5594TIP3   OH238196   0.152   0.227  16.776  0.3514 -0.3009  0.6342
 5594TIP3    H138197   0.058   0.212  16.773  0.4391 -0.6616 -1.1194
 5594TIP3    H238198   0.163   0.302  16.833 -1.0788  0.2864  0.1651
 5595TIP3   OH238199   3.346   4.845  15.640 -0.0828  0.4406  0.3907
 5595TIP3    H138200   3.400   4.860  15.562  0.2793  0.7779  0.7087
 5595TIP3    H238201   3.272   4.904  15.630 -0.5690 -0.2555 -0.2098
 5596TIP3   OH238202   0.300   4.539  12.987  0.2651  0.5817 -0.8140
 5596TIP3    H138203   0.311   4.499  13.073 -1.5698  0.5038 -0.5957
 5596TIP3    H238204   0.386   4.533  12.946  0.8905 -0.3240  0.6096
 5597TIP3   OH238205   3.646   3.465  16.733 -0.2146 -0.0326  0.2913
 5597TIP3    H138206   3.567   3.513  16.757 -1.5164 -1.8801 -0.1163
 5597TIP3    H238207   3.617   3.407  16.662  1.8407  0.2266 -0.7991
 5598TIP3   OH238208   4.191   4.790   4.468  0.1405 -0.0682  0.1204
 5598TIP3    H138209   4.234   4.872   4.442  1.8412 -1.2602 -0.8836
 5598TIP3    H238210   4.189   4.794   4.564 -0.2894  1.3969  0.0665
 5599TIP3   OH238211   3.575   3.017   5.365  0.7569  0.7589 -0.0502
 5599TIP3    H138212   3.576   3.112   5.363  1.4108  0.7538 -0.0975
 5599TIP3    H238213   3.483   2.994   5.377  0.4302  1.3756 -1.2935
 5600TIP3   OH238214   6.383   5.874  10.815 -0.3327 -0.1873 -0.3523
 5600TIP3    H138215   6.298   5.871  10.772 -0.7193  1.3639  0.2665
 5600TIP3    H238216   6.401   5.783  10.840 -1.7391 -0.5442 -0.6057
 5601TIP3   OH238217   3.468   4.871   2.980 -0.5099 -0.5630  0.1824
 5601TIP3    H138218   3.553   4.901   3.014 -0.7884 -0.3962  0.7358
 5601TIP3    H238219   3.456   4.921   2.899 -0.3026 -0.2273  0.3544
 5602TIP3   OH238220   5.859   5.265  16.144  0.5999 -0.6342  0.3545
 5602TIP3    H138221   5.924   5.213  16.192 -2.9361 -2.9432  2.8282
 5602TIP3    H238222   5.844   5.216  16.063  0.3144 -1.2331  0.7741
 5603TIP3   OH238223   4.171   0.787  16.861 -0.4637 -0.1274  0.0950
 5603TIP3    H138224   4.150   0.768  16.952 -1.2638  1.2388  0.2036
 5603TIP3    H238225   4.103   0.848  16.832 -0.9972 -1.5771 -1.8238
 5604TIP3   OH238226   3.309   6.293  11.452  0.3564  0.0627  0.5920
 5604TIP3    H138227   3.389   6.319  11.408 -0.5447  0.0477 -1.0844
 5604TIP3    H238228   3.326   6.309  11.545  2.2280  0.2023  0.2351
 5605TIP3   OH238229   3.916   3.622   1.874 -0.4104 -0.2914  0.2261
 5605TIP3    H138230   3.877   3.700   1.911  0.2295 -0.0254  0.3445
 5605TIP3    H238231   3.999   3.611   1.921  0.2040 -0.1879 -0.8155
 5606TIP3   OH238232   5.335   6.365   1.216 -0.9619  0.1383 -0.6637
 5606TIP3    H138233   5.351   6.430   1.147 -1.3761  0.0575 -0.8378
 5606TIP3    H238234   5.242   6.376   1.239 -0.6322  0.7198  0.4484
 5607TIP3   OH238235   1.904   5.384  15.890 -0.2849 -0.5604 -0.0822
 5607TIP3    H138236   1.820   5.431  15.891 -0.5858 -1.1006  0.4085
 5607TIP3    H238237   1.949   5.415  15.969 -0.2783 -0.7186 -0.0229
 5608TIP3   OH238238   6.141   2.386   4.618 -0.6343  0.6207 -0.2929
 5608TIP3    H138239   6.184   2.305   4.589 -0.5948  0.3430  0.5363
 5608TIP3    H238240   6.196   2.455   4.581 -0.2648  0.2700 -0.4140
 5609TIP3   OH238241   0.485   1.635  13.155 -0.0316  0.2248 -0.1918
 5609TIP3    H138242   0.434   1.704  13.198 -1.0001 -1.7162  1.8812
 5609TIP3    H238243   0.458   1.639  13.063 -1.6525  1.2464  0.3076
 5610TIP3   OH238244   2.662   3.521   4.619 -0.3139 -0.2770 -0.0279
 5610TIP3    H138245   2.639   3.556   4.533 -1.7739  0.5183  0.6740
 5610TIP3    H238246   2.609   3.572   4.680  1.2218 -0.3666  1.4026
 5611TIP3   OH238247   6.344   6.282  13.625 -0.4573  0.2408  0.1806
 5611TIP3    H138248   6.307   6.325  13.702  0.6159  0.0055  0.8457
 5611TIP3    H238249   6.416   6.339  13.598 -1.4737  0.8618 -1.2907
 5612TIP3   OH238250   4.762   5.574   4.353 -0.2696 -0.2826 -0.1661
 5612TIP3    H138251   4.700   5.521   4.303 -0.3532  0.6607 -1.0833
 5612TIP3    H238252   4.722   5.661   4.357 -0.5705 -0.4961  2.1201
 5613TIP3   OH238253   1.628   1.908   3.713 -0.0843  0.7672 -0.8508
 5613TIP3    H138254   1.562   1.843   3.738  0.0478  0.6092 -0.9150
 5613TIP3    H238255   1.625   1.974   3.782  0.3769  0.2643 -0.3486
 5614TIP3   OH238256   3.356   4.741  13.630 -0.4765  0.5648 -0.0139
 5614TIP3    H138257   3.419   4.671  13.610  1.0827  1.0618  2.8493
 5614TIP3    H238258   3.309   4.755  13.548  1.8782 -1.1226 -1.7285
 5615TIP3   OH238259   6.443   5.100   5.368  0.5869 -0.0661 -0.0980
 5615TIP3    H138260   6.470   5.074   5.456  0.1388 -0.5939 -0.1127
 5615TIP3    H238261   6.488   5.183   5.353  2.1271 -0.8752 -0.0850
 5616TIP3   OH238262   5.660   5.171  13.852  0.6640 -0.2356 -0.5510
 5616TIP3    H138263   5.718   5.247  13.861 -0.3315  0.7156 -1.9754
 5616TIP3    H238264   5.646   5.162  13.758 -0.1753 -1.4706 -0.3248
 5617TIP3   OH238265   2.370   0.830   2.064 -0.4276  0.2179  0.2572
 5617TIP3    H138266   2.298   0.881   2.102 -1.8861 -1.9949  0.5764
 5617TIP3    H238267   2.429   0.813   2.138  0.2238  1.6480  0.0877
 5618TIP3   OH238268   4.887   0.806   1.119  0.3919  0.0794 -0.2860
 5618TIP3    H138269   4.889   0.822   1.025  0.4423  0.7882 -0.1718
 5618TIP3    H238270   4.849   0.886   1.156  1.3136  0.2169  0.3772
 5619TIP3   OH238271   5.340   6.560   5.293  0.8223  0.2445  0.0218
 5619TIP3    H138272   5.396   6.499   5.342  1.0112 -0.5131 -1.1219
 5619TIP3    H238273   5.353   6.644   5.336  0.3689 -0.5604  1.7802
 5620TIP3   OH238274   0.070   5.924   4.178  0.3527 -0.1535 -0.4391
 5620TIP3    H138275  -0.018   5.906   4.146  0.7908 -1.7500 -0.8013
 5620TIP3    H238276   0.121   5.941   4.099  0.6941 -0.7379 -0.3489
 5621TIP3   OH238277   3.165   4.332   5.646  0.0556 -0.1728  0.2322
 5621TIP3    H138278   3.125   4.419   5.637 -0.0641 -0.4309 -2.1735
 5621TIP3    H238279   3.255   4.344   5.616 -0.5738 -1.2946 -2.2663
 5622TIP3   OH238280   0.681   3.184  13.949 -0.4899 -0.4614 -0.1107
 5622TIP3    H138281   0.660   3.267  13.991 -1.8723 -0.9626  0.2269
 5622TIP3    H238282   0.728   3.208  13.869  1.5038  0.5341  1.3120
 5623TIP3   OH238283   3.722   4.207  13.255  0.1896  0.1064 -0.0468
 5623TIP3    H138284   3.778   4.185  13.180  0.2757 -2.2925  0.6949
 5623TIP3    H238285   3.649   4.256  13.216  1.1903  0.5527 -1.4278
 5624TIP3   OH238286   3.517   3.812   4.712 -0.4478  0.0447 -0.2743
 5624TIP3    H138287   3.476   3.866   4.644 -1.6065 -1.2923 -0.6592
 5624TIP3    H238288   3.526   3.871   4.787 -2.9905  0.4206 -0.2105
 5625TIP3   OH238289   1.873   2.941   6.185  0.0468  0.0433 -0.3933
 5625TIP3    H138290   1.879   2.853   6.224 -0.0563  0.4132  0.4833
 5625TIP3    H238291   1.786   2.972   6.209 -0.6296 -0.3540 -2.3231
 5626TIP3   OH238292   1.546   0.147  11.330  0.3235 -0.0574 -0.1800
 5626TIP3    H138293   1.595   0.065  11.325 -0.8961 -0.7664 -0.7085
 5626TIP3    H238294   1.599   0.203  11.386  1.3550 -1.0786 -0.1147
 5627TIP3   OH238295   4.771   5.931   1.381  0.3172  0.7191 -0.1991
 5627TIP3    H138296   4.810   6.014   1.355  0.4023  0.1807 -1.8567
 5627TIP3    H238297   4.682   5.953   1.407 -0.4185  1.0490 -2.8481
 5628TIP3   OH238298   3.259   2.662  16.272  0.0638 -1.0322  0.3283
 5628TIP3    H138299   3.327   2.708  16.321 -0.1952 -0.4938  0.1922
 5628TIP3    H238300   3.177   2.698  16.306 -0.0916  1.1078 -2.1570
 5629TIP3   OH238301   6.631   0.036   0.208 -0.3920  0.1581  0.4904
 5629TIP3    H138302   6.549   0.013   0.252 -0.3523  0.1846  0.5780
 5629TIP3    H238303   6.662  -0.046   0.171 -0.5223  0.1714  0.3480
 5630TIP3   OH238304   5.396   3.137   3.134  0.7444 -0.0953  0.1671
 5630TIP3    H138305   5.417   3.089   3.214  2.3122 -0.0381 -0.1892
 5630TIP3    H238306   5.476   3.185   3.114  0.0457  0.6370 -0.9221
 5631TIP3   OH238307   5.868   0.009  15.744  0.1928 -0.2451 -0.1764
 5631TIP3    H138308   5.956   0.039  15.768  0.7217 -2.6569  1.0752
 5631TIP3    H238309   5.881  -0.042  15.664  0.3481 -2.6729  1.3563
 5632TIP3   OH238310   0.432   5.769  14.272  0.1748 -0.0480  0.8994
 5632TIP3    H138311   0.364   5.703  14.288 -1.0979  0.8335 -0.7917
 5632TIP3    H238312   0.506   5.740  14.326 -0.7140 -2.2942  0.9637
 5633TIP3   OH238313   3.454   1.446   5.473 -0.4060  0.3045  0.1209
 5633TIP3    H138314   3.417   1.358   5.463 -0.1311  0.3236 -1.2173
 5633TIP3    H238315   3.513   1.455   5.398  1.8811  0.5107  1.8702
 5634TIP3   OH238316   0.160   0.864  16.840 -0.8014  0.3583 -0.2428
 5634TIP3    H138317   0.215   0.926  16.792  0.0610 -0.6563 -0.5769
 5634TIP3    H238318   0.177   0.882  16.932 -0.9392  0.9554 -0.3303
 5635TIP3   OH238319   4.016   6.681  11.830 -0.3549  0.1540  0.3181
 5635TIP3    H138320   4.049   6.591  11.821 -2.0586 -0.7432  2.4875
 5635TIP3    H238321   3.925   6.675  11.802 -0.9571  0.8224  2.0984
 5636TIP3   OH238322   4.425   0.152  14.098 -0.3749 -0.8536 -0.5712
 5636TIP3    H138323   4.358   0.099  14.055 -0.6436 -1.8255  0.9776
 5636TIP3    H238324   4.380   0.234  14.120 -0.3569 -0.5316 -1.7300
 5637TIP3   OH238325   3.558   2.982   2.446 -0.1291  0.3727  0.5512
 5637TIP3    H138326   3.464   3.002   2.439  0.1983  1.3616 -1.4063
 5637TIP3    H238327   3.592   3.052   2.502 -0.0745  1.7534 -1.1629
 5638TIP3   OH238328   2.354   6.622   2.929 -0.0068 -0.1931  0.1000
 5638TIP3    H138329   2.398   6.623   3.014  0.1154  0.8761  0.0305
 5638TIP3    H238330   2.267   6.657   2.946  0.5169  1.4550 -0.4660
 5639TIP3   OH238331   4.685   2.599  17.040  0.3292 -0.5765  0.0669
 5639TIP3    H138332   4.604   2.642  17.068  0.1573 -1.5496  1.1345
 5639TIP3    H238333   4.656   2.525  16.987  0.3916 -2.1212  2.1045
 5640TIP3   OH238334   1.767   4.113  13.732 -0.5718  0.2048 -0.2145
 5640TIP3    H138335   1.743   4.059  13.807 -1.1539 -1.3717 -1.5055
 5640TIP3    H238336   1.854   4.148  13.754 -0.4820 -0.7157  0.9253
 5641TIP3   OH238337   2.120   6.081   3.186  0.3927  0.2633  0.1967
 5641TIP3    H138338   2.070   6.150   3.142 -0.7419 -1.0473 -0.5985
 5641TIP3    H238339   2.160   6.031   3.115  1.5534  0.3401  0.7871
 5642TIP3   OH238340   0.689   3.143  10.672  0.5504  0.1244 -0.4031
 5642TIP3    H138341   0.619   3.182  10.620  0.9982  2.5927  0.7944
 5642TIP3    H238342   0.743   3.097  10.608  0.4100  2.0572 -1.9463
 5643TIP3   OH238343   5.866   1.325  17.221 -0.2373 -0.6863 -0.4672
 5643TIP3    H138344   5.839   1.395  17.162 -0.9119  0.0481  0.7081
 5643TIP3    H238345   5.784   1.288  17.254  0.1276 -1.4759 -0.4289
 5644TIP3   OH238346   0.459   1.020   5.138 -0.2948  0.4456 -0.1836
 5644TIP3    H138347   0.472   0.951   5.203  1.9472  0.9571 -0.0606
 5644TIP3    H238348   0.378   0.995   5.093  0.3796 -2.1937 -0.0166
 5645TIP3   OH238349   6.009   6.251   4.250  0.1904  0.5127  0.1035
 5645TIP3    H138350   6.097   6.217   4.235  0.9088  1.7514  1.4517
 5645TIP3    H238351   5.995   6.314   4.179 -0.5072 -1.3249 -1.4334
 5646TIP3   OH238352   5.684   1.972  13.863  0.4012 -0.3659  0.1978
 5646TIP3    H138353   5.603   1.988  13.815  1.0322 -0.1791 -0.8271
 5646TIP3    H238354   5.753   1.988  13.799  1.2215 -1.4751  0.7839
 5647TIP3   OH238355   6.724   3.945   3.542  0.0623  0.4094 -0.4374
 5647TIP3    H138356   6.797   3.883   3.537  0.8436  1.3563 -1.1122
 5647TIP3    H238357   6.747   4.013   3.478 -2.1991 -0.1087 -1.8248
 5648TIP3   OH238358   5.806   2.506   3.293 -0.6671 -0.1446 -0.1640
 5648TIP3    H138359   5.784   2.597   3.274 -0.7926 -0.3937 -1.2013
 5648TIP3    H238360   5.728   2.457   3.270 -1.4970 -0.2797  2.6726
 5649TIP3   OH238361   3.406   0.989   0.839 -0.0481 -0.4842  0.0762
 5649TIP3    H138362   3.492   0.949   0.853  0.4951  0.4814 -0.4761
 5649TIP3    H238363   3.390   0.978   0.745 -0.3291 -0.2623  0.0987
 5650TIP3   OH238364   3.960   5.017   5.238  0.6609 -0.0891  0.3200
 5650TIP3    H138365   3.922   4.990   5.155  0.5397  0.5457  0.1674
 5650TIP3    H238366   4.023   4.949   5.259  1.0589  0.0123 -0.5404
 5651TIP3   OH238367   1.459   5.917  15.964 -0.7731  0.2846  0.6742
 5651TIP3    H138368   1.402   5.989  15.994 -3.3330 -0.8400 -1.3005
 5651TIP3    H238369   1.518   5.901  16.038 -0.9220  3.6108  1.5997
 5652TIP3   OH238370   6.772   2.808  16.239 -0.2388 -0.0124  0.2550
 5652TIP3    H138371   6.747   2.798  16.331 -2.3417  0.5798 -0.2332
 5652TIP3    H238372   6.818   2.727  16.218  1.2489  0.3121  2.1308
 5653TIP3   OH238373   1.874   5.242   2.693  0.0178 -0.1464 -0.0732
 5653TIP3    H138374   1.829   5.310   2.643 -1.0607 -0.3996  0.5309
 5653TIP3    H238375   1.961   5.237   2.654  0.5848  2.5398  0.7940
 5654TIP3   OH238376   3.070   1.794  12.204  0.0385 -0.2340  0.0678
 5654TIP3    H138377   3.120   1.737  12.146  1.1037 -0.2489  0.9855
 5654TIP3    H238378   3.048   1.870  12.150  0.1064 -0.7255 -0.6545
 5655TIP3   OH238379   4.570   4.194  12.438 -0.2508  0.3476 -0.1492
 5655TIP3    H138380   4.598   4.250  12.510 -3.3422 -0.5862  1.8676
 5655TIP3    H238381   4.590   4.105  12.468 -1.3185 -0.0291 -0.5263
 5656TIP3   OH238382   1.950   5.773   6.564  0.8948  0.5370 -0.3076
 5656TIP3    H138383   1.856   5.766   6.578  1.1969  0.5337  1.9747
 5656TIP3    H238384   1.970   5.864   6.587  2.0182 -0.5250  3.1230
 5657TIP3   OH238385   4.873   2.162   6.258  0.4118  0.8441  0.2143
 5657TIP3    H138386   4.938   2.208   6.205 -0.4477  0.3895 -1.2592
 5657TIP3    H238387   4.789   2.202   6.233 -0.0953  0.0293  0.5934
 5658TIP3   OH238388   1.103   5.336   1.247  0.4578  0.5247 -0.1916
 5658TIP3    H138389   1.118   5.259   1.301 -0.8864  0.2433 -0.1940
 5658TIP3    H238390   1.177   5.340   1.188  0.6026 -0.6854 -0.0922
 5659TIP3   OH238391   4.689   4.464  11.058  0.7263 -0.0370  0.3593
 5659TIP3    H138392   4.624   4.500  10.997  3.1243 -0.6664 -2.6583
 5659TIP3    H238393   4.680   4.369  11.049 -0.8570 -0.2375  3.2163
 5660TIP3   OH238394   0.290   0.553   1.010  0.1194 -0.1763  0.8335
 5660TIP3    H138395   0.240   0.472   1.018 -0.5549  0.0989 -0.5048
 5660TIP3    H238396   0.355   0.535   0.942  0.5350  0.1306  1.1396
 5661TIP3   OH238397   5.420   5.777  16.770 -0.3290 -0.8793  0.6527
 5661TIP3    H138398   5.494   5.744  16.719 -2.4635 -2.0520 -1.7500
 5661TIP3    H238399   5.401   5.863  16.732 -1.3174 -1.3403  0.1110
 5662TIP3   OH238400   4.361   6.774   4.528 -0.1267  0.5136 -0.2683
 5662TIP3    H138401   4.280   6.753   4.482 -0.8808 -0.2421  1.3589
 5662TIP3    H238402   4.392   6.690   4.561 -1.0521  1.3656  2.8981
 5663TIP3   OH238403   6.383   5.178  13.102 -0.0685 -0.4756 -0.0021
 5663TIP3    H138404   6.328   5.180  13.180 -0.3691 -1.8560 -0.1671
 5663TIP3    H238405   6.330   5.219  13.034 -0.2482 -0.2987  0.2478
 5664TIP3   OH238406   3.923   3.562   2.644  0.3354  0.6865  0.3913
 5664TIP3    H138407   3.946   3.606   2.725 -1.3662 -0.8898  1.7805
 5664TIP3    H238408   3.832   3.587   2.628 -0.7336 -2.3943  1.3138
 5665TIP3   OH238409   1.918   6.430  11.529 -0.6529  0.6117  0.8864
 5665TIP3    H138410   2.005   6.401  11.556  0.6865  4.3719  0.8614
 5665TIP3    H238411   1.914   6.413  11.435 -0.6212 -1.1494  1.1984
 5666TIP3   OH238412   1.825   0.893  16.595  0.4171  0.1014  0.0547
 5666TIP3    H138413   1.898   0.831  16.608 -2.5982 -2.9953  3.3203
 5666TIP3    H238414   1.831   0.952  16.671 -0.8231 -0.5624  0.6776
 5667TIP3   OH238415   5.313   5.643   3.885  0.1475 -0.1422  0.3491
 5667TIP3    H138416   5.236   5.700   3.879 -0.1122 -0.4970  0.2836
 5667TIP3    H238417   5.287   5.563   3.840  0.4257 -0.4028  0.6542
 5668TIP3   OH238418   6.327   1.028   1.675 -0.0301  0.1245 -0.2705
 5668TIP3    H138419   6.367   1.112   1.700  1.4161 -0.9677  1.2088
 5668TIP3    H238420   6.306   0.986   1.758  1.1519 -1.8672 -0.9574
 5669TIP3   OH238421   1.015   2.097   4.139  0.4720  0.1168 -0.0711
 5669TIP3    H138422   0.974   2.027   4.089  2.1743 -1.4970  0.7657
 5669TIP3    H238423   0.965   2.102   4.220  0.7123 -0.5477  0.1228
 5670TIP3   OH238424   2.109   2.915   1.842  0.4542 -0.0102 -0.8336
 5670TIP3    H138425   2.103   2.976   1.768 -1.2871  0.7697 -0.0656
 5670TIP3    H238426   2.086   2.830   1.805 -0.5391  0.4004 -1.1787
 5671TIP3   OH238427   4.502   3.910   1.787  0.4806  0.2212 -0.4218
 5671TIP3    H138428   4.475   3.991   1.743 -0.3238  0.2137  0.0590
 5671TIP3    H238429   4.449   3.906   1.866  0.7530 -0.6113 -0.2723
 5672TIP3   OH238430   1.565   0.271  12.120  0.0930 -0.1770 -0.3280
 5672TIP3    H138431   1.606   0.340  12.069 -0.9848  0.4784 -0.3095
 5672TIP3    H238432   1.515   0.220  12.056  0.3452 -0.5439 -0.2382
 5673TIP3   OH238433   1.099   3.691   2.177  0.2549  0.3721 -0.1844
 5673TIP3    H138434   1.180   3.657   2.215 -0.7413  0.3042  1.9703
 5673TIP3    H238435   1.116   3.694   2.083  2.7061  0.2495  0.2213
 5674TIP3   OH238436   1.924   3.335   0.160 -0.7804 -0.4310  0.1545
 5674TIP3    H138437   1.927   3.291   0.245 -1.1220 -0.0978  0.3385
 5674TIP3    H238438   1.852   3.397   0.168 -0.4578 -0.0128 -0.1920
 5675TIP3   OH238439   3.108   6.408   0.309 -0.1556 -0.4017 -0.8412
 5675TIP3    H138440   3.151   6.441   0.388  0.2539  0.0383 -1.2496
 5675TIP3    H238441   3.146   6.321   0.297  1.6288  0.5012 -1.9567
 5676TIP3   OH238442   5.537   2.071  15.710 -0.4273  0.2176 -0.2461
 5676TIP3    H138443   5.471   2.058  15.641 -2.1745  2.6684  0.8860
 5676TIP3    H238444   5.596   2.138  15.674 -1.3217  1.4736  0.5770
 5677TIP3   OH238445   4.018   5.556   4.690 -0.2742 -0.1769  0.1476
 5677TIP3    H138446   4.077   5.497   4.643 -0.5848  0.6218 -1.2654
 5677TIP3    H238447   4.076   5.620   4.732 -0.1665  1.5408 -2.5125
 5678TIP3   OH238448   0.583   2.335   4.534 -0.4259 -0.2117  0.6613
 5678TIP3    H138449   0.654   2.371   4.587 -1.3312 -0.0762  1.8195
 5678TIP3    H238450   0.615   2.339   4.444  0.5799  0.9134  1.0514
 5679TIP3   OH238451   3.530   4.601  16.914 -0.0425  0.1663  0.0020
 5679TIP3    H138452   3.451   4.570  16.870  2.5676 -2.0695 -3.3146
 5679TIP3    H238453   3.503   4.683  16.957 -3.7239  0.2944 -2.3886
 5680TIP3   OH238454   6.718   3.519   5.222 -0.3420 -0.1756  0.3497
 5680TIP3    H138455   6.622   3.517   5.225 -0.5851  0.3764 -3.8225
 5680TIP3    H238456   6.741   3.602   5.265 -1.6749 -0.4919  1.7406
 5681TIP3   OH238457   0.237   4.331  14.821 -0.4047 -0.3563  0.3842
 5681TIP3    H138458   0.319   4.313  14.775 -0.2672 -2.1405  1.3008
 5681TIP3    H238459   0.201   4.407  14.775  1.3785 -0.0104 -0.5068
 5682TIP3   OH238460   6.608   2.826   5.196  0.1594  0.1244 -0.1846
 5682TIP3    H138461   6.651   2.778   5.125 -1.9309 -0.3524 -1.1750
 5682TIP3    H238462   6.562   2.898   5.152  1.1117  1.5167  1.0150
 5683TIP3   OH238463   5.305   5.351  13.418 -0.1955 -0.0409 -0.0397
 5683TIP3    H138464   5.397   5.377  13.419  0.4373 -2.2701  0.9995
 5683TIP3    H238465   5.297   5.296  13.340 -0.0901 -1.7148  1.1006
 5684TIP3   OH238466   2.270   0.436   1.456  0.4834  0.5745 -0.0556
 5684TIP3    H138467   2.187   0.422   1.502  0.4254 -0.4497 -0.4603
 5684TIP3    H238468   2.277   0.362   1.396  0.4901  1.9683 -1.8120
 5685TIP3   OH238469   0.994   5.291   3.270 -0.0834 -0.1800 -0.8232
 5685TIP3    H138470   0.924   5.336   3.222 -0.4095 -1.2040 -1.3117
 5685TIP3    H238471   1.060   5.271   3.203  0.0123 -0.5399 -0.6207
 5686TIP3   OH238472   5.521   2.734   3.605 -0.0108  0.2119 -0.0871
 5686TIP3    H138473   5.515   2.807   3.666  1.6479  0.5694 -0.3273
 5686TIP3    H238474   5.521   2.656   3.660  0.7855  0.5074  0.3329
 5687TIP3   OH238475   2.313   2.247  15.655 -0.5961 -0.6546  0.1709
 5687TIP3    H138476   2.354   2.162  15.639 -1.6362 -0.8544 -1.7083
 5687TIP3    H238477   2.227   2.240  15.613 -0.7409  1.2859  0.0878
 5688TIP3   OH238478   5.095   3.481   2.455 -0.3708  0.0413 -0.4664
 5688TIP3    H138479   5.097   3.450   2.545 -0.6940 -1.2588 -0.8971
 5688TIP3    H238480   5.169   3.437   2.412  0.9942  2.1485 -0.3829
 5689TIP3   OH238481   5.428   4.108  14.697 -0.3434 -0.0443 -0.5616
 5689TIP3    H138482   5.450   4.178  14.760  2.1962  0.0012 -1.4331
 5689TIP3    H238483   5.333   4.115  14.685 -0.3907  2.0502  0.7869
 5690TIP3   OH238484   0.534   2.369   4.095  0.0973  0.7161  1.0992
 5690TIP3    H138485   0.441   2.384   4.083  0.3358  0.9066 -0.6249
 5690TIP3    H238486   0.541   2.275   4.112 -0.2594  0.3659 -0.5883
 5691TIP3   OH238487   1.562   5.671   2.285 -0.4950  0.2964 -0.2662
 5691TIP3    H138488   1.475   5.645   2.257  0.4492 -3.3910  0.0075
 5691TIP3    H238489   1.567   5.645   2.377  0.1559  2.5022  0.3569
 5692TIP3   OH238490   0.562   4.864  16.844  0.3643  0.1096  0.5141
 5692TIP3    H138491   0.591   4.821  16.764  2.3401 -1.5884  2.0811
 5692TIP3    H238492   0.585   4.956  16.831  0.3587 -0.0901 -1.0014
 5693TIP3   OH238493   0.875   3.647  16.336 -0.5776 -0.3245  0.0738
 5693TIP3    H138494   0.952   3.677  16.287 -0.5701  0.3085  0.4785
 5693TIP3    H238495   0.909   3.621  16.421 -0.1668 -3.9002 -1.0875
 5694TIP3   OH238496   2.765   6.460  14.122  0.0382 -0.9713  0.6803
 5694TIP3    H138497   2.697   6.398  14.099 -0.1624 -0.2605 -0.6707
 5694TIP3    H238498   2.774   6.516  14.045  0.2939  0.5986  1.8248
 5695TIP3   OH238499   1.912   3.036   3.939  0.5467  0.0824  0.6788
 5695TIP3    H138500   1.981   3.090   3.978  0.6658 -1.1490  2.2168
 5695TIP3    H238501   1.834   3.057   3.990 -0.1344  1.1277 -0.7633
 5696TIP3   OH238502   5.229   2.126   1.654 -1.0011 -0.1675  0.1826
 5696TIP3    H138503   5.313   2.080   1.657 -0.4389  0.8095 -0.3113
 5696TIP3    H238504   5.164   2.057   1.659 -0.1709 -0.8639  1.7909
 5697TIP3   OH238505   1.249   2.256  15.656 -0.3989  0.0806 -0.2731
 5697TIP3    H138506   1.230   2.186  15.594  0.7219 -0.1073 -0.4197
 5697TIP3    H238507   1.181   2.248  15.723 -1.0981 -0.2626 -1.0180
 5698TIP3   OH238508   0.142   2.193   6.077 -0.2266  0.3482 -0.2596
 5698TIP3    H138509   0.108   2.191   5.988 -0.2363  1.0181 -0.2755
 5698TIP3    H238510   0.180   2.106   6.091 -0.9914 -0.0444 -0.6143
 5699TIP3   OH238511   3.159   1.053   1.622 -0.4393 -0.0138 -0.8113
 5699TIP3    H138512   3.064   1.053   1.633 -0.3967  0.0415 -0.4234
 5699TIP3    H238513   3.172   1.047   1.528 -0.8371  0.7683 -0.9233
 5700TIP3   OH238514   3.926   4.599  12.730  0.0431  0.3335 -0.0046
 5700TIP3    H138515   3.984   4.626  12.659  1.7507 -1.4818  0.6656
 5700TIP3    H238516   3.848   4.655  12.719  1.0577  1.4199 -2.1122
 5701TIP3   OH238517   1.263   5.895  16.589  0.6837  0.1537 -0.4260
 5701TIP3    H138518   1.247   5.830  16.521  0.5184  1.5473 -1.7385
 5701TIP3    H238519   1.177   5.929  16.612  0.8897  0.9128 -0.7556
 5702TIP3   OH238520   0.426   0.564  15.504 -0.1396  0.1448  0.2187
 5702TIP3    H138521   0.487   0.593  15.571 -1.5459  1.5964  0.8844
 5702TIP3    H238522   0.378   0.642  15.479 -1.1317 -0.8105 -0.9400
 5703TIP3   OH238523   4.373   6.770  16.239 -0.0883 -0.0024 -0.4265
 5703TIP3    H138524   4.294   6.787  16.187 -1.2388 -1.3890  0.8235
 5703TIP3    H238525   4.396   6.855  16.277 -1.1118  0.3734 -0.6257
 5704TIP3   OH238526   4.060   2.613   0.805  0.1254 -0.3528  0.6303
 5704TIP3    H138527   3.993   2.595   0.871 -0.4009  2.5807  1.0001
 5704TIP3    H238528   4.117   2.677   0.847 -1.0472  2.7020 -2.1728
 5705TIP3   OH238529   0.016   5.134   5.133  0.0053 -0.0006 -0.6416
 5705TIP3    H138530   0.051   5.050   5.164  0.9687  1.2344  1.8057
 5705TIP3    H238531  -0.078   5.130   5.151  0.1422 -0.3490  0.0007
 5706TIP3   OH238532   6.341   3.032   5.689 -0.0893 -0.5933 -0.4592
 5706TIP3    H138533   6.316   3.064   5.775 -0.7684 -1.1194 -0.4582
 5706TIP3    H238534   6.364   2.940   5.703 -0.0891 -0.6510 -0.8183
 5707TIP3   OH238535   1.231   1.028  13.309 -0.2577  0.0594 -0.2897
 5707TIP3    H138536   1.215   1.109  13.260  1.0010  0.2827 -0.3437
 5707TIP3    H238537   1.312   1.044  13.356  0.1700 -1.2939 -0.5493
 5708TIP3   OH238538   0.447   2.251  16.978  0.0618  0.3433  0.2195
 5708TIP3    H138539   0.466   2.344  16.964  1.1006  0.0068 -0.7046
 5708TIP3    H238540   0.480   2.209  16.898 -0.7142 -0.7726  0.4930
 5709TIP3   OH238541   0.864   0.146   1.064  0.3377  0.5668 -0.4497
 5709TIP3    H138542   0.939   0.101   1.026  0.9426  0.6862  0.5969
 5709TIP3    H238543   0.799   0.076   1.078 -0.4178  0.7130 -2.8981
 5710TIP3   OH238544   1.591   3.903   1.444 -0.5114  0.4465 -0.0595
 5710TIP3    H138545   1.513   3.958   1.443 -0.8167  0.0332  0.8809
 5710TIP3    H238546   1.642   3.935   1.518 -0.2372  0.1018 -0.0966
 5711TIP3   OH238547   1.699   0.649  17.145 -0.0784 -0.4297 -0.4774
 5711TIP3    H138548   1.630   0.677  17.084 -0.2116  0.1010 -0.0937
 5711TIP3    H238549   1.765   0.609  17.090 -0.2029  0.0392 -0.9728
 5712TIP3   OH238550   5.065   0.737  15.161  0.9089 -0.2990 -0.2774
 5712TIP3    H138551   5.022   0.779  15.087 -1.7976  0.3532  1.6055
 5712TIP3    H238552   5.018   0.655  15.174  2.1186 -0.9701  0.0190
 5713TIP3   OH238553   2.529   5.745  11.813  0.6845 -0.6198 -0.6698
 5713TIP3    H138554   2.475   5.745  11.892  1.0607  2.0246 -0.3630
 5713TIP3    H238555   2.504   5.666  11.767 -1.2241 -1.0133  0.9647
 5714TIP3   OH238556   2.894   1.505  13.666  0.2239  0.0252  0.0600
 5714TIP3    H138557   2.811   1.457  13.671 -0.4026  1.1049  0.0544
 5714TIP3    H238558   2.912   1.512  13.572  0.1343  0.1329  0.0518
 5715TIP3   OH238559   6.664   2.815  13.383 -0.0817 -0.0227 -0.5236
 5715TIP3    H138560   6.611   2.741  13.352  0.6744 -1.1969  0.9164
 5715TIP3    H238561   6.750   2.777  13.400  0.4898  1.3283 -0.3274
 5716TIP3   OH238562   2.948   6.747  16.435  0.0002 -0.6111 -0.4184
 5716TIP3    H138563   3.014   6.741  16.503  0.0511  2.0107 -0.1634
 5716TIP3    H238564   2.881   6.684  16.461  0.4578 -0.3193  1.5785
 5717TIP3   OH238565   0.488   2.340  12.820  0.1791 -0.1729  0.4797
 5717TIP3    H138566   0.556   2.364  12.757  1.3000 -1.1409  1.2947
 5717TIP3    H238567   0.422   2.294  12.769  2.5666 -3.7919  0.4652
 5718TIP3   OH238568   3.130   6.531  10.773 -0.3143 -0.2239 -0.0142
 5718TIP3    H138569   3.167   6.546  10.686 -0.7033  0.0743 -0.1298
 5718TIP3    H238570   3.150   6.440  10.793  1.1933  0.1504  0.2589
 5719TIP3   OH238571   4.519   5.530   3.342 -0.7318 -0.7009  0.1877
 5719TIP3    H138572   4.602   5.536   3.294 -1.4809  1.2944 -0.9203
 5719TIP3    H238573   4.543   5.546   3.433  0.2962 -1.5889  0.0875
 5720TIP3   OH238574   2.120   1.916   1.147  0.2708 -0.0709  0.0841
 5720TIP3    H138575   2.133   1.920   1.242  0.5916  0.2105  0.0291
 5720TIP3    H238576   2.035   1.872   1.136 -0.0534  0.4330  0.5186
 5721TIP3   OH238577   4.132   5.679  12.083 -0.4105  0.0945 -0.6567
 5721TIP3    H138578   4.129   5.732  12.162 -0.6108  1.2450 -1.4319
 5721TIP3    H238579   4.049   5.632  12.082 -0.5552  0.3440 -0.3745
 5722TIP3   OH238580   3.817   2.234  14.324 -0.6742 -0.0070 -0.7696
 5722TIP3    H138581   3.861   2.319  14.332  0.2587 -0.6858  1.6777
 5722TIP3    H238582   3.724   2.255  14.324 -0.4783  0.9387  1.0627
 5723TIP3   OH238583   2.075   2.628   5.422  0.1512 -0.7735 -0.3564
 5723TIP3    H138584   2.030   2.549   5.453  0.0999 -0.0683  1.3953
 5723TIP3    H238585   2.037   2.644   5.335 -0.3683 -2.2374 -0.4235
 5724TIP3   OH238586   0.123   2.624   3.688  0.0539  0.1289  0.8600
 5724TIP3    H138587   0.155   2.572   3.614  1.5612 -1.2755  2.4772
 5724TIP3    H238588   0.072   2.694   3.647  0.7028 -0.7316 -1.5007
 5725TIP3   OH238589   5.642   6.595   2.443  0.0294 -0.0094 -0.0615
 5725TIP3    H138590   5.640   6.691   2.451 -1.5779 -0.0342  0.0111
 5725TIP3    H238591   5.698   6.567   2.516 -1.9987  0.7150  1.8503
 5726TIP3   OH238592   4.825   5.963   0.776  0.2179 -0.2083 -0.5467
 5726TIP3    H138593   4.759   5.946   0.709  0.7255 -0.5197 -0.9657
 5726TIP3    H238594   4.902   5.993   0.728 -0.2310  2.0871  0.0724
 5727TIP3   OH238595   5.355   3.940  11.957 -0.3093 -0.0329  0.1383
 5727TIP3    H138596   5.423   3.879  11.927 -0.1301  0.7279 -1.0395
 5727TIP3    H238597   5.402   4.002  12.014  0.1404  0.8850 -1.1955
 5728TIP3   OH238598   3.809   1.856   1.321  0.5065 -0.1149  0.1736
 5728TIP3    H138599   3.842   1.930   1.272 -0.6724 -0.1527 -0.7041
 5728TIP3    H238600   3.861   1.854   1.401  0.4451  1.7415  0.2681
 5729TIP3   OH238601   0.044   5.052   4.032 -0.0279  0.2090 -0.3178
 5729TIP3    H138602  -0.051   5.050   4.023  0.0058 -0.7114 -0.5516
 5729TIP3    H238603   0.077   5.011   3.952  0.5669  0.6832 -0.3145
 5730TIP3   OH238604   3.028   4.470  12.760 -0.8670  0.5261 -0.1692
 5730TIP3    H138605   3.068   4.500  12.842  0.4777 -0.4375 -0.4543
 5730TIP3    H238606   2.987   4.548  12.723  0.7587  1.5608  0.1550
 5731TIP3   OH238607   2.494   5.587  11.316 -0.0561  0.2295 -0.3432
 5731TIP3    H138608   2.408   5.549  11.338 -1.6065  4.0248  0.4422
 5731TIP3    H238609   2.477   5.644  11.242  1.6891  1.4229  0.1455
 5732TIP3   OH238610   4.889   0.407   4.156 -0.5489 -0.3479  0.3124
 5732TIP3    H138611   4.932   0.398   4.071  0.2597  2.6073  0.3531
 5732TIP3    H238612   4.945   0.358   4.216  1.7323  1.7379 -0.0152
 5733TIP3   OH238613   5.108   0.265  16.440  0.0320 -0.0336 -0.1537
 5733TIP3    H138614   5.047   0.306  16.379  1.4941  0.0620 -1.5919
 5733TIP3    H238615   5.058   0.192  16.478 -0.7113 -0.4822 -1.9261
 5734TIP3   OH238616   5.317   5.329  12.418 -0.1236 -0.1315 -0.4533
 5734TIP3    H138617   5.319   5.350  12.511  0.9026  0.1926 -0.5426
 5734TIP3    H238618   5.262   5.250  12.413 -0.9414  0.3836  0.3065
 5735TIP3   OH238619   5.715   3.572   3.941  0.3933  0.0286 -0.1618
 5735TIP3    H138620   5.745   3.598   4.028 -1.0525 -0.4339  0.4944
 5735TIP3    H238621   5.693   3.654   3.897  2.4835  0.3674 -0.6248
 5736TIP3   OH238622   4.755   0.730   1.690 -0.2431 -0.0598 -0.2109
 5736TIP3    H138623   4.722   0.641   1.696 -0.7045  0.1538  0.4957
 5736TIP3    H238624   4.719   0.764   1.607  1.5351 -1.1660 -1.4618
 5737TIP3   OH238625   4.841   5.895  14.755  0.1683  0.5582  0.1485
 5737TIP3    H138626   4.769   5.928  14.809  0.8069  0.9159  0.7941
 5737TIP3    H238627   4.846   5.955  14.681 -1.2756 -0.4325 -0.7719
 5738TIP3   OH238628   2.188   6.471   3.630  0.1633 -0.1440 -0.0992
 5738TIP3    H138629   2.237   6.509   3.703 -0.5374 -0.3021  0.4553
 5738TIP3    H238630   2.202   6.532   3.557  1.3974 -0.3291 -0.0194
 5739TIP3   OH238631   1.728   4.512   1.808 -0.1509 -0.7143 -0.3895
 5739TIP3    H138632   1.658   4.574   1.790 -0.4667 -0.7889  0.5373
 5739TIP3    H238633   1.809   4.563   1.797 -0.4251  0.0977  1.1435
 5740TIP3   OH238634   1.431   1.453  16.109 -0.4316 -0.1720  0.2307
 5740TIP3    H138635   1.446   1.360  16.096  0.0675 -0.0442 -0.1451
 5740TIP3    H238636   1.345   1.470  16.070 -0.1323 -0.3044 -0.4897
 5741TIP3   OH238637   5.986   1.223  13.753  0.0074 -0.0452  0.4524
 5741TIP3    H138638   5.946   1.309  13.760 -0.7582 -0.1489 -2.0445
 5741TIP3    H238639   5.952   1.174  13.828 -0.6740  1.3910  1.0904
 5742TIP3   OH238640   4.322   0.740   6.500 -0.4264  0.2593  0.4181
 5742TIP3    H138641   4.386   0.714   6.567  1.1875  1.7301 -0.5035
 5742TIP3    H238642   4.296   0.659   6.458  1.1322 -0.3381  0.5681
 5743TIP3   OH238643   5.564   5.965  11.146  0.3423 -0.7102  0.3340
 5743TIP3    H138644   5.654   5.994  11.130  0.2829 -0.7677 -0.1075
 5743TIP3    H238645   5.559   5.953  11.240  0.1654  1.3973  0.6204
 5744TIP3   OH238646   5.657   1.760   4.628 -0.4752 -0.0020 -0.0666
 5744TIP3    H138647   5.689   1.833   4.575 -1.1845  0.8246  0.6300
 5744TIP3    H238648   5.733   1.703   4.640 -0.1691  0.0970 -1.4781
 5745TIP3   OH238649   4.982   3.745   2.014 -0.3685 -0.6685 -0.4539
 5745TIP3    H138650   5.021   3.703   2.091 -1.1581 -0.8467 -0.1493
 5745TIP3    H238651   5.054   3.752   1.952 -0.1367 -2.1370 -0.3685
 5746TIP3   OH238652   2.755   5.567   4.134 -0.0629  0.8088  0.5342
 5746TIP3    H138653   2.730   5.571   4.042  0.7949 -2.1863  0.1169
 5746TIP3    H238654   2.849   5.583   4.134  0.5287 -2.3594  0.4876
 5747TIP3   OH238655   2.712   5.269  13.810 -0.5495 -0.5420 -0.8092
 5747TIP3    H138656   2.618   5.259  13.828 -0.6182 -1.3108 -1.5595
 5747TIP3    H238657   2.754   5.250  13.894 -1.0899  0.4014 -0.3140
 5748TIP3   OH238658   5.599   6.061  15.942  0.2854  0.0811  0.1782
 5748TIP3    H138659   5.631   6.082  15.855 -0.0990  1.0033  0.2571
 5748TIP3    H238660   5.516   6.014  15.926  1.2943 -1.6999 -0.0012
 5749TIP3   OH238661   1.946   2.911   3.676 -0.0645 -0.6744  0.0306
 5749TIP3    H138662   1.951   2.939   3.767  2.7121 -0.8536 -0.0202
 5749TIP3    H238663   1.945   2.993   3.626 -0.8954 -0.5818  0.1977
 5750TIP3   OH238664   0.896   0.648  16.038  0.1450  0.0014  0.0434
 5750TIP3    H138665   0.857   0.562  16.018 -2.8484  0.8840  1.6908
 5750TIP3    H238666   0.869   0.704  15.965  0.8680 -0.1108 -0.3094
 5751TIP3   OH238667   6.504   3.764   4.069 -0.3316 -0.0249 -0.1585
 5751TIP3    H138668   6.573   3.781   4.005  0.6971 -2.0870  0.3669
 5751TIP3    H238669   6.422   3.770   4.018  0.2738  1.1963 -1.0341
 5752TIP3   OH238670   3.735   2.948   1.278  0.1066  0.2000  0.5561
 5752TIP3    H138671   3.667   2.967   1.342 -0.4582  1.3414 -0.3511
 5752TIP3    H238672   3.780   3.032   1.265  1.5136 -0.4711  0.9347
 5753TIP3   OH238673   0.627   3.964  16.040  0.2415 -0.0235  0.6263
 5753TIP3    H138674   0.562   3.926  16.098  0.5726  1.3863  1.9639
 5753TIP3    H238675   0.592   3.951  15.952 -0.3660 -1.9945  1.1348
 5754TIP3   OH238676   6.483   1.644   4.523 -0.7861 -0.0249  0.2096
 5754TIP3    H138677   6.388   1.652   4.513 -0.6588  0.0609 -0.9309
 5754TIP3    H238678   6.513   1.733   4.540 -0.7762  0.1311 -0.6040
 5755TIP3   OH238679   5.325   2.700  11.783 -0.1392  0.4013  0.0625
 5755TIP3    H138680   5.270   2.723  11.858 -0.4515  1.0039 -0.3445
 5755TIP3    H238681   5.346   2.608  11.796  1.2475  0.9229  1.8040
 5756TIP3   OH238682   1.182   3.734   1.924  0.3005 -0.9358  0.7248
 5756TIP3    H138683   1.186   3.724   1.829  0.1010  0.5742  0.5452
 5756TIP3    H238684   1.261   3.784   1.946  0.4570 -1.4674  1.3834
 5757TIP3   OH238685   5.330   0.333  13.923 -0.1888 -0.1618 -0.0345
 5757TIP3    H138686   5.349   0.425  13.904 -1.6544  0.1091 -0.2338
 5757TIP3    H238687   5.409   0.287  13.895 -0.4021  0.7596 -2.2938
 5758TIP3   OH238688   1.133   4.860   5.507 -0.3450 -0.3338  0.3121
 5758TIP3    H138689   1.097   4.946   5.486 -1.4342 -0.8617 -0.0036
 5758TIP3    H238690   1.072   4.798   5.468 -0.6093 -1.2926  2.1748
 5759TIP3   OH238691   4.014   0.843   5.241 -0.2320 -0.2410 -0.5186
 5759TIP3    H138692   4.021   0.849   5.336 -3.4421  0.8937 -0.2959
 5759TIP3    H238693   3.987   0.753   5.224 -2.0678  0.2169 -0.1406
 5760TIP3   OH238694   4.984   4.611   2.247  0.0805  0.9662  0.7188
 5760TIP3    H138695   5.026   4.692   2.217 -0.1884  0.7779 -0.1856
 5760TIP3    H238696   5.039   4.580   2.318  1.2602  0.9385 -0.1904
 5761TIP3   OH238697   0.551   2.550   0.423 -0.3706  1.2013  0.2527
 5761TIP3    H138698   0.472   2.584   0.466 -0.3855 -0.3775  1.5129
 5761TIP3    H238699   0.610   2.529   0.494  0.8140  1.4162 -0.6534
 5762TIP3   OH238700   5.988   3.104   3.953  0.8353 -0.0739 -0.0692
 5762TIP3    H138701   6.030   3.078   3.871  2.3183 -0.0207  0.6488
 5762TIP3    H238702   5.982   3.023   4.004  1.7991  0.2408  0.5699
 5763TIP3   OH238703   4.324   0.279  10.513 -0.1200  0.2799  0.1185
 5763TIP3    H138704   4.398   0.332  10.541  0.0593  0.6084 -0.9277
 5763TIP3    H238705   4.248   0.336  10.524 -0.0754  0.3357  0.1381
 5764TIP3   OH238706   0.602   0.909   0.121  0.2373 -0.3441  0.0375
 5764TIP3    H138707   0.600   0.814   0.132 -1.1858 -0.4642 -1.1326
 5764TIP3    H238708   0.695   0.931   0.121  0.5575 -1.5169  2.0112
 5765TIP3   OH238709   3.091   1.409   6.074 -0.4600  0.1977  0.3664
 5765TIP3    H138710   3.062   1.499   6.085 -3.3087 -0.6648  0.2502
 5765TIP3    H238711   3.034   1.373   6.007  1.2012 -1.4647 -0.2042
 5766TIP3   OH238712   4.421   6.224   1.701 -0.2380 -0.3881 -0.5499
 5766TIP3    H138713   4.492   6.286   1.719  0.6675 -1.0593 -1.7136
 5766TIP3    H238714   4.379   6.259   1.622 -1.0685 -0.1197  0.0001
 5767TIP3   OH238715   2.600   4.070   3.477 -0.3557 -0.2717 -0.1057
 5767TIP3    H138716   2.536   4.114   3.420 -0.4774 -0.1521  0.1210
 5767TIP3    H238717   2.551   3.999   3.518 -0.2584 -0.3832 -0.1835
 5768TIP3   OH238718   1.973   2.479   2.944  0.7192 -0.2364 -0.2775
 5768TIP3    H138719   2.058   2.443   2.921  0.5755 -0.4538 -0.4682
 5768TIP3    H238720   1.911   2.435   2.885  0.5791  0.5129 -0.6940
 5769TIP3   OH238721   4.407   5.260  13.852  0.1905  0.4616 -0.3895
 5769TIP3    H138722   4.323   5.215  13.865 -0.9338  2.5704 -0.0941
 5769TIP3    H238723   4.453   5.250  13.935 -0.7639  1.3190  0.2451
 5770TIP3   OH238724   1.453   2.603  11.336  0.3573  0.0549  0.0438
 5770TIP3    H138725   1.480   2.593  11.244 -1.1247  1.3640 -0.5541
 5770TIP3    H238726   1.358   2.589  11.334  0.5671 -1.7328  1.6759
 5771TIP3   OH238727   0.635   4.582   5.089  0.2034  0.2683 -0.1143
 5771TIP3    H138728   0.608   4.560   5.000  0.4730  1.3240 -0.4685
 5771TIP3    H238729   0.553   4.588   5.139 -0.1326  1.9867 -0.8407
 5772TIP3   OH238730   0.076   3.957   0.622 -0.3816 -0.4005  0.4633
 5772TIP3    H138731   0.064   3.985   0.531 -2.4820 -1.3211  0.4278
 5772TIP3    H238732   0.074   4.037   0.673 -1.6602 -0.0778 -0.0769
 5773TIP3   OH238733   1.153   4.654  13.437 -0.2242  0.0805  0.0712
 5773TIP3    H138734   1.073   4.674  13.389  0.1319 -0.1152 -0.6311
 5773TIP3    H238735   1.137   4.684  13.526 -1.5302 -1.0763  0.2385
 5774TIP3   OH238736   3.479   3.271  17.217 -0.9203 -0.3770  0.3651
 5774TIP3    H138737   3.409   3.222  17.261 -2.2126 -0.4254 -1.7057
 5774TIP3    H238738   3.433   3.332  17.159  0.7484 -0.7519 -1.4008
 5775TIP3   OH238739   6.165   4.863  11.192 -0.2889  1.0616 -0.2040
 5775TIP3    H138740   6.203   4.819  11.268  0.4112  1.4211 -0.3410
 5775TIP3    H238741   6.213   4.826  11.117 -1.1857  0.4809 -0.5016
 5776TIP3   OH238742   1.274   6.290   0.463  0.6137 -0.0100 -0.3182
 5776TIP3    H138743   1.299   6.306   0.372 -0.5857 -1.2509 -0.8883
 5776TIP3    H238744   1.313   6.205   0.483  0.3721 -0.0140  0.1314
 5777TIP3   OH238745   6.247   4.811  13.032 -0.8910  0.0288  0.2603
 5777TIP3    H138746   6.173   4.869  13.015 -0.8607 -0.4010 -1.3559
 5777TIP3    H238747   6.210   4.723  13.025 -0.3763 -0.1811  0.1816
 5778TIP3   OH238748   1.187   1.001  15.034 -0.7706 -0.3836  0.2817
 5778TIP3    H138749   1.255   0.934  15.047 -2.7858 -2.3661  0.7623
 5778TIP3    H238750   1.174   1.003  14.939  0.5115  0.5814  0.1131
 5779TIP3   OH238751   3.001   3.339   4.364 -0.1491 -0.3803 -0.3317
 5779TIP3    H138752   3.058   3.408   4.329 -0.6305  0.4946  0.5866
 5779TIP3    H238753   3.016   3.340   4.458 -2.3087  0.4740  0.0500
 5780TIP3   OH238754   5.309   0.417  11.995  0.1312  0.5597  0.0356
 5780TIP3    H138755   5.380   0.355  11.980 -0.9361 -0.8342  0.6238
 5780TIP3    H238756   5.261   0.380  12.069 -1.1149  1.5648 -0.2589
 5781TIP3   OH238757   2.990   2.288  16.795  0.2841  0.2605  0.4492
 5781TIP3    H138758   3.072   2.337  16.793 -0.3316  1.3841  1.6737
 5781TIP3    H238759   2.956   2.303  16.884 -0.1393 -2.0270  0.6879
 5782TIP3   OH238760   2.179   2.883   2.102 -0.0997 -0.9171 -0.0106
 5782TIP3    H138761   2.129   2.869   2.022  0.5182 -1.7276 -0.2511
 5782TIP3    H238762   2.126   2.945   2.152 -0.0604  0.3014 -1.4311
 5783TIP3   OH238763   5.983   4.064  14.413 -0.2733  0.1679 -0.0332
 5783TIP3    H138764   5.899   4.025  14.391 -0.4332  1.1072 -1.1339
 5783TIP3    H238765   5.964   4.158  14.423  0.4594  0.2468  0.6544
 5784TIP3   OH238766   3.112   5.887  11.881  0.0463 -0.1755  0.1375
 5784TIP3    H138767   3.162   5.836  11.817  2.8784  1.8065  0.6717
 5784TIP3    H238768   3.089   5.824  11.950  2.0168 -1.0983 -0.0257
 5785TIP3   OH238769   6.134   3.116  16.253 -0.1847  0.0863 -0.2824
 5785TIP3    H138770   6.069   3.169  16.206 -2.7974 -1.6978  1.1867
 5785TIP3    H238771   6.128   3.030  16.212 -0.3692 -0.6947  1.3530
 5786TIP3   OH238772   3.994   0.635   2.188 -0.1157 -0.1863 -0.3828
 5786TIP3    H138773   3.934   0.705   2.214 -1.2987 -1.4997  0.5368
 5786TIP3    H238774   4.065   0.680   2.141 -1.4084  1.4882 -0.8000
 5787TIP3   OH238775   5.017   6.435   2.613  0.5759  0.1266 -0.3272
 5787TIP3    H138776   5.101   6.431   2.568  0.3526 -4.6078 -0.5808
 5787TIP3    H238777   4.953   6.412   2.545 -0.5445  0.4330  0.6076
 5788TIP3   OH238778   1.001   1.416   1.849  0.0847 -0.6630  0.1755
 5788TIP3    H138779   0.941   1.346   1.825  1.9130 -2.2027 -0.0235
 5788TIP3    H238780   1.061   1.423   1.774  1.7818 -1.0054  1.4596
 5789TIP3   OH238781   5.811   6.289   0.371 -0.5684 -0.0684  0.2744
 5789TIP3    H138782   5.874   6.237   0.422 -0.3613 -1.8171 -1.7078
 5789TIP3    H238783   5.797   6.367   0.424  2.4464 -0.1376  1.2696
 5790TIP3   OH238784   5.919   1.525   1.726 -0.0228 -0.2325  0.3500
 5790TIP3    H138785   5.909   1.553   1.635 -0.6418 -2.4333 -0.3005
 5790TIP3    H238786   5.866   1.586   1.776 -1.8927 -0.6432 -1.0831
 5791TIP3   OH238787   1.391   3.437  14.844 -0.0814 -0.0764 -0.1059
 5791TIP3    H138788   1.412   3.528  14.823 -2.4504  0.3337 -0.7809
 5791TIP3    H238789   1.386   3.436  14.940  0.2549  0.4390 -0.0786
 5792TIP3   OH238790   4.706   1.354  13.277  0.0276 -0.1940 -0.4920
 5792TIP3    H138791   4.653   1.406  13.337 -1.2437 -0.0421 -1.7007
 5792TIP3    H238792   4.680   1.264  13.295  1.6127 -0.3658  1.0203
 5793TIP3   OH238793   5.166   0.577   1.190  0.5990  0.0981  0.1383
 5793TIP3    H138794   5.117   0.498   1.167  0.8054 -0.4093  1.3739
 5793TIP3    H238795   5.225   0.592   1.117  0.8660 -1.1529  0.0955
 5794TIP3   OH238796   3.656   3.401  13.674 -0.7069  0.2358  0.3116
 5794TIP3    H138797   3.743   3.380  13.640 -0.7714 -0.5356  0.6244
 5794TIP3    H238798   3.629   3.323  13.721 -1.3625  0.6605  0.6433
 5795TIP3   OH238799   0.661   4.433   4.226 -0.5435  0.1666  0.2364
 5795TIP3    H138800   0.738   4.487   4.207 -1.2501  0.9454 -0.4710
 5795TIP3    H238801   0.651   4.378   4.148  0.7945 -1.7541  1.3909
 5796TIP3   OH238802   2.446   4.567  15.322 -0.3955 -0.1163  0.1249
 5796TIP3    H138803   2.472   4.477  15.340 -0.1384  0.4373  2.6374
 5796TIP3    H238804   2.505   4.595  15.251 -0.7255 -2.0020 -0.9407
 5797TIP3   OH238805   1.803   6.506  12.715  0.3935 -0.0331  0.9599
 5797TIP3    H138806   1.783   6.412  12.720  0.0702  0.1112  2.5622
 5797TIP3    H238807   1.718   6.547  12.696  0.5522 -0.0661  0.1647
 5798TIP3   OH238808   1.711   3.838  14.997 -0.1021 -0.0169 -0.4466
 5798TIP3    H138809   1.712   3.923  14.954  0.5085  0.5461  0.6489
 5798TIP3    H238810   1.664   3.853  15.079 -0.5702 -0.8928 -0.5435
 5799TIP3   OH238811   3.047   6.679   0.192 -0.2451 -0.1377 -0.0834
 5799TIP3    H138812   2.971   6.659   0.138 -0.4866  1.1577 -0.2386
 5799TIP3    H238813   3.079   6.593   0.220 -1.4905 -0.7181 -0.3735
 5800TIP3   OH238814   3.877   4.117   1.897  0.1387  0.1783 -0.2299
 5800TIP3    H138815   3.897   4.125   1.804 -0.9383  1.0920 -0.3906
 5800TIP3    H238816   3.962   4.109   1.939  0.7118  1.2810 -1.1499
 5801TIP3   OH238817   2.274   5.824   1.545 -0.2753  0.0248  0.1093
 5801TIP3    H138818   2.282   5.766   1.620 -0.0142 -0.0472  0.0263
 5801TIP3    H238819   2.333   5.787   1.479  1.0152  1.2201  0.5721
 5802TIP3   OH238820   1.437   1.199  15.251  0.0445  0.4105 -0.1306
 5802TIP3    H138821   1.455   1.242  15.335  0.6465  1.8623 -0.9767
 5802TIP3    H238822   1.370   1.134  15.271  0.0087  0.9086  1.4348
 5803TIP3   OH238823   6.299   5.699  12.168  0.7334  0.0504 -0.4556
 5803TIP3    H138824   6.321   5.622  12.115 -0.1515  0.0186 -0.7782
 5803TIP3    H238825   6.324   5.774  12.113  2.0352  0.0056  0.0427
 5804TIP3   OH238826   1.908   6.240   5.680 -0.5626 -0.0348  0.0889
 5804TIP3    H138827   1.882   6.185   5.753  1.7830 -0.2357  0.8242
 5804TIP3    H238828   2.004   6.232   5.677 -0.5148  0.9611 -2.2065
 5805TIP3   OH238829   2.213   4.890   4.687  0.7802 -0.1087  0.3825
 5805TIP3    H138830   2.125   4.852   4.678  1.4464 -2.1908  2.1489
 5805TIP3    H238831   2.203   4.961   4.750 -0.0052  1.0872 -1.0479
 5806TIP3   OH238832   5.012   3.761  13.915  0.0611  0.4678 -0.3441
 5806TIP3    H138833   5.006   3.665  13.918 -0.6514  0.5074 -0.5460
 5806TIP3    H238834   4.921   3.791  13.915  0.2661  1.1114 -1.2602
 5807TIP3   OH238835   6.292   2.775   5.833 -0.3610  0.1304  0.0812
 5807TIP3    H138836   6.250   2.710   5.890 -0.0687  0.4920  0.7126
 5807TIP3    H238837   6.386   2.758   5.843 -0.3386 -0.4177 -1.0226
 5808TIP3   OH238838   1.724   4.080  12.324  0.1662 -0.2165  0.1941
 5808TIP3    H138839   1.662   4.010  12.344 -0.2974  0.1658  0.0904
 5808TIP3    H238840   1.802   4.058  12.376  0.2242 -1.0983 -0.2508
 5809TIP3   OH238841   1.330   6.340  14.823 -0.0005  0.0093 -0.2885
 5809TIP3    H138842   1.254   6.382  14.863 -0.6912 -1.6437  0.1835
 5809TIP3    H238843   1.405   6.391  14.854 -0.7265  0.2272  1.1551
 5810TIP3   OH238844   0.982   5.440   1.889 -0.4899  0.3906 -0.0636
 5810TIP3    H138845   1.037   5.452   1.812 -0.5800  1.6754  0.0663
 5810TIP3    H238846   0.991   5.522   1.938  0.6265 -0.8945  1.9743
 5811TIP3   OH238847   3.306   1.289  11.483  0.2228 -0.6782 -0.7614
 5811TIP3    H138848   3.238   1.357  11.482  1.1156  0.2712  0.7404
 5811TIP3    H238849   3.343   1.294  11.571  2.1329 -1.2816 -1.5093
 5812TIP3   OH238850   3.907   5.739   1.578 -0.4038  0.3384 -0.0782
 5812TIP3    H138851   3.985   5.774   1.621 -1.0564 -1.7868  2.9799
 5812TIP3    H238852   3.834   5.780   1.624 -1.1664  1.2674 -2.0227
 5813TIP3   OH238853   5.589   5.780   0.840  0.3463  0.1193  0.5661
 5813TIP3    H138854   5.580   5.764   0.746  0.1117  2.1327  0.2324
 5813TIP3    H238855   5.538   5.710   0.881 -0.6473  0.0056 -0.8360
 5814TIP3   OH238856   6.707   2.079  10.644  0.0725 -0.7917  0.0128
 5814TIP3    H138857   6.803   2.080  10.636  0.1377 -2.3787  0.4437
 5814TIP3    H238858   6.691   2.029  10.724 -1.0758  0.9286  0.8843
 5815TIP3   OH238859   3.618   1.851  15.282  0.0496  0.2643 -0.7219
 5815TIP3    H138860   3.693   1.826  15.228 -0.0204 -1.9796  0.1714
 5815TIP3    H238861   3.612   1.782  15.348 -2.4554  0.7173 -0.4315
 5816TIP3   OH238862   5.513   1.274   5.794 -0.1184  1.5174 -0.0784
 5816TIP3    H138863   5.509   1.305   5.703  1.0483 -1.2451 -1.1133
 5816TIP3    H238864   5.579   1.330   5.835 -1.1451  3.2443 -0.7142
 5817TIP3   OH238865   3.215   0.115  12.907 -0.0135  0.5849 -0.1377
 5817TIP3    H138866   3.307   0.091  12.902  0.0735  1.0701 -1.0623
 5817TIP3    H238867   3.213   0.189  12.968  0.1609  0.3474  0.1555
 5818TIP3   OH238868   0.527   3.636   1.276 -0.3715  0.2352 -0.5269
 5818TIP3    H138869   0.497   3.637   1.367 -0.0225  1.2297 -0.4170
 5818TIP3    H238870   0.461   3.686   1.228  0.0916  0.7621 -0.6131
 5819TIP3   OH238871   0.367   2.022  13.525  0.0784  0.4292 -0.2179
 5819TIP3    H138872   0.449   2.033  13.477 -0.5239  1.3804 -1.0588
 5819TIP3    H238873   0.304   1.994  13.458 -0.0700 -1.3207  0.6021
 5820TIP3   OH238874   4.591   4.732  10.678  0.0846  0.3624  0.3404
 5820TIP3    H138875   4.642   4.655  10.704  2.4842  0.9569 -2.3485
 5820TIP3    H238876   4.616   4.800  10.742  0.8954 -0.0400  0.4621
 5821TIP3   OH238877   2.337   2.915   4.700  0.2564  0.2460 -0.3471
 5821TIP3    H138878   2.422   2.871   4.712 -0.2770 -0.4259  1.0852
 5821TIP3    H238879   2.277   2.866   4.756 -0.7357  1.7261 -0.1058
 5822TIP3   OH238880   2.754   2.303  16.651  0.4375 -0.5340  0.1133
 5822TIP3    H138881   2.704   2.233  16.610  1.4055 -0.5291 -1.1077
 5822TIP3    H238882   2.784   2.266  16.734 -2.3421 -0.2260  1.3192
 5823TIP3   OH238883   1.251   4.079  12.536 -0.3260 -0.5158 -0.9429
 5823TIP3    H138884   1.231   4.139  12.607  0.7001 -0.7490 -0.4380
 5823TIP3    H238885   1.210   3.996  12.562  1.2724 -1.0050  0.1059
 5824TIP3   OH238886   2.761   6.578  16.556  0.0370 -0.2040  0.0978
 5824TIP3    H138887   2.683   6.632  16.544  0.0397 -0.3828 -0.7734
 5824TIP3    H238888   2.764   6.560  16.650 -0.7634  0.1067  0.1856
 5825TIP3   OH238889   4.303   4.442   2.250  0.1901 -0.1295 -0.4130
 5825TIP3    H138890   4.384   4.429   2.201  0.1031 -0.1698 -0.5434
 5825TIP3    H238891   4.318   4.524   2.298 -0.7576  1.3317 -2.5669
 5826TIP3   OH238892   0.611   2.742  14.456  0.0893  0.1327 -0.3915
 5826TIP3    H138893   0.649   2.778  14.536 -1.6010 -0.0915  0.5436
 5826TIP3    H238894   0.617   2.814  14.392  0.2526  0.7587  0.3247
 5827TIP3   OH238895   5.130   5.290   2.620 -0.4845 -0.0870  0.2114
 5827TIP3    H138896   5.225   5.302   2.610 -0.3242 -1.5395 -0.1100
 5827TIP3    H238897   5.121   5.209   2.670 -1.5760 -0.2550 -0.2401
 5828TIP3   OH238898   4.054   0.722  15.343  0.3370 -0.4794  1.0471
 5828TIP3    H138899   4.072   0.636  15.305 -1.7520 -0.3554 -0.2638
 5828TIP3    H238900   3.972   0.712  15.391 -0.1798  0.8930  0.4861
 5829TIP3   OH238901   5.077   5.283  16.667  0.1675 -0.2090 -0.0059
 5829TIP3    H138902   5.063   5.276  16.573  2.0956 -0.6988 -0.2709
 5829TIP3    H238903   5.150   5.224  16.685 -0.0348  0.0599  1.7521
 5830TIP3   OH238904   5.528   6.641   3.914  0.0275  0.5083 -0.0613
 5830TIP3    H138905   5.616   6.605   3.920 -0.9306 -1.6392  1.8191
 5830TIP3    H238906   5.505   6.665   4.004 -1.1253  1.5299 -0.6023
 5831TIP3   OH238907   3.109   0.738   2.872 -0.0741  0.3105 -0.7041
 5831TIP3    H138908   3.017   0.762   2.886  0.1854  0.8317  0.1944
 5831TIP3    H238909   3.139   0.711   2.959 -0.0283 -2.1765 -1.4661
 5832TIP3   OH238910   4.850   3.760  16.120  0.4574  0.1776  0.0869
 5832TIP3    H138911   4.845   3.667  16.097  1.3850  0.4630 -1.3318
 5832TIP3    H238912   4.892   3.760  16.206 -2.3891 -0.8615  1.5441
 5833TIP3   OH238913   2.657   2.044  14.954  0.3524  0.3241  0.2088
 5833TIP3    H138914   2.687   2.056  14.864  0.3297 -0.4783  0.0951
 5833TIP3    H238915   2.697   2.117  15.003 -0.0472  1.0532 -0.5403
 5834TIP3   OH238916   0.479   0.291  16.483 -0.1517  0.2337 -0.3104
 5834TIP3    H138917   0.473   0.203  16.446 -1.7528  0.7679 -1.3495
 5834TIP3    H238918   0.565   0.322  16.456  0.4704 -1.0358  0.1428
 5835TIP3   OH238919   4.019   1.591  11.874  0.0201 -0.5251 -0.3352
 5835TIP3    H138920   3.967   1.614  11.797  0.8731  0.8540 -0.5168
 5835TIP3    H238921   4.087   1.658  11.878  0.9428 -1.4966  0.7065
 5836TIP3   OH238922   0.165   3.291  13.981  0.1925  0.7896 -0.2387
 5836TIP3    H138923   0.232   3.242  14.028 -0.1064 -1.3494 -1.9699
 5836TIP3    H238924   0.197   3.295  13.891 -1.2090  1.2473 -0.7246
 5837TIP3   OH238925   6.393   0.419   1.754  0.5677 -0.5988 -0.3533
 5837TIP3    H138926   6.463   0.359   1.730  2.2485  1.3760 -0.4850
 5837TIP3    H238927   6.377   0.469   1.674 -0.2693 -0.3195 -0.0110
 5838TIP3   OH238928   6.236   4.649   2.780  0.5340  0.1261  0.0527
 5838TIP3    H138929   6.230   4.736   2.818  0.6898 -0.2401  0.9299
 5838TIP3    H238930   6.218   4.590   2.853  2.6261 -0.6421 -0.0366
 5839TIP3   OH238931   5.280   0.465   2.773  0.1615 -0.5893 -0.3862
 5839TIP3    H138932   5.269   0.540   2.832 -2.1684  0.5322 -2.1642
 5839TIP3    H238933   5.327   0.501   2.697 -2.0077 -0.6187 -1.7719
 5840TIP3   OH238934   0.804   2.412  11.178  0.0186 -0.4600  0.1213
 5840TIP3    H138935   0.887   2.369  11.156 -0.0430 -0.7253  0.4012
 5840TIP3    H238936   0.774   2.449  11.095  1.1002  0.8328  0.2963
 5841TIP3   OH238937   2.840   2.428   6.742 -0.0511  0.5148 -0.0225
 5841TIP3    H138938   2.864   2.359   6.680 -0.6207  1.4226 -1.2547
 5841TIP3    H238939   2.920   2.443   6.792  0.4356 -0.1646 -0.5750
 5842TIP3   OH238940   4.683   2.837  12.720 -0.0761 -0.0750  0.1501
 5842TIP3    H138941   4.645   2.877  12.642  0.2259 -0.1366 -0.0272
 5842TIP3    H238942   4.774   2.818  12.696 -0.0226 -0.2236  0.4674
 5843TIP3   OH238943   3.070   1.801  16.912  0.2799  0.3907 -0.8309
 5843TIP3    H138944   3.135   1.856  16.868  0.5217  0.7200 -0.0678
 5843TIP3    H238945   2.995   1.801  16.853  0.9142  0.1290 -1.6481
 5844TIP3   OH238946   1.002   2.137  14.720  0.4655 -0.0162 -0.2547
 5844TIP3    H138947   1.011   2.212  14.778 -0.4313 -0.9193  1.0719
 5844TIP3    H238948   1.068   2.151  14.652 -0.7651  2.7834 -0.9342
 5845TIP3   OH238949   3.374   3.295  11.700 -0.3065  0.1800 -0.0734
 5845TIP3    H138950   3.449   3.339  11.740 -0.3703 -0.4595  0.7681
 5845TIP3    H238951   3.320   3.267  11.774  0.1309 -2.0060 -0.5530
 5846TIP3   OH238952   4.025   6.140   3.212  0.3659 -0.1550 -0.6492
 5846TIP3    H138953   3.959   6.209   3.219  2.1109  1.7791 -2.6359
 5846TIP3    H238954   3.975   6.060   3.199 -1.6398  0.9512  0.0493
 5847TIP3   OH238955   0.898   0.096  10.848 -0.6931  0.3981 -0.3898
 5847TIP3    H138956   0.990   0.122  10.849  1.0064 -4.9801 -0.6152
 5847TIP3    H238957   0.879   0.079  10.756 -2.1682  1.9911 -0.4160
 5848TIP3   OH238958   6.125   6.637   2.813 -0.3785  0.3087 -0.0340
 5848TIP3    H138959   6.191   6.636   2.882  0.8161 -0.2634 -1.1616
 5848TIP3    H238960   6.145   6.715   2.762  1.0202 -1.2043 -1.8676
 5849TIP3   OH238961   2.038   0.316  14.315  0.3571  0.7691  0.0691
 5849TIP3    H138962   2.133   0.314  14.303  0.4920 -1.1167  1.1916
 5849TIP3    H238963   2.003   0.268  14.239  0.5021 -1.0741  1.1399
 5850TIP3   OH238964   5.139   0.984   1.172  0.0767  0.0740 -0.1085
 5850TIP3    H138965   5.149   0.893   1.145 -0.1278 -0.2312  0.8103
 5850TIP3    H238966   5.173   1.035   1.099  0.2866 -0.7414 -0.5872
 5851TIP3   OH238967   3.719   3.170   4.597 -0.3005  0.4632 -0.0575
 5851TIP3    H138968   3.647   3.232   4.587 -1.0908 -0.2347  1.1619
 5851TIP3    H238969   3.733   3.134   4.510 -1.8308  0.1699 -0.1892
 5852TIP3   OH238970   3.416   5.128  12.431  0.1519 -0.3893 -0.0253
 5852TIP3    H138971   3.413   5.136  12.336  1.5855  0.2544 -0.0210
 5852TIP3    H238972   3.355   5.057  12.450 -0.5423 -0.1772 -1.3788
 5853TIP3   OH238973   4.950   4.302  14.191  0.0236  0.6662 -0.1520
 5853TIP3    H138974   4.893   4.248  14.245 -0.1969  2.8011  1.7910
 5853TIP3    H238975   4.960   4.252  14.110 -0.2266 -2.2445  1.5484
 5854TIP3   OH238976   4.876   6.281   2.809  0.1461  0.2119  0.7915
 5854TIP3    H138977   4.813   6.350   2.828 -0.7141  0.1596 -1.7319
 5854TIP3    H238978   4.959   6.327   2.797  0.0614  0.5508  1.4948
 5855TIP3   OH238979   3.217   0.241   6.474 -0.6769 -0.0686  0.8560
 5855TIP3    H138980   3.219   0.258   6.568  1.2410  1.4552  0.5759
 5855TIP3    H238981   3.309   0.239   6.448 -1.2120  1.1939 -1.2584
 5856TIP3   OH238982   5.873   5.287  15.236  0.0863  0.3638 -0.1927
 5856TIP3    H138983   5.959   5.319  15.206  0.7402 -0.3614  0.8508
 5856TIP3    H238984   5.889   5.259  15.326 -1.2260  0.0740 -0.0453
 5857TIP3   OH238985   4.782   5.618  14.695  0.2894  0.6383  0.2652
 5857TIP3    H138986   4.791   5.699  14.745  0.8621  1.0740 -0.5461
 5857TIP3    H238987   4.868   5.576  14.702  0.2228  0.4680  0.0451
 5858TIP3   OH238988   4.174   1.247   4.965  0.2805  0.1148 -0.1445
 5858TIP3    H138989   4.163   1.189   4.889  0.8535  1.4163 -1.2341
 5858TIP3    H238990   4.151   1.192   5.040 -1.3832 -0.8701 -1.3328
 5859TIP3   OH238991   6.640   3.227  13.952 -0.1269  0.1858  0.1756
 5859TIP3    H138992   6.582   3.291  13.994 -0.4455  0.3788 -0.5505
 5859TIP3    H238993   6.727   3.246  13.989 -0.4722  0.0714  1.0625
 5860TIP3   OH238994   3.952   0.166  14.311 -0.2847  0.6425  0.4293
 5860TIP3    H138995   3.918   0.127  14.392 -0.3718  1.0455  0.5862
 5860TIP3    H238996   3.994   0.093  14.266 -1.3273  0.1354  0.2415
 5861TIP3   OH238997   3.033   5.741  16.378  0.3256  0.3013 -0.3099
 5861TIP3    H138998   3.037   5.702  16.290 -4.4420  0.9678 -0.9647
 5861TIP3    H238999   3.023   5.667  16.437 -0.2458  0.0540 -0.7128
 5862TIP3   OH239000   2.971   6.242   3.215  0.2703 -0.5433  0.1530
 5862TIP3    H139001   3.005   6.304   3.280 -1.7726 -0.4409  1.1668
 5862TIP3    H239002   2.877   6.260   3.211 -0.2436 -3.0385 -0.0977
 5863TIP3   OH239003   3.223   3.426   0.672 -0.0030 -0.5652  0.3629
 5863TIP3    H139004   3.292   3.430   0.605  1.0301  1.1251  1.4944
 5863TIP3    H239005   3.142   3.444   0.624  0.9739  2.8926 -0.1318
 5864TIP3   OH239006   6.400   5.846   1.418  0.1705  0.2623 -0.3310
 5864TIP3    H139007   6.322   5.898   1.398 -0.6317 -0.7087  0.2256
 5864TIP3    H239008   6.399   5.776   1.352 -0.5753 -0.9409  0.9385
 5865TIP3   OH239009   2.885   6.760   5.155 -0.0641 -0.1253 -0.0089
 5865TIP3    H139010   2.851   6.675   5.128 -0.9000  0.2007  0.0028
 5865TIP3    H239011   2.967   6.740   5.200  0.3186 -0.8292 -1.0086
 5866TIP3   OH239012   4.027   4.489   1.911 -0.2141  0.7709 -0.3439
 5866TIP3    H139013   4.093   4.437   1.958 -1.0722  0.4457  0.5237
 5866TIP3    H239014   4.077   4.560   1.872  0.8832 -0.3288 -0.9971
 5867TIP3   OH239015   3.018   2.045   0.449 -0.1922  0.7470  0.3683
 5867TIP3    H139016   3.082   2.096   0.498 -0.1965  0.7409  0.3801
 5867TIP3    H239017   2.938   2.051   0.500 -0.3214  1.1179  0.1280
 5868TIP3   OH239018   1.304   1.268   0.101  0.2410  0.6820  0.0986
 5868TIP3    H139019   1.263   1.203   0.043  0.9315  0.1470  0.2093
 5868TIP3    H239020   1.352   1.216   0.165  3.5806  1.3152 -1.8038
 5869TIP3   OH239021   5.765   1.024  15.748  0.0281  0.1196  0.2237
 5869TIP3    H139022   5.791   1.115  15.731  0.3861 -0.4193 -2.3057
 5869TIP3    H239023   5.671   1.023  15.734  0.2734 -0.2498 -1.4891
 5870TIP3   OH239024   5.232   4.162   4.749  0.2584 -0.3627 -0.7705
 5870TIP3    H139025   5.175   4.237   4.768 -0.3983 -1.7283  2.9606
 5870TIP3    H239026   5.183   4.110   4.685 -0.0592  1.4391 -2.0283
 5871TIP3   OH239027   4.806   0.275  12.253 -0.1613 -0.0904  0.0550
 5871TIP3    H139028   4.856   0.356  12.260 -2.4040  1.1409  2.6353
 5871TIP3    H239029   4.748   0.289  12.177  0.3025  0.2242 -0.2424
 5872TIP3   OH239030   3.218   2.078   1.212  0.3601  0.0835  0.3328
 5872TIP3    H139031   3.210   2.024   1.133  2.5490  1.9868 -1.2706
 5872TIP3    H239032   3.257   2.018   1.277  1.1976 -0.7611 -0.9063
 5873TIP3   OH239033   1.286   4.422  14.163  0.5150  0.0875  0.1557
 5873TIP3    H139034   1.378   4.431  14.190  0.6197 -1.5503  0.4208
 5873TIP3    H239035   1.288   4.426  14.068  0.7765  0.7196  0.1851
 5874TIP3   OH239036   0.871   3.943   1.665  0.8765  0.5491 -0.0261
 5874TIP3    H139037   0.935   4.004   1.630  2.6016 -0.4613  1.2936
 5874TIP3    H239038   0.922   3.868   1.695 -0.9685 -0.5236  0.5510
 5875TIP3   OH239039   3.220   2.212   0.497 -0.2041 -0.0923  0.6135
 5875TIP3    H139040   3.298   2.266   0.490  0.3110 -0.9122  0.0313
 5875TIP3    H239041   3.148   2.271   0.473  0.2135  0.6734  1.2084
 5876TIP3   OH239042   1.278   5.035  10.543  0.4546 -0.7265  0.5338
 5876TIP3    H139043   1.355   5.045  10.487 -0.9157 -0.1703 -1.3019
 5876TIP3    H239044   1.270   5.119  10.589  0.1706 -0.2836 -0.3093
 5877TIP3   OH239045   1.822   3.308  12.149 -0.2490 -0.2513 -0.2264
 5877TIP3    H139046   1.855   3.383  12.099 -0.8022 -0.7823 -1.4016
 5877TIP3    H239047   1.884   3.238  12.128  0.3833 -0.0761  1.0298
 5878TIP3   OH239048   2.907   6.588   4.799 -0.3392 -0.0363  0.4667
 5878TIP3    H139049   2.999   6.606   4.820 -0.2913 -0.6233  0.7725
 5878TIP3    H239050   2.901   6.599   4.704  0.2567 -0.9186  0.3264
 5879TIP3   OH239051   6.634   0.282   1.671  0.7540  0.1881  0.2675
 5879TIP3    H139052   6.618   0.289   1.577 -2.0488  0.9560  0.7352
 5879TIP3    H239053   6.712   0.335   1.686  0.9079  0.5161 -1.5611
 5880TIP3   OH239054   3.011   5.521   2.912 -0.0494  0.2105 -0.5912
 5880TIP3    H139055   3.031   5.610   2.883  1.7843 -1.0362 -3.3945
 5880TIP3    H239056   2.959   5.484   2.840 -0.9480 -0.9565  0.6235
 5881TIP3   OH239057   2.085   4.062  12.191  0.6308  0.5997 -0.3833
 5881TIP3    H139058   2.153   3.995  12.182  0.3693  0.4511 -1.2649
 5881TIP3    H239059   2.019   4.022  12.247  0.5874  0.2117 -0.7107
 5882TIP3   OH239060   0.509   0.042   4.578  0.2207 -0.5475 -0.0053
 5882TIP3    H139061   0.486   0.104   4.509 -1.4854 -0.6339  0.4846
 5882TIP3    H239062   0.597   0.070   4.606 -0.3093  1.3337 -0.1416
 5883TIP3   OH239063   2.021   0.115  12.886  0.0287  0.7994 -0.4754
 5883TIP3    H139064   1.989   0.169  12.815 -1.3697 -1.2116 -1.4405
 5883TIP3    H239065   2.105   0.081  12.856 -0.2776  0.4395 -0.9302
 5884TIP3   OH239066   5.031   0.003  16.454  0.1004 -0.9310 -0.4703
 5884TIP3    H139067   4.985  -0.050  16.389  1.3765 -2.0677 -0.4620
 5884TIP3    H239068   4.974  -0.002  16.532 -3.2341  3.3072 -2.4308
 5885TIP3   OH239069   3.036   3.322   5.618 -0.4605 -0.1201 -0.0509
 5885TIP3    H139070   3.017   3.361   5.532  0.7969 -1.7457 -1.1137
 5885TIP3    H239071   3.119   3.362   5.644 -1.0280  0.6530  0.6106
 5886TIP3   OH239072   3.040   5.510  14.939 -0.8597 -0.1311 -0.3791
 5886TIP3    H139073   3.015   5.539  14.851 -0.3216 -1.0472 -0.8434
 5886TIP3    H239074   3.119   5.458  14.925 -1.5123 -1.3667  0.5031
 5887TIP3   OH239075   1.547   0.165  14.547 -0.2001  0.0334  0.4401
 5887TIP3    H139076   1.465   0.135  14.585 -0.0640 -0.4494  0.3474
 5887TIP3    H239077   1.563   0.250  14.588 -0.7442  0.1257  0.4608
 5888TIP3   OH239078   3.938   3.789   1.415 -0.5901 -0.1180  0.4869
 5888TIP3    H139079   3.970   3.862   1.362  1.7337 -2.6711 -1.8148
 5888TIP3    H239080   3.875   3.745   1.358 -2.3201  0.3054  2.0290
 5889TIP3   OH239081   6.531   1.822  14.560 -0.1888  0.4530  0.6126
 5889TIP3    H139082   6.508   1.873  14.637  0.6604  1.3619  0.2810
 5889TIP3    H239083   6.591   1.755  14.592 -2.7170 -1.5076  1.3614
 5890TIP3   OH239084   5.134   3.327  17.216 -0.2292 -0.2858  0.2254
 5890TIP3    H139085   5.066   3.263  17.198 -0.2126 -0.2205 -0.0589
 5890TIP3    H239086   5.144   3.325  17.312  0.0480 -0.9940  0.1890
 5891TIP3   OH239087   5.080   2.430  16.420 -0.6379  0.0844  0.6917
 5891TIP3    H139088   5.103   2.522  16.411 -0.4425 -0.0279  0.0083
 5891TIP3    H239089   4.987   2.425  16.399 -0.5485  0.0646  0.2892
 5892TIP3   OH239090   5.863   5.539   2.988 -0.4257  0.7743  0.1972
 5892TIP3    H139091   5.859   5.630   2.958 -2.1581  0.3625 -0.9197
 5892TIP3    H239092   5.840   5.487   2.910 -0.2962 -0.5841  1.0395
 5893TIP3   OH239093   1.015   2.221  11.143  0.1135  0.9623  0.4953
 5893TIP3    H139094   1.091   2.241  11.090 -0.0234  0.0153 -0.0678
 5893TIP3    H239095   1.050   2.181  11.223  0.1168 -1.8126 -0.8311
 5894TIP3   OH239096   3.351   3.430  13.771  0.5300 -0.7280 -0.6347
 5894TIP3    H139097   3.373   3.504  13.828  0.2307 -0.0593 -1.3658
 5894TIP3    H239098   3.372   3.353  13.822 -0.0149 -0.1433  0.4916
 5895TIP3   OH239099   2.160   5.718  16.033 -0.1937 -0.2707  0.6487
 5895TIP3    H139100   2.151   5.644  16.093 -0.9221 -0.6645  0.0759
 5895TIP3    H239101   2.248   5.752  16.049 -0.8488  0.4724  2.8736
 5896TIP3   OH239102   4.706   5.405  14.898 -0.1409  0.3861 -0.1620
 5896TIP3    H139103   4.674   5.353  14.972  1.0053  0.3797  0.3327
 5896TIP3    H239104   4.730   5.490  14.937  0.3542  0.4221 -0.5455
 5897TIP3   OH239105   1.371   6.302  12.830  0.4890  0.0093 -0.4773
 5897TIP3    H139106   1.362   6.207  12.821  1.7049 -0.2117  0.4754
 5897TIP3    H239107   1.413   6.314  12.916  1.0390  1.3671 -0.9232
 5898TIP3   OH239108   2.646   4.725   3.278  0.3393 -0.5612 -0.0761
 5898TIP3    H139109   2.683   4.645   3.242 -1.0573 -1.0168 -0.5279
 5898TIP3    H239110   2.645   4.711   3.373 -0.9239 -1.5317 -0.2266
 5899TIP3   OH239111   2.385   2.656   3.153  0.2124 -0.0281 -0.8105
 5899TIP3    H139112   2.316   2.718   3.175  0.3825  0.9665 -2.9254
 5899TIP3    H239113   2.347   2.570   3.169  0.0042  0.5931  2.2586
 5900TIP3   OH239114   5.350   3.137   4.107  0.1256 -0.9102  0.1112
 5900TIP3    H139115   5.437   3.134   4.148 -0.1032  0.8734  0.8035
 5900TIP3    H239116   5.290   3.115   4.178 -0.1977  1.1459  0.5181
 5901TIP3   OH239117   4.917   2.021  14.491 -0.0108  0.6903  0.1306
 5901TIP3    H139118   4.837   1.988  14.452 -0.1358  1.1810 -0.0301
 5901TIP3    H239119   4.985   2.003  14.426 -0.1259  0.9977 -0.0781
 5902TIP3   OH239120   4.898   6.495  13.509  0.0394 -0.1097 -0.1202
 5902TIP3    H139121   4.864   6.411  13.477  0.0217 -0.3027  0.3976
 5902TIP3    H239122   4.874   6.558  13.442  1.1633 -0.7404 -1.1278
 5903TIP3   OH239123   2.961   0.438   2.990 -0.0969  0.1987  0.3957
 5903TIP3    H139124   3.035   0.430   3.051 -1.2313  1.1762  1.9523
 5903TIP3    H239125   2.897   0.492   3.037 -1.1037  0.8029 -1.5889
 5904TIP3   OH239126   6.587   5.300   3.758  0.0622 -0.2160  0.0558
 5904TIP3    H139127   6.608   5.273   3.668  0.2565  0.6729 -0.1785
 5904TIP3    H239128   6.495   5.326   3.754 -0.3383 -1.5461  0.4545
 5905TIP3   OH239129   1.994   4.665   0.185 -0.0285 -0.3383 -0.3583
 5905TIP3    H139130   2.073   4.648   0.133 -0.4159 -0.2280 -0.9922
 5905TIP3    H239131   1.930   4.603   0.150 -0.0907 -0.7488  0.4726
 5906TIP3   OH239132   0.426   3.241  14.055 -0.3142  0.3489  0.2667
 5906TIP3    H139133   0.469   3.236  14.140 -0.7279  1.1327  0.5273
 5906TIP3    H239134   0.481   3.188  13.997 -0.5341 -0.9418  1.2246
 5907TIP3   OH239135   0.345   3.350   0.189  0.2513  0.4291  0.3046
 5907TIP3    H139136   0.300   3.348   0.104 -0.7702 -0.9699  0.8387
 5907TIP3    H239137   0.402   3.273   0.187  1.3365  1.2302  0.3160
 5908TIP3   OH239138   1.578   1.719  12.015 -0.2491 -0.0681  0.3530
 5908TIP3    H139139   1.574   1.812  11.989  1.2237  0.0550  0.5225
 5908TIP3    H239140   1.578   1.672  11.932  1.1907  0.1915  0.1871
 5909TIP3   OH239141   6.481   0.300   3.763  0.3100 -0.2090  0.1623
 5909TIP3    H139142   6.463   0.366   3.830 -0.8947 -0.3107 -0.0592
 5909TIP3    H239143   6.575   0.308   3.746  0.0899  1.7267 -0.1785
 5910TIP3   OH239144   5.639   2.137   3.908  0.2370  0.3828 -0.1737
 5910TIP3    H139145   5.636   2.152   4.002  1.7064 -0.7704  0.0722
 5910TIP3    H239146   5.702   2.201   3.875 -0.0118  0.5500 -0.3289
 5911TIP3   OH239147   2.062   0.537  12.843  0.3163  0.4046 -0.4579
 5911TIP3    H139148   2.103   0.464  12.890 -0.9093 -0.1135 -0.1550
 5911TIP3    H239149   2.127   0.607  12.845  0.7149  0.0143  1.0758
 5912TIP3   OH239150   4.062   3.795  17.077  0.0051 -0.0270 -0.4329
 5912TIP3    H139151   4.121   3.856  17.121  0.3714 -0.7203  0.0587
 5912TIP3    H239152   3.989   3.849  17.046  0.0278  0.5618  0.5255
 5913TIP3   OH239153   5.722   5.569  17.111 -0.0321  1.0034 -0.5272
 5913TIP3    H139154   5.815   5.580  17.092  0.3609  1.9423  1.6564
 5913TIP3    H239155   5.692   5.657  17.132 -0.6748  0.2799  1.7472
 5914TIP3   OH239156   3.098   0.951  17.054 -0.5960 -0.1964  0.3173
 5914TIP3    H139157   3.164   0.987  17.114 -0.2194 -0.4681  0.0682
 5914TIP3    H239158   3.029   0.919  17.112 -0.2976 -0.3311  0.6046
 5915TIP3   OH239159   1.511   3.556   3.427  0.2649 -0.0306 -0.2960
 5915TIP3    H139160   1.586   3.559   3.367  0.8411  1.9145  0.4616
 5915TIP3    H239161   1.548   3.527   3.510  0.5201  2.3495  0.4768
 5916TIP3   OH239162   0.156   1.834  14.858 -0.4902  0.1285  0.6946
 5916TIP3    H139163   0.222   1.871  14.799 -1.2868 -1.7836 -1.4270
 5916TIP3    H239164   0.198   1.757  14.896 -0.9497 -0.1706  0.5889
 5917TIP3   OH239165   0.619   2.309  14.686  0.0646 -0.0790  0.7761
 5917TIP3    H139166   0.622   2.320  14.781 -1.9587 -0.2733  0.8815
 5917TIP3    H239167   0.531   2.338  14.661  1.3281  2.1806 -1.3427
 5918TIP3   OH239168   5.551   4.350  15.851  0.4080 -0.3078 -0.1660
 5918TIP3    H139169   5.608   4.274  15.864  0.2850 -0.5943 -1.1957
 5918TIP3    H239170   5.490   4.347  15.924  0.9150 -0.7325  0.2458
 5919TIP3   OH239171   1.073   6.759  15.230 -0.0644 -0.6423  0.6792
 5919TIP3    H139172   1.043   6.722  15.146 -1.2107  1.6075  0.0523
 5919TIP3    H239173   1.003   6.736  15.292 -0.5611  0.0849  0.3916
 5920TIP3   OH239174   6.375   2.091   1.783 -0.2973 -0.1237  0.1328
 5920TIP3    H139175   6.368   1.996   1.785 -1.9697 -0.0034  1.4202
 5920TIP3    H239176   6.458   2.110   1.825  1.2661 -1.0884 -2.3948
 5921TIP3   OH239177   0.854   5.034   3.144  0.0285 -0.2574 -0.5887
 5921TIP3    H139178   0.884   4.970   3.079 -0.8256  0.2898 -1.5367
 5921TIP3    H239179   0.850   5.117   3.096 -1.9450 -0.1072 -0.1993
 5922TIP3   OH239180   3.182   5.448   4.339 -0.4489  0.3387  0.5496
 5922TIP3    H139181   3.137   5.485   4.415  2.8670  2.1497  1.7530
 5922TIP3    H239182   3.225   5.370   4.373  0.5157  0.7969  0.3948
 5923TIP3   OH239183   4.802   6.120   4.524  0.0970 -0.6945  0.2888
 5923TIP3    H139184   4.812   6.129   4.429  2.3606  2.0686  0.7338
 5923TIP3    H239185   4.826   6.206   4.559 -1.2158 -1.5047  3.3478
 5924TIP3   OH239186   1.191   3.442  12.453 -0.2555 -0.1219  0.0340
 5924TIP3    H139187   1.214   3.352  12.430 -0.5852 -0.3966  0.7590
 5924TIP3    H239188   1.236   3.458  12.536 -1.2232 -0.0527  0.5498
 5925TIP3   OH239189   1.556   4.655   1.664 -0.6679  0.6225  0.5780
 5925TIP3    H139190   1.590   4.743   1.652 -1.2714  0.6331 -1.2352
 5925TIP3    H239191   1.478   4.651   1.607  0.8518 -1.8970 -1.4725
 5926TIP3   OH239192   4.682   3.624   5.425  0.4700 -0.3888  0.3598
 5926TIP3    H139193   4.712   3.660   5.508  0.0338 -1.2285  0.8813
 5926TIP3    H239194   4.762   3.612   5.374  0.7666 -0.1400  0.7582
 5927TIP3   OH239195   5.274   1.545   4.024 -0.6190 -0.9068 -0.0082
 5927TIP3    H139196   5.226   1.496   4.091 -2.1211 -1.9993 -1.8474
 5927TIP3    H239197   5.206   1.584   3.970  0.5777  2.1054  0.5819
 5928TIP3   OH239198   2.159   6.415   0.881  0.0072  0.0721  0.2064
 5928TIP3    H139199   2.252   6.394   0.885 -0.5749 -2.3896  2.5987
 5928TIP3    H239200   2.129   6.376   0.799  1.1945  1.4641 -0.8997
 5929TIP3   OH239201   1.025   6.775   5.308 -0.0918 -0.3263  0.4539
 5929TIP3    H139202   1.114   6.740   5.302  1.3018  3.1650 -0.1970
 5929TIP3    H239203   1.010   6.820   5.225 -2.5644 -0.9626  0.4902
 5930TIP3   OH239204   4.334   6.765  16.599 -0.1301  0.6374  0.7464
 5930TIP3    H139205   4.366   6.700  16.662 -0.6804 -0.9706 -0.6045
 5930TIP3    H239206   4.247   6.787  16.631 -0.8079 -0.9176  0.0228
 5931TIP3   OH239207   1.164   1.413   4.818  0.0882 -0.0617 -0.2616
 5931TIP3    H139208   1.163   1.492   4.871 -0.1034 -1.0604  1.2479
 5931TIP3    H239209   1.249   1.416   4.773 -0.3329  1.4820 -0.9777
 5932TIP3   OH239210   3.840   5.480   0.581  0.6034 -0.6308 -0.1677
 5932TIP3    H139211   3.863   5.426   0.506  1.5044 -0.4209 -0.0579
 5932TIP3    H239212   3.918   5.533   0.597  0.2875 -0.4044  0.6814
 5933TIP3   OH239213   6.724   3.773   1.661  0.4984  0.4021  0.2063
 5933TIP3    H139214   6.689   3.811   1.742  1.5303  1.3095  0.2262
 5933TIP3    H239215   6.660   3.798   1.594 -1.5357 -2.2312  1.0879
 5934TIP3   OH239216   0.164   1.632   6.478  0.1324  0.1964  0.2874
 5934TIP3    H139217   0.254   1.657   6.498 -0.0418  0.3569  0.8717
 5934TIP3    H239218   0.113   1.712   6.490 -0.2814 -0.2030  1.2405
 5935TIP3   OH239219   0.842   0.916   0.396  0.1190  0.2917 -0.3252
 5935TIP3    H139220   0.754   0.881   0.408  0.1469 -0.0040 -0.9107
 5935TIP3    H239221   0.849   0.930   0.301  1.4275 -1.6983 -0.5697
 5936TIP3   OH239222   3.247   3.272  15.506  0.5774 -0.3149 -0.5618
 5936TIP3    H139223   3.217   3.309  15.588 -1.6960 -2.4580 -0.3559
 5936TIP3    H239224   3.250   3.346  15.445 -0.3918  0.7947  0.7333
 5937TIP3   OH239225   3.032   6.165   1.453 -0.0248 -0.4679 -0.0158
 5937TIP3    H139226   2.938   6.181   1.451  0.3076  1.7464 -0.1112
 5937TIP3    H239227   3.048   6.129   1.540 -0.9233 -0.5153  0.1358
 5938TIP3   OH239228   2.231   4.549   4.886  0.4666  0.5512  0.0963
 5938TIP3    H139229   2.311   4.499   4.872  0.4333  0.6430 -0.4196
 5938TIP3    H239230   2.193   4.559   4.799 -0.3254  0.1395  0.3837
 5939TIP3   OH239231   6.067   4.548  13.986 -0.1144  0.2456  0.3968
 5939TIP3    H139232   6.128   4.570  13.915 -0.0091  0.3706  0.5248
 5939TIP3    H239233   5.981   4.552  13.945 -0.0398  0.1084  0.2232
 5940TIP3   OH239234   3.250   4.466   3.184  0.4125 -0.5367  0.3687
 5940TIP3    H139235   3.304   4.535   3.145  0.1594 -0.9068 -0.6617
 5940TIP3    H239236   3.169   4.510   3.208 -0.2181 -0.6969 -1.3812
 5941TIP3   OH239237   3.611   3.041   4.148  0.1613 -0.0790 -0.4323
 5941TIP3    H139238   3.558   3.121   4.159 -1.9007 -1.0764 -2.6005
 5941TIP3    H239239   3.578   3.002   4.067  0.6860 -3.4680  0.9064
 5942TIP3   OH239240   2.467   0.534   1.084 -0.1950 -0.0731 -0.0240
 5942TIP3    H139241   2.542   0.592   1.078 -1.2807  1.3516  0.0739
 5942TIP3    H239242   2.480   0.487   1.167 -0.8345  2.1898  1.3999
 5943TIP3   OH239243   5.283   5.251  14.305 -0.1306 -0.2579 -0.4571
 5943TIP3    H139244   5.203   5.293  14.273  0.4403  0.2957 -1.1666
 5943TIP3    H239245   5.330   5.225  14.226  0.7048  0.0153 -0.0571
 5944TIP3   OH239246   1.497   3.535   2.982  0.4233  0.5400 -0.3630
 5944TIP3    H139247   1.480   3.614   3.033 -1.0285  0.3373 -0.5286
 5944TIP3    H239248   1.502   3.566   2.891 -0.4119  0.3943 -0.4549
 5945TIP3   OH239249   3.022   1.245   4.625 -0.4253 -0.6484 -0.1917
 5945TIP3    H139250   3.079   1.318   4.649  1.0606 -1.5390 -0.9075
 5945TIP3    H239251   2.934   1.280   4.629  0.1897  0.8267  0.7355
 5946TIP3   OH239252   4.490   0.829   3.065  0.0108 -0.2123  0.1086
 5946TIP3    H139253   4.472   0.735   3.055  0.9984 -0.4902  0.8473
 5946TIP3    H239254   4.434   0.871   3.000  0.5628 -1.4202 -1.1885
 5947TIP3   OH239255   3.098   2.137   2.806 -0.2490  0.4636  0.4769
 5947TIP3    H139256   3.033   2.204   2.827 -0.7592 -0.2283  1.1381
 5947TIP3    H239257   3.140   2.169   2.726 -2.2665  0.3084 -0.6780
 5948TIP3   OH239258   0.781   4.018   4.926  0.4072  0.0181  0.0997
 5948TIP3    H139259   0.707   3.980   4.878  2.2748 -0.3240 -2.6622
 5948TIP3    H239260   0.743   4.089   4.977 -1.8913 -0.4660 -0.8769
 5949TIP3   OH239261   4.523   4.293  15.249  0.3200  0.3131 -0.0371
 5949TIP3    H139262   4.617   4.311  15.243  0.5713 -0.6378  0.9027
 5949TIP3    H239263   4.518   4.202  15.276 -0.8606  0.6438  0.8952
 5950TIP3   OH239264   2.425   1.041   3.486  0.2059  0.0297 -0.1425
 5950TIP3    H139265   2.516   1.014   3.472  0.9549  1.9676  0.9080
 5950TIP3    H239266   2.413   1.117   3.430 -1.1689 -0.9571 -1.2325
 5951TIP3   OH239267   4.835   3.613   4.152  0.3964 -0.4966 -0.3632
 5951TIP3    H139268   4.845   3.703   4.121  0.7022 -0.8049 -1.1696
 5951TIP3    H239269   4.782   3.621   4.231  2.5157  0.6468  0.9774
 5952TIP3   OH239270   3.020   3.809   3.146 -0.2081  0.0645  0.4120
 5952TIP3    H139271   3.050   3.781   3.060 -0.9494 -1.2017  0.5468
 5952TIP3    H239272   2.927   3.831   3.133  0.2427  2.1091  0.4012
 5953TIP3   OH239273   2.519   4.886  14.437 -0.1199  0.1943  0.4523
 5953TIP3    H139274   2.586   4.955  14.438 -0.2058  0.2623  1.7418
 5953TIP3    H239275   2.441   4.929  14.402 -0.5914  1.1470  2.6216
 5954TIP3   OH239276   0.337   4.126  13.086  0.3776 -0.3601 -0.5731
 5954TIP3    H139277   0.373   4.087  13.006 -0.9739 -0.8147 -0.9782
 5954TIP3    H239278   0.369   4.216  13.086  0.3290 -0.3344 -1.6723
 5955TIP3   OH239279   2.890   2.662   4.574 -0.2390  0.5546 -0.0389
 5955TIP3    H139280   2.961   2.687   4.633 -1.6943  0.9336  1.6095
 5955TIP3    H239281   2.924   2.677   4.486  2.4423 -1.2143  0.6395
 5956TIP3   OH239282   1.730   5.457   2.571  0.1285 -0.4102 -0.1682
 5956TIP3    H139283   1.790   5.426   2.503 -0.2847 -1.2943 -0.1348
 5956TIP3    H239284   1.746   5.552   2.576  1.5449 -0.6471 -0.1213
 5957TIP3   OH239285   1.507   6.559  14.932  0.4539 -0.0195 -0.3500
 5957TIP3    H139286   1.546   6.587  14.849  0.8346 -0.4113 -0.3068
 5957TIP3    H239287   1.509   6.637  14.987  0.9870  0.0224 -0.4207
 5958TIP3   OH239288   5.559   5.762   3.133 -0.2068  0.5066  0.7607
 5958TIP3    H139289   5.533   5.844   3.175  0.2202  1.2850 -0.4410
 5958TIP3    H239290   5.655   5.764   3.135 -0.1413  1.3072 -1.5979
 5959TIP3   OH239291   1.435   3.465  15.141  0.2289 -0.1804 -0.2603
 5959TIP3    H139292   1.467   3.500  15.224 -0.8130  1.1348 -0.3817
 5959TIP3    H239293   1.485   3.385  15.127  1.4124  0.3382  0.9344
 5960TIP3   OH239294   0.295   1.107  14.983  0.2309  0.5485 -0.0561
 5960TIP3    H139295   0.389   1.095  14.972  0.1913  1.8014 -1.9078
 5960TIP3    H239296   0.258   1.092  14.896 -1.2641  0.3363  0.5905
 5961TIP3   OH239297   0.675   2.370   3.805 -0.1459 -0.1469  0.1075
 5961TIP3    H139298   0.585   2.340   3.794  0.3370 -3.1458  3.4970
 5961TIP3    H239299   0.675   2.420   3.886  0.8230  1.8823 -1.1000
 5962TIP3   OH239300   6.177   5.220  15.885 -0.3410  0.1119 -0.5173
 5962TIP3    H139301   6.163   5.147  15.946 -0.1286  0.4864 -0.0139
 5962TIP3    H239302   6.130   5.294  15.925  3.0192  1.4174  1.2433
 5963TIP3   OH239303   4.214   4.076   3.915 -0.2382 -0.1481 -0.4499
 5963TIP3    H139304   4.130   4.106   3.951  0.4183  2.2563 -0.8557
 5963TIP3    H239305   4.196   4.061   3.822 -0.6813 -1.4695 -0.1557
 5964TIP3   OH239306   4.278   4.472   1.255 -0.7238  0.0326  0.1905
 5964TIP3    H139307   4.238   4.496   1.172 -0.6893  0.2673  0.2409
 5964TIP3    H239308   4.204   4.460   1.315 -0.7371  0.0933  0.1859
 5965TIP3   OH239309   2.997   5.629   4.226  0.1568 -0.3383  0.8082
 5965TIP3    H139310   3.074   5.626   4.169 -0.1889 -1.1963  0.3744
 5965TIP3    H239311   3.033   5.641   4.314  0.6758  1.3197  0.3830
 5966TIP3   OH239312   2.375   2.223  12.361 -0.4187 -0.0931  0.0685
 5966TIP3    H139313   2.339   2.143  12.324  0.0268 -0.4231  0.3466
 5966TIP3    H239314   2.426   2.262  12.290  0.6031 -0.8293  0.3876
 5967TIP3   OH239315   4.339   0.973   5.098  0.6606  0.0392  0.0591
 5967TIP3    H139316   4.317   0.987   5.191  1.1365  1.1778  0.0075
 5967TIP3    H239317   4.435   0.968   5.097  0.7454  1.4036 -0.5353
 5968TIP3   OH239318   2.982   1.358  13.409  0.0381  0.2078  0.0991
 5968TIP3    H139319   2.990   1.270  13.446 -0.6697  0.0161 -0.1791
 5968TIP3    H239320   3.071   1.391  13.405  0.2029 -0.1101  1.1453
 5969TIP3   OH239321   1.801   0.557  14.370  0.1547 -0.3496  0.4985
 5969TIP3    H139322   1.714   0.593  14.386 -0.2478 -1.2791  0.4615
 5969TIP3    H239323   1.837   0.610  14.299 -0.3137  0.1532  0.6379
 5970TIP3   OH239324   4.129   1.532   6.287 -0.0415 -0.1852  0.1123
 5970TIP3    H139325   4.100   1.598   6.350 -0.3325  2.6133 -2.8365
 5970TIP3    H239326   4.222   1.522   6.304 -0.2812 -0.1563  1.5525
 5971TIP3   OH239327   6.113   1.012  15.815  0.3660  0.3393  0.1698
 5971TIP3    H139328   6.198   0.990  15.779  0.0582 -1.0766  0.2577
 5971TIP3    H239329   6.050   0.971  15.755 -0.1824 -0.5441  1.3207
 5972TIP3   OH239330   3.394   0.503   3.292  0.1098  0.2604 -0.2587
 5972TIP3    H139331   3.485   0.524   3.272  0.4271 -0.9663 -0.1637
 5972TIP3    H239332   3.399   0.426   3.349 -1.0079 -0.3133 -0.9107
 5973TIP3   OH239333   0.999   3.349   3.150 -0.0425 -0.0884  0.3826
 5973TIP3    H139334   0.942   3.401   3.206 -0.3163  0.7427 -0.6499
 5973TIP3    H239335   1.065   3.313   3.210  0.7374  2.2374  0.9798
 5974TIP3   OH239336   2.375   3.552   4.172 -0.5984 -0.1405 -0.1109
 5974TIP3    H139337   2.312   3.619   4.146  1.1643  0.8152 -2.0069
 5974TIP3    H239338   2.359   3.479   4.112 -0.2029 -0.0731 -0.2991
 5975TIP3   OH239339   3.600   3.570   2.345 -0.0537  0.2378 -0.0713
 5975TIP3    H139340   3.637   3.642   2.293  0.3682 -0.7807 -1.2117
 5975TIP3    H239341   3.517   3.549   2.301  0.0430 -0.2713 -0.0149
 5976TIP3   OH239342   3.704   1.734   5.061 -0.0128  0.2549  0.7778
 5976TIP3    H139343   3.729   1.826   5.067 -1.0283  0.4659  2.0964
 5976TIP3    H239344   3.784   1.686   5.084  0.5471  0.8028 -0.0071
 5977TIP3   OH239345   0.416   0.485  12.148 -0.0872  0.4904  0.0587
 5977TIP3    H139346   0.352   0.551  12.174  0.7235  0.8412  1.1895
 5977TIP3    H239347   0.386   0.455  12.062 -1.1353  1.4511  0.0815
 5978TIP3   OH239348   6.024   1.288  14.429 -1.3231  0.0334 -1.0061
 5978TIP3    H139349   5.934   1.284  14.460 -1.5783  2.2677 -1.3561
 5978TIP3    H239350   6.016   1.300  14.334 -0.6164 -1.8526 -1.3277
 5979TIP3   OH239351   3.778   1.489   5.667  0.2004  0.3323  0.7559
 5979TIP3    H139352   3.723   1.494   5.745  0.6744 -0.9454  1.1769
 5979TIP3    H239353   3.753   1.406   5.625 -0.3081  1.1758 -0.6516
 5980TIP3   OH239354   0.564   1.336   1.213 -0.1580 -0.0921  0.6450
 5980TIP3    H139355   0.491   1.342   1.273 -0.4724  1.2871  0.1472
 5980TIP3    H239356   0.556   1.414   1.157 -0.5851 -1.9480 -1.9676
 5981TIP3   OH239357   0.346   1.834  13.292 -0.0063  0.4101  0.3407
 5981TIP3    H139358   0.373   1.925  13.280  0.0407  0.1294 -1.8551
 5981TIP3    H239359   0.271   1.839  13.352 -0.2757  1.9363 -0.1161
 5982TIP3   OH239360   4.604   1.434  12.756 -0.4413  0.0075 -0.0143
 5982TIP3    H139361   4.573   1.380  12.683 -0.1491 -1.2593  0.7956
 5982TIP3    H239362   4.693   1.461  12.729 -0.7428  0.4353 -0.5973
 5983TIP3   OH239363   4.309   2.294   0.058  0.1709 -0.5389  0.2650
 5983TIP3    H139364   4.271   2.370   0.102  1.0724 -0.5664  1.1056
 5983TIP3    H239365   4.270   2.295  -0.029 -0.5601  0.3301  0.5911
 5984TIP3   OH239366   2.639   5.950   2.277  0.0965 -0.3187 -0.6714
 5984TIP3    H139367   2.672   6.031   2.238  0.4011  0.0215  0.2679
 5984TIP3    H239368   2.557   5.933   2.232  0.0383  0.5078 -0.8942
 5985TIP3   OH239369   1.461   4.996  11.438 -0.3381 -0.1139  0.0177
 5985TIP3    H139370   1.464   5.088  11.412  1.5557  0.0632  0.7547
 5985TIP3    H239371   1.487   4.997  11.531  2.7356 -1.6403 -0.7446
 5986TIP3   OH239372   4.132   5.405  16.702 -0.2391  0.3215  0.0280
 5986TIP3    H139373   4.106   5.434  16.790 -1.6602  1.9287 -0.8805
 5986TIP3    H239374   4.224   5.431  16.695 -0.5575  1.6511  0.4757
 5987TIP3   OH239375   1.087   1.954  15.100  0.0763  0.1612 -0.4323
 5987TIP3    H139376   1.015   1.963  15.037 -0.1447  0.9003 -0.0831
 5987TIP3    H239377   1.138   2.035  15.090  0.1733  0.1805  0.1661
 5988TIP3   OH239378   3.584   6.592  15.647 -0.1579  0.2579  0.8780
 5988TIP3    H139379   3.573   6.620  15.556 -2.5429 -0.4257  0.9222
 5988TIP3    H239380   3.617   6.502  15.642  0.9210  0.6515  0.7194
 5989TIP3   OH239381   2.620   5.523   5.491 -0.2245 -0.4720  0.0644
 5989TIP3    H139382   2.597   5.605   5.535  2.8047  0.5636 -0.1476
 5989TIP3    H239383   2.689   5.485   5.544  0.9979 -1.0071 -1.8573
 5990TIP3   OH239384   1.685   1.358   5.872 -0.7554 -0.3075 -0.4980
 5990TIP3    H139385   1.765   1.306   5.861 -0.5933  0.1430 -1.4838
 5990TIP3    H239386   1.614   1.294   5.866 -0.4657 -0.7587  0.7308
 5991TIP3   OH239387   6.362   0.551  12.554 -0.7008 -0.1491 -0.5627
 5991TIP3    H139388   6.373   0.612  12.482  0.7898  1.1150  0.6984
 5991TIP3    H239389   6.316   0.601  12.622 -0.2234 -0.6536  0.1498
 5992TIP3   OH239390   2.370   2.682   2.024 -0.2513 -0.2435 -0.2916
 5992TIP3    H139391   2.306   2.743   2.060  1.3847  0.1972  1.9887
 5992TIP3    H239392   2.330   2.596   2.036 -1.2199  0.1579 -0.6055
 5993TIP3   OH239393   3.760   0.155   4.620  0.0456 -0.3482  0.1375
 5993TIP3    H139394   3.843   0.107   4.623  0.0681 -0.5291 -2.1946
 5993TIP3    H239395   3.697   0.092   4.585 -1.5058 -0.7309  3.4444
 5994TIP3   OH239396   2.277   4.222  15.450 -0.2092 -0.5256  0.7393
 5994TIP3    H139397   2.190   4.261  15.435  1.0951  1.8193 -1.0217
 5994TIP3    H239398   2.277   4.199  15.543 -1.7580  1.9231  1.3909
 5995TIP3   OH239399   4.349   0.877  14.653  0.3959 -0.0357 -0.2195
 5995TIP3    H139400   4.382   0.933  14.723  0.8476 -2.3423  1.4806
 5995TIP3    H239401   4.408   0.802  14.652 -0.9215 -1.0955 -1.5909
 5996TIP3   OH239402   6.361   6.053  13.495  0.1464  0.0155 -0.1467
 5996TIP3    H139403   6.307   6.026  13.570 -0.7020  0.0366 -0.7419
 5996TIP3    H239404   6.390   6.141  13.516 -0.2942  0.1135  0.0504
 5997TIP3   OH239405   3.677   2.248  15.815 -0.0043  0.3724  0.6321
 5997TIP3    H139406   3.664   2.270  15.907  0.1987  0.4544  0.6394
 5997TIP3    H239407   3.649   2.156  15.808  1.2362 -0.0422  1.0378
 5998TIP3   OH239408   2.484   0.545   1.902 -0.4295 -0.1988  0.3060
 5998TIP3    H139409   2.527   0.496   1.832 -2.8640 -1.7300 -0.1951
 5998TIP3    H239410   2.545   0.614   1.924  2.6526 -2.7655  0.2155
 5999TIP3   OH239411   4.240   3.572  15.552 -0.0982  0.2182 -0.5555
 5999TIP3    H139412   4.158   3.571  15.600 -0.0093  1.1329 -0.3735
 5999TIP3    H239413   4.293   3.503  15.592  0.1663  1.3017  1.0000
 6000TIP3   OH239414   1.527   6.710  12.886  0.4918  0.7045  0.3447
 6000TIP3    H139415   1.588   6.703  12.959  1.0225 -1.8718 -0.2858
 6000TIP3    H239416   1.527   6.803  12.862 -0.0615  1.6781  3.9002
 6001TIP3   OH239417   5.689   6.128  15.699 -0.5818 -0.1910 -0.2171
 6001TIP3    H139418   5.756   6.192  15.724 -0.9275 -0.1042  0.5148
 6001TIP3    H239419   5.636   6.173  15.633  0.7738 -0.6756 -1.6687
 6002TIP3   OH239420   2.025   3.188  13.652 -0.4036  0.1972 -0.0852
 6002TIP3    H139421   2.037   3.094  13.664  0.8873  0.5748  1.9911
 6002TIP3    H239422   1.979   3.216  13.731 -0.7836  1.2997 -0.6981
 6003TIP3   OH239423   4.256   0.617   4.712 -0.4819  0.3872  0.1060
 6003TIP3    H139424   4.264   0.711   4.695 -0.5607  0.1669 -1.2604
 6003TIP3    H239425   4.214   0.611   4.798 -0.8232  1.6100  0.0333
 6004TIP3   OH239426   4.394   4.881  12.242  0.2835 -0.0148 -0.5647
 6004TIP3    H139427   4.437   4.946  12.186  0.8774  0.1349  0.0517
 6004TIP3    H239428   4.393   4.922  12.329 -0.3494 -0.3717 -0.4058
 6005TIP3   OH239429   2.005   0.093   3.710  0.1436 -0.2578  0.2783
 6005TIP3    H139430   1.943   0.166   3.705  1.5397  0.9191  0.1056
 6005TIP3    H239431   1.999   0.051   3.624 -1.2880 -0.9054  0.6614
 6006TIP3   OH239432   0.918   5.420   1.536  0.4394 -0.1113  0.1456
 6006TIP3    H139433   0.940   5.332   1.567  0.8492  0.3204  1.1128
 6006TIP3    H239434   1.002   5.466   1.535  0.4273 -0.1127 -1.6148
 6007TIP3   OH239435   3.372   5.109  12.162  0.3199  0.1264 -0.0923
 6007TIP3    H139436   3.463   5.136  12.146  0.4903  0.9745  2.1297
 6007TIP3    H239437   3.363   5.026  12.115  2.9477 -1.1099  1.4816
 6008TIP3   OH239438   2.846   0.582  17.129 -0.1439 -0.7036  0.2190
 6008TIP3    H139439   2.931   0.598  17.170  0.2391  0.0273 -0.8325
 6008TIP3    H239440   2.789   0.652  17.163  0.2938  0.1738 -0.8159
 6009TIP3   OH239441   4.983   3.293  12.840  0.1123  0.0478 -0.2033
 6009TIP3    H139442   4.965   3.385  12.821 -1.1367 -0.8200 -3.5586
 6009TIP3    H239443   4.912   3.246  12.798  1.7576 -2.5856 -0.1174
 6010TIP3   OH239444   2.009   0.669  15.972  0.3873 -0.0563  0.4735
 6010TIP3    H139445   2.022   0.575  15.987 -2.1479 -0.6937 -0.9490
 6010TIP3    H239446   1.914   0.679  15.965  0.6267  2.6070  0.4523
 6011TIP3   OH239447   5.941   0.261  14.032 -0.1871 -0.5019 -0.1053
 6011TIP3    H139448   5.886   0.326  14.076 -0.2776  1.8709 -3.4577
 6011TIP3    H239449   6.027   0.271  14.071 -0.7788 -0.0387  1.0873
 6012TIP3   OH239450   2.905   0.209  12.260  0.3070 -0.6012  0.5792
 6012TIP3    H139451   2.947   0.282  12.213  1.2537  0.2483  2.6954
 6012TIP3    H239452   2.974   0.172  12.314 -0.3287 -2.7165  0.0007
 6013TIP3   OH239453   4.660   2.988   0.691 -0.3763  0.0923 -0.1340
 6013TIP3    H139454   4.696   3.076   0.686  1.0533 -0.4258  0.6882
 6013TIP3    H239455   4.679   2.950   0.605 -1.6507  0.8138 -0.7484
 6014TIP3   OH239456   3.142   5.471   0.214 -0.2395 -0.3657  0.2132
 6014TIP3    H139457   3.090   5.392   0.202 -0.4006 -0.4208  1.2597
 6014TIP3    H239458   3.138   5.489   0.308  1.1945 -0.0635  0.2199
 6015TIP3   OH239459   2.564   6.369  10.779  0.2885 -0.1497  0.4684
 6015TIP3    H139460   2.502   6.298  10.796 -0.0082  0.1996  0.8525
 6015TIP3    H239461   2.529   6.413  10.701  1.3609 -1.4250 -0.7580
 6016TIP3   OH239462   4.900   2.259   4.261 -0.0685 -0.3636 -0.0075
 6016TIP3    H139463   4.975   2.237   4.316  0.1039 -1.9947 -0.8657
 6016TIP3    H239464   4.930   2.330   4.205  0.2676  0.2042  0.8898
 6017TIP3   OH239465   3.335   2.305  13.929 -0.0301  0.4849  0.2252
 6017TIP3    H139466   3.400   2.359  13.972 -1.5720  1.9721  0.7375
 6017TIP3    H239467   3.270   2.367  13.896 -0.6887 -0.8927 -1.1234
 6018TIP3   OH239468   6.670   1.405  15.997 -0.1917 -0.0360  0.2060
 6018TIP3    H139469   6.671   1.501  16.004  0.2273  0.1162 -1.7625
 6018TIP3    H239470   6.761   1.379  16.012 -0.2904 -0.1221  0.6593
 6019TIP3   OH239471   0.338   3.646   0.139  0.0034  0.1177  0.1547
 6019TIP3    H139472   0.402   3.630   0.208 -1.7070  3.0878  2.5483
 6019TIP3    H239473   0.258   3.604   0.170 -0.8581  1.7191  0.1427
 6020TIP3   OH239474   2.110   3.176  10.628  0.1126 -0.1495 -0.2895
 6020TIP3    H139475   2.016   3.159  10.617  0.0638  0.7738 -1.3936
 6020TIP3    H239476   2.150   3.137  10.550  0.2028  2.9286 -1.8693
 6021TIP3   OH239477   3.017   5.828  15.343 -0.5013 -0.0924  0.3836
 6021TIP3    H139478   3.028   5.908  15.291  0.2728 -0.2122  0.3626
 6021TIP3    H239479   3.051   5.759  15.287  0.0359 -0.2649  0.9240
 6022TIP3   OH239480   6.201   5.467   0.598  0.3732  0.6268 -0.9639
 6022TIP3    H139481   6.203   5.537   0.664  0.9986 -0.6046  0.3585
 6022TIP3    H239482   6.292   5.437   0.593  0.3005  0.5999 -2.2923
 6023TIP3   OH239483   3.687   3.735   0.425 -0.2067 -0.7762 -0.1668
 6023TIP3    H139484   3.721   3.719   0.513  1.9192  1.7634 -0.4802
 6023TIP3    H239485   3.747   3.687   0.368 -0.8854 -1.4497 -0.3159
 6024TIP3   OH239486   3.636   0.290   0.124 -0.5356 -0.2336  0.3500
 6024TIP3    H139487   3.573   0.303   0.052 -0.9764 -1.7253  0.4489
 6024TIP3    H239488   3.696   0.364   0.116 -2.5623  1.4759  0.5361
 6025TIP3   OH239489   0.708   0.212  17.110  0.1420  0.2660 -0.3093
 6025TIP3    H139490   0.698   0.247  17.198  1.6761 -0.4114  0.1356
 6025TIP3    H239491   0.659   0.130  17.111  3.2526 -1.6543  1.0593
 6026TIP3   OH239492   3.841   0.392   2.788 -0.1602  0.3019 -0.0057
 6026TIP3    H139493   3.857   0.486   2.773 -0.7927  0.5063  0.6012
 6026TIP3    H239494   3.922   0.350   2.758 -0.2744  0.9429 -1.2888
 6027TIP3   OH239495   3.795   1.735   2.195 -0.1833  0.8245 -0.8132
 6027TIP3    H139496   3.705   1.756   2.169 -0.5552  1.1108  0.6559
 6027TIP3    H239497   3.840   1.820   2.194 -0.2665  0.8742 -0.2658
 6028TIP3   OH239498   4.785   5.849   2.677 -0.1901  0.4860  0.2766
 6028TIP3    H139499   4.734   5.930   2.672 -0.0821  0.5101 -0.4760
 6028TIP3    H239500   4.753   5.806   2.756 -0.6256  1.0136  0.3929
 6029TIP3   OH239501   2.219   3.262   3.326  0.5182  0.3517 -0.2997
 6029TIP3    H139502   2.281   3.333   3.342 -0.6460  1.2046  0.4649
 6029TIP3    H239503   2.261   3.208   3.259  1.1546  2.0893 -1.3230
 6030TIP3   OH239504   6.651   5.789   4.039  0.7314  0.0782  0.1384
 6030TIP3    H139505   6.560   5.817   4.051  0.5563 -0.1033 -0.7668
 6030TIP3    H239506   6.646   5.693   4.042  0.9102  0.0692  0.1506
 6031TIP3   OH239507   5.500   5.689   1.761  0.2687 -0.4405 -0.3287
 6031TIP3    H139508   5.492   5.636   1.841  0.3608  1.2389  0.8260
 6031TIP3    H239509   5.425   5.664   1.708 -1.0136  0.0007  1.2523
 6032TIP3   OH239510   3.874   2.695   0.341  0.2868  0.0577 -0.3131
 6032TIP3    H139511   3.780   2.710   0.341  0.3353  0.3969 -1.0418
 6032TIP3    H239512   3.884   2.605   0.309  0.1836 -0.2257  0.4293
 6033TIP3   OH239513   1.971   3.959  12.415  0.5962 -0.0948 -0.8634
 6033TIP3    H139514   1.977   3.964  12.510 -3.9995 -4.8600 -0.1039
 6033TIP3    H239515   2.049   3.909  12.389  0.1980 -1.6720  0.8374
 6034TIP3   OH239516   5.880   3.264  12.114  0.7116 -0.6653  0.9828
 6034TIP3    H139517   5.819   3.190  12.123  1.3885 -1.0524  2.4275
 6034TIP3    H239518   5.965   3.224  12.097  0.6755 -0.1351 -0.5519
 6035TIP3   OH239519   2.805   1.532  16.905  0.3442  0.4666 -0.0605
 6035TIP3    H139520   2.834   1.442  16.887 -1.2443 -0.0045 -0.4053
 6035TIP3    H239521   2.835   1.550  16.994  1.5507 -0.0426 -0.3585
 6036TIP3   OH239522   6.266   4.018   0.350  0.3619 -0.3449  0.7281
 6036TIP3    H139523   6.233   3.937   0.311 -0.5067 -0.4186  1.6026
 6036TIP3    H239524   6.352   4.030   0.311 -0.3255 -0.6265 -0.9019
 6037TIP3   OH239525   5.759   3.143  11.811 -1.1013  0.0689 -0.1004
 6037TIP3    H139526   5.674   3.098  11.805 -0.4383 -1.1176 -0.8268
 6037TIP3    H239527   5.811   3.088  11.869  0.1881 -0.9069 -2.1225
 6038TIP3   OH239528   5.078   5.918  16.966 -0.0591  0.2333 -0.1920
 6038TIP3    H139529   5.080   5.847  16.902  2.0843 -0.3526  0.4921
 6038TIP3    H239530   5.119   5.992  16.921 -1.5886  0.8236 -0.6359
 6039TIP3   OH239531   4.656   4.239  13.205  0.3195  0.4471  0.4535
 6039TIP3    H139532   4.727   4.238  13.269 -0.1249  1.1258  0.9690
 6039TIP3    H239533   4.584   4.192  13.248 -0.0907  1.1879  0.6018
 6040TIP3   OH239534   5.234   4.833  15.590 -0.1005  0.4453  0.3969
 6040TIP3    H139535   5.151   4.792  15.611  0.0296 -0.1016 -0.1495
 6040TIP3    H239536   5.276   4.774  15.528  0.7283  0.6836  0.7169
 6041TIP3   OH239537   1.669   5.283  13.734 -0.3180  0.0524  0.0451
 6041TIP3    H139538   1.705   5.371  13.723  0.1016 -0.2156 -0.8078
 6041TIP3    H239539   1.630   5.283  13.822  1.4193  0.4724  0.8350
 6042TIP3   OH239540   5.040   5.853   3.029 -0.0900  0.4205  0.5226
 6042TIP3    H139541   5.081   5.939   3.019  0.5088  0.1873  0.9515
 6042TIP3    H239542   5.090   5.811   3.099 -0.2646 -0.3439  0.1887
 6043TIP3   OH239543   5.351   0.915   5.375 -0.1182  0.2531 -0.2360
 6043TIP3    H139544   5.276   0.916   5.316 -0.4072  1.2848  0.1343
 6043TIP3    H239545   5.315   0.887   5.459  0.1508 -0.4814 -0.3636
 6044TIP3   OH239546   5.908   1.198  16.568  0.2726  0.1909 -0.3659
 6044TIP3    H139547   5.996   1.164  16.579 -0.4342 -1.0938  1.5481
 6044TIP3    H239548   5.890   1.189  16.474  2.3316  0.9325 -0.8430
 6045TIP3   OH239549   5.836   2.206   0.771  0.3824  0.6772  0.0134
 6045TIP3    H139550   5.872   2.118   0.760 -0.2839  0.1709  1.6964
 6045TIP3    H239551   5.813   2.233   0.683  2.4511 -0.0260 -0.7781
 6046TIP3   OH239552   4.554   0.682  12.724  0.7717  0.1174 -0.6080
 6046TIP3    H139553   4.646   0.657  12.715  0.6620 -0.6151  0.1483
 6046TIP3    H239554   4.548   0.724  12.810  0.1510 -1.1044 -0.0328
 6047TIP3   OH239555   4.065   2.822   6.340  0.8358  0.2060  0.8472
 6047TIP3    H139556   3.988   2.871   6.369  0.8373  0.4615  0.4278
 6047TIP3    H239557   4.115   2.805   6.419  0.9953  1.1541  0.9461
 6048TIP3   OH239558   0.830   2.181   0.534 -0.0988  0.5913 -0.0954
 6048TIP3    H139559   0.799   2.153   0.620  1.1010 -0.3020  0.0558
 6048TIP3    H239560   0.920   2.209   0.549  0.7031 -1.2218 -1.3706
 6049TIP3   OH239561   1.372   5.546  11.343  0.1753 -0.2968 -0.2833
 6049TIP3    H139562   1.362   5.584  11.256  1.0967  0.0468 -0.2400
 6049TIP3    H239563   1.421   5.611  11.392 -0.6757 -0.3282  0.6078
 6050TIP3   OH239564   2.275   3.739   4.560  0.0160  0.1063  0.3947
 6050TIP3    H139565   2.350   3.711   4.612 -1.0568  0.1109  1.9590
 6050TIP3    H239566   2.251   3.661   4.509  1.7680  0.4301 -0.9869
 6051TIP3   OH239567   1.414   2.329  13.006  1.2990 -0.0033 -0.3162
 6051TIP3    H139568   1.448   2.268  13.071  0.6382 -0.8112 -0.7195
 6051TIP3    H239569   1.399   2.275  12.928 -0.8544  0.3355 -0.1659
 6052TIP3   OH239570   2.698   2.982   5.747  0.0084  0.1144 -0.3737
 6052TIP3    H139571   2.674   2.908   5.692 -0.4891  0.1928 -0.2647
 6052TIP3    H239572   2.790   2.997   5.728 -0.0942 -0.0208 -0.9955
 6053TIP3   OH239573   4.352   4.542  13.684 -0.1081  0.2682 -0.3795
 6053TIP3    H139574   4.295   4.522  13.758  0.7590 -1.2203 -0.0978
 6053TIP3    H239575   4.298   4.597  13.627 -0.6399  1.7521  1.5282
 6054TIP3   OH239576   2.857   5.862  15.619  0.6354 -0.4948  0.4978
 6054TIP3    H139577   2.910   5.858  15.539  0.3766  0.2659  0.2897
 6054TIP3    H239578   2.841   5.770  15.641  4.2339 -0.8358  2.0325
 6055TIP3   OH239579   1.890   5.495   2.045 -0.1273 -0.0145  0.2731
 6055TIP3    H139580   1.914   5.423   1.987  1.8171  0.1959  0.8098
 6055TIP3    H239581   1.857   5.563   1.986  1.9040  0.2326 -0.6198
 6056TIP3   OH239582   2.834   5.458  14.502  0.0285  0.7275  0.0821
 6056TIP3    H139583   2.749   5.490  14.532  1.3953  1.2289  3.5818
 6056TIP3    H239584   2.893   5.531  14.517  1.2894  0.0141 -1.3589
 6057TIP3   OH239585   4.551   5.952  14.268 -0.0897  0.3468  0.4943
 6057TIP3    H139586   4.528   6.033  14.313 -2.4342  0.2070 -0.4138
 6057TIP3    H239587   4.496   5.885  14.310  0.5780 -0.4799  0.0658
 6058TIP3   OH239588   5.794   6.019  11.962  0.0296  0.2342 -0.0672
 6058TIP3    H139589   5.822   6.066  11.884  2.4140 -1.0035  0.0059
 6058TIP3    H239590   5.795   5.927  11.937  0.1055 -0.1302  1.2163
 6059TIP3   OH239591   3.137   1.093   0.660  0.0694  0.3380  0.1859
 6059TIP3    H139592   3.096   1.035   0.724  2.2302  1.5820  2.8140
 6059TIP3    H239593   3.221   1.051   0.640  1.1222  1.8914  1.1954
 6060TIP3   OH239594   5.138   3.318   6.114  0.2729  0.6420  0.0598
 6060TIP3    H139595   5.050   3.286   6.134  0.8346 -0.4217  0.8808
 6060TIP3    H239596   5.176   3.336   6.200  1.5657 -0.8409 -0.1885
 6061TIP3   OH239597   6.194   3.799   4.124  0.7409 -0.7378  0.1199
 6061TIP3    H139598   6.226   3.793   4.035 -0.4793  0.4965 -0.4203
 6061TIP3    H239599   6.109   3.844   4.117  0.7098 -0.4551  1.9021
 6062TIP3   OH239600   4.470   6.574  14.785 -0.3012 -0.3222  0.4342
 6062TIP3    H139601   4.505   6.492  14.751  0.2117  0.1483 -0.1837
 6062TIP3    H239602   4.391   6.548  14.834 -0.3510 -1.1367 -0.0649
 6063TIP3   OH239603   5.489   3.826   6.730  0.1832  0.1218 -0.1924
 6063TIP3    H139604   5.536   3.881   6.666  0.0268 -0.2594 -0.6412
 6063TIP3    H239605   5.551   3.756   6.751  1.0158  1.3625  1.6391
 6064TIP3   OH239606   0.528   5.280  14.347 -0.2340 -0.4910  0.7822
 6064TIP3    H139607   0.506   5.295  14.255 -0.4664  0.8898  1.0540
 6064TIP3    H239608   0.620   5.307  14.354  0.0789 -1.5126  0.7534
 6065TIP3   OH239609   5.620   6.094   3.680  0.4557 -0.1951 -0.4350
 6065TIP3    H139610   5.535   6.077   3.722  0.0505  2.9727  0.1365
 6065TIP3    H239611   5.599   6.112   3.588  0.6205 -0.4534 -0.5240
 6066TIP3   OH239612   4.120   0.255  10.838  0.0492  0.2908 -0.4681
 6066TIP3    H139613   4.148   0.330  10.892 -0.3043 -0.3835  0.6796
 6066TIP3    H239614   4.034   0.280  10.806 -0.5309 -0.0416  0.7841
 6067TIP3   OH239615   1.422   2.396  14.548 -0.3001 -0.5657 -0.0209
 6067TIP3    H139616   1.379   2.398  14.634 -0.7398  0.2142 -0.2547
 6067TIP3    H239617   1.492   2.461  14.555 -1.0599  0.3334 -0.6160
 6068TIP3   OH239618   5.459   0.565   2.589 -0.4510  0.0771 -0.2407
 6068TIP3    H139619   5.473   0.572   2.494 -3.0226 -0.6098 -0.7197
 6068TIP3    H239620   5.500   0.482   2.613 -2.5296 -1.3293 -1.3767
 6069TIP3   OH239621   5.247   2.112   3.488 -0.3979  0.2729  0.1923
 6069TIP3    H139622   5.173   2.053   3.472 -0.2007  0.1032 -0.0910
 6069TIP3    H239623   5.270   2.098   3.580  0.2978 -0.8384 -0.1424
 6070TIP3   OH239624   5.853   4.861   3.441  0.0025  0.4782  0.0208
 6070TIP3    H139625   5.852   4.874   3.346 -0.6190  0.1861 -0.0195
 6070TIP3    H239626   5.795   4.786   3.455  0.1195  0.5004  0.6293
 6071TIP3   OH239627   1.984   1.303   5.864  0.1789 -0.1706  0.2782
 6071TIP3    H139628   2.030   1.283   5.782  0.3284 -0.3474  0.4058
 6071TIP3    H239629   2.049   1.350   5.916  0.2865 -0.6198  0.5491
 6072TIP3   OH239630   6.550   2.258   0.654 -0.0088 -0.1242 -0.2861
 6072TIP3    H139631   6.626   2.203   0.635 -0.1188  0.2854 -1.9607
 6072TIP3    H239632   6.510   2.275   0.568 -1.3017  0.6560  0.4495
 6073TIP3   OH239633   0.394   1.878   1.399 -0.4322  0.3842 -0.1312
 6073TIP3    H139634   0.389   1.969   1.426 -1.1072  0.4389 -0.4466
 6073TIP3    H239635   0.442   1.879   1.316 -0.9591  0.5072 -0.4320
 6074TIP3   OH239636   2.226   0.960   6.646 -0.1890 -0.2188  0.0641
 6074TIP3    H139637   2.174   0.881   6.637  1.7413 -1.3185 -2.0294
 6074TIP3    H239638   2.205   1.013   6.569  0.3468  0.1844  0.1837
 6075TIP3   OH239639   5.799   1.690  13.753 -0.0718  0.0908  0.9510
 6075TIP3    H139640   5.711   1.652  13.754 -0.3031  0.5160 -0.7543
 6075TIP3    H239641   5.792   1.764  13.693  1.0329  1.2182  2.1822
 6076TIP3   OH239642   6.053   3.538  14.584  0.3751  0.3802  0.4164
 6076TIP3    H139643   6.072   3.507  14.672 -2.2888  0.0468  0.9148
 6076TIP3    H239644   5.987   3.477  14.550  1.0877  0.7146 -1.6900
 6077TIP3   OH239645   3.454   1.409  16.257  0.7945  0.3019  0.2750
 6077TIP3    H139646   3.487   1.448  16.176 -2.9441  0.8808 -1.0695
 6077TIP3    H239647   3.370   1.452  16.271 -0.0276 -2.0506  2.7733
 6078TIP3   OH239648   0.979   1.457  13.752  0.1354  0.4367  0.0310
 6078TIP3    H139649   0.960   1.550  13.747  0.6046  0.4297 -2.1657
 6078TIP3    H239650   0.893   1.415  13.757 -0.1490  0.9034 -0.8071
 6079TIP3   OH239651   5.696   0.292  15.267  0.7179  0.8824  0.6692
 6079TIP3    H139652   5.752   0.348  15.213  0.1931  2.0092  1.2641
 6079TIP3    H239653   5.618   0.278  15.214  1.8880 -1.4031 -0.5165
 6080TIP3   OH239654   6.611   3.581  13.092 -0.1102  0.0444  0.2546
 6080TIP3    H139655   6.596   3.636  13.016  1.3889 -0.1276 -0.1855
 6080TIP3    H239656   6.695   3.611  13.127 -0.5075 -0.2558  1.5040
 6081TIP3   OH239657   5.067   2.980  15.847 -0.2246  0.4458  0.3810
 6081TIP3    H139658   5.103   2.897  15.815 -1.7563 -0.1945  0.2905
 6081TIP3    H239659   4.980   2.958  15.878 -0.5909  2.0057  0.4904
 6082TIP3   OH239660   0.476   5.665  11.808  0.1247 -0.1601  0.2438
 6082TIP3    H139661   0.529   5.743  11.794  1.1536 -1.0603 -0.9892
 6082TIP3    H239662   0.450   5.637  11.720 -0.1802 -1.2351  0.6645
 6083TIP3   OH239663   2.180   4.310   5.010  0.1808  0.5143 -0.7880
 6083TIP3    H139664   2.186   4.403   4.985 -2.0070  0.8156 -0.2877
 6083TIP3    H239665   2.120   4.272   4.946 -1.9632  0.3176  1.2522
 6084TIP3   OH239666   3.507   6.595  12.292 -0.4287 -0.2528 -0.0652
 6084TIP3    H139667   3.576   6.537  12.323 -1.2878 -0.9212  0.6202
 6084TIP3    H239668   3.427   6.559  12.329 -1.0159  1.1832  0.1051
 6085TIP3   OH239669   4.140   5.156  11.935  0.8357 -0.3464  0.3366
 6085TIP3    H139670   4.188   5.236  11.915 -1.5165  0.8655 -0.6180
 6085TIP3    H239671   4.080   5.145  11.861 -1.3980 -1.0089  2.2162
 6086TIP3   OH239672   3.790   3.615  17.149 -0.0971 -0.3228 -0.1937
 6086TIP3    H139673   3.798   3.524  17.177 -0.1683  0.1252  1.3739
 6086TIP3    H239674   3.834   3.618  17.065  0.5556 -1.6574  0.0780
 6087TIP3   OH239675   3.988   4.910   1.512 -0.0153 -0.5684  0.1544
 6087TIP3    H139676   3.920   4.843   1.519 -0.1525 -0.7013 -2.0784
 6087TIP3    H239677   4.004   4.917   1.418  0.0741  2.4626  0.3656
 6088TIP3   OH239678   1.823   3.037  14.602  0.2234 -0.5404 -0.4414
 6088TIP3    H139679   1.892   2.975  14.625  1.4250  0.7572 -0.4883
 6088TIP3    H239680   1.844   3.064  14.512 -1.7823 -2.0235 -1.3976
 6089TIP3   OH239681   3.546   4.785   3.445 -0.1530  0.3070  0.4141
 6089TIP3    H139682   3.585   4.715   3.497 -1.5575 -0.6554  0.2076
 6089TIP3    H239683   3.505   4.740   3.372 -1.4435  1.3050  0.5044
 6090TIP3   OH239684   0.569   4.560  15.144  0.2485  0.0004 -0.4547
 6090TIP3    H139685   0.522   4.486  15.105 -0.2457 -0.0315  0.1958
 6090TIP3    H239686   0.547   4.556  15.237  0.6091  0.6853 -0.3390
 6091TIP3   OH239687   3.962   2.247  16.204  0.0740  0.1400 -0.0341
 6091TIP3    H139688   3.978   2.206  16.120 -1.3446  0.0283 -0.2677
 6091TIP3    H239689   3.951   2.174  16.265 -1.2307  0.1722 -0.2139
 6092TIP3   OH239690   0.214   3.775   0.765  0.1401  0.2065 -0.8469
 6092TIP3    H139691   0.156   3.845   0.735  0.2256  0.9654  0.7101
 6092TIP3    H239692   0.248   3.735   0.685 -1.1033  0.9509 -1.7523
 6093TIP3   OH239693   6.124   2.115   5.533  0.1328  0.3831  0.1509
 6093TIP3    H139694   6.085   2.101   5.619 -0.3778  1.6439  0.1404
 6093TIP3    H239695   6.097   2.040   5.481 -0.9664  0.4613  0.6051
 6094TIP3   OH239696   5.472   5.231  12.879 -0.0587 -0.0454 -0.0432
 6094TIP3    H139697   5.423   5.168  12.932  0.4725 -0.6713 -0.2921
 6094TIP3    H239698   5.500   5.298  12.941  0.7079 -0.8670  0.5188
 6095TIP3   OH239699   5.679   0.876  15.981  0.0962 -0.1973  0.1928
 6095TIP3    H139700   5.691   0.923  15.898 -0.2133 -2.4861 -1.1969
 6095TIP3    H239701   5.734   0.923  16.043  0.8237  1.2001 -1.4585
 6096TIP3   OH239702   1.272   5.710  10.748  0.0950  0.1300  0.7200
 6096TIP3    H139703   1.248   5.627  10.707 -0.1905  1.3126 -1.6283
 6096TIP3    H239704   1.317   5.686  10.828 -1.5091 -2.2544  0.9382
 6097TIP3   OH239705   4.297   6.536  12.430 -0.1754  0.1082 -0.2775
 6097TIP3    H139706   4.348   6.500  12.358  1.0704 -0.6098  0.9377
 6097TIP3    H239707   4.341   6.619  12.451  0.0644 -0.1563  0.2833
 6098TIP3   OH239708   2.010   0.653   4.570 -0.7484  0.0522  0.0731
 6098TIP3    H139709   1.991   0.559   4.566 -2.7043  0.4776 -1.3430
 6098TIP3    H239710   1.954   0.692   4.502  0.6974  2.1381  0.0409
 6099TIP3   OH239711   0.008   4.335  13.625  0.2304 -0.0930 -0.0649
 6099TIP3    H139712  -0.073   4.378  13.597  1.9340  1.9296 -2.0352
 6099TIP3    H239713  -0.022   4.261  13.678 -2.9413 -0.4954 -2.2696
 6100TIP3   OH239714   1.069   5.626  12.778  0.0424  0.6836  0.6262
 6100TIP3    H139715   1.106   5.558  12.722 -1.2355  0.3093  0.2413
 6100TIP3    H239716   1.033   5.579  12.853 -1.6077  0.8623 -0.0513
 6101TIP3   OH239717   4.769   2.719   4.297  0.0592  0.3952 -0.5134
 6101TIP3    H139718   4.722   2.708   4.380 -0.1672 -1.1033 -0.8289
 6101TIP3    H239719   4.699   2.727   4.231  0.2269 -1.0879 -0.8881
 6102TIP3   OH239720   6.688   5.172  13.846  0.6553 -0.6039 -0.0682
 6102TIP3    H139721   6.692   5.141  13.756 -2.9999 -0.1530 -0.4763
 6102TIP3    H239722   6.666   5.093  13.897  0.6684 -0.4718  0.1418
 6103TIP3   OH239723   0.597   3.200   2.710 -0.0317 -0.0457 -0.0668
 6103TIP3    H139724   0.666   3.193   2.775  0.6403  0.4077 -0.7249
 6103TIP3    H239725   0.562   3.289   2.721 -0.8022 -0.4169  0.5491
 6104TIP3   OH239726   4.170   0.142  12.048 -0.0848  0.1840 -0.3852
 6104TIP3    H139727   4.162   0.073  12.114  1.0338 -1.0027 -1.4752
 6104TIP3    H239728   4.118   0.111  11.974  3.2483 -1.1685 -2.2388
 6105TIP3   OH239729   5.433   1.715  16.860  0.3377 -0.4592  0.1962
 6105TIP3    H139730   5.368   1.671  16.914  1.6106 -1.2138  1.1510
 6105TIP3    H239731   5.478   1.644  16.814  0.8724  0.0108 -0.0079
 6106TIP3   OH239732   0.156   4.903   1.058 -0.3253 -0.9560 -0.5870
 6106TIP3    H139733   0.198   4.852   1.128 -2.8115 -1.7534  0.3962
 6106TIP3    H239734   0.143   4.990   1.096 -0.5489 -1.0357 -0.4747
 6107TIP3   OH239735   2.859   1.688  11.741 -0.0950  0.2104 -0.0576
 6107TIP3    H139736   2.816   1.645  11.815  0.1120  0.4576  0.2084
 6107TIP3    H239737   2.797   1.754  11.712 -1.5240 -1.9612 -2.1233
 6108TIP3   OH239738   4.356   3.602  16.580 -0.0844 -0.0913  0.2978
 6108TIP3    H139739   4.377   3.659  16.654  0.6192  0.9444 -0.6899
 6108TIP3    H239740   4.441   3.573  16.547 -0.3832 -0.1516 -0.4236
 6109TIP3   OH239741   2.801   3.510   3.236 -1.0538  0.1867 -0.0419
 6109TIP3    H139742   2.886   3.484   3.271 -1.6263  0.1755  1.3452
 6109TIP3    H239743   2.805   3.487   3.143  1.2833  2.2298 -0.5048
 6110TIP3   OH239744   2.543   3.652  11.044 -0.6453 -0.4767  0.6197
 6110TIP3    H139745   2.572   3.730  10.997 -1.0489  1.1320  2.9367
 6110TIP3    H239746   2.620   3.624  11.094 -0.2274 -2.1572 -0.8960
 6111TIP3   OH239747   0.400   5.869  12.897  1.0218  0.3184 -0.4618
 6111TIP3    H139748   0.374   5.838  12.810  3.1649 -0.5596 -0.8106
 6111TIP3    H239749   0.317   5.894  12.939 -0.3477 -1.8455 -1.7528
 6112TIP3   OH239750   3.479   5.232   1.652  0.0803 -0.0866 -0.2115
 6112TIP3    H139751   3.448   5.212   1.564  0.7350  0.6722 -0.6113
 6112TIP3    H239752   3.400   5.236   1.705 -0.5458  2.0671 -1.2704
 6113TIP3   OH239753   3.553   0.492  13.350  0.2146  0.3935 -0.3627
 6113TIP3    H139754   3.647   0.508  13.335  0.8915 -1.2056  1.8782
 6113TIP3    H239755   3.531   0.423  13.288  0.4369  0.9939 -1.1209
 6114TIP3   OH239756   4.593   3.656  10.738  0.4562 -0.4910 -0.2107
 6114TIP3    H139757   4.595   3.561  10.748  0.6002 -0.7460 -2.4025
 6114TIP3    H239758   4.684   3.684  10.751 -0.1423 -0.1612  4.1785
 6115TIP3   OH239759   6.263   0.770   1.048 -0.3479  0.2810 -0.2869
 6115TIP3    H139760   6.193   0.706   1.039 -0.7964  0.6878  0.2917
 6115TIP3    H239761   6.343   0.721   1.029 -0.6896 -0.4444  0.1200
 6116TIP3   OH239762   0.481   5.061   5.452  0.0604 -0.0252 -0.2397
 6116TIP3    H139763   0.498   5.015   5.534  2.0037  0.8224 -0.1625
 6116TIP3    H239764   0.452   4.992   5.392  1.5832 -1.1396  0.2828
 6117TIP3   OH239765   1.625   3.859   5.839  0.5911 -0.2460  0.0515
 6117TIP3    H139766   1.632   3.894   5.928  0.7132 -0.4181  0.1092
 6117TIP3    H239767   1.706   3.887   5.797 -0.0004  0.8758 -0.3758
 6118TIP3   OH239768   2.174   3.505   5.349  0.0118  0.5132  0.2489
 6118TIP3    H139769   2.207   3.451   5.421  0.0016 -0.4830 -0.4738
 6118TIP3    H239770   2.086   3.471   5.333  0.5572 -0.2780 -1.1946
 6119TIP3   OH239771   3.317   4.517  11.972  0.0211  0.5037 -0.0209
 6119TIP3    H139772   3.254   4.580  11.939  0.4201  0.7187 -0.3747
 6119TIP3    H239773   3.266   4.458  12.028 -1.2256 -1.7302 -3.4053
 6120TIP3   OH239774   5.341   4.013  15.243  0.2403  0.3061 -0.1569
 6120TIP3    H139775   5.365   4.070  15.170  1.5729 -1.3291 -1.0367
 6120TIP3    H239776   5.305   4.072  15.309  1.1134  2.0883 -1.2410
 6121TIP3   OH239777   5.188   0.152  11.005 -0.0750  0.4696 -0.5201
 6121TIP3    H139778   5.206   0.231  10.954 -0.2595  0.7201 -0.2053
 6121TIP3    H239779   5.203   0.080  10.945  1.4646  0.6852 -0.4081
 6122TIP3   OH239780   0.584   6.728   2.676 -0.4730 -0.5097 -0.1400
 6122TIP3    H139781   0.638   6.651   2.693  1.7835  0.9397 -0.5786
 6122TIP3    H239782   0.517   6.726   2.745 -0.7253 -3.0714 -0.4017
 6123TIP3   OH239783   4.873   5.670  12.205 -0.1849 -0.0261  0.4384
 6123TIP3    H139784   4.898   5.581  12.183  0.4801  0.2368  0.0995
 6123TIP3    H239785   4.808   5.694  12.140 -0.5250 -0.3423  0.6662
 6124TIP3   OH239786   5.116   2.046  13.472  0.2513  0.0764  0.3961
 6124TIP3    H139787   5.150   2.113  13.531  0.2923  1.0368 -0.6970
 6124TIP3    H239788   5.191   1.989  13.455  0.2997 -0.0687  1.0759
 6125TIP3   OH239789   0.326   0.807  15.185  0.8150  0.2488  0.3762
 6125TIP3    H139790   0.244   0.856  15.182  1.2872  1.1072  1.3746
 6125TIP3    H239791   0.312   0.735  15.123 -0.2564  1.0476 -0.3420
 6126TIP3   OH239792   2.205   6.387  16.926 -0.1115 -0.4815  0.6100
 6126TIP3    H139793   2.153   6.405  17.004 -1.2034  1.7547 -0.5909
 6126TIP3    H239794   2.210   6.471  16.880  2.0975 -1.3275 -0.7861
 6127TIP3   OH239795   2.344   2.225  11.125  0.5824  0.3956 -0.6556
 6127TIP3    H139796   2.361   2.232  11.219  1.0500 -2.0988 -0.4960
 6127TIP3    H239797   2.257   2.262  11.113  0.8150  1.3870  0.6512
 6128TIP3   OH239798   5.337   6.620  13.570 -0.2962  0.5396  0.0539
 6128TIP3    H139799   5.305   6.530  13.566  0.0278  0.4902 -2.7521
 6128TIP3    H239800   5.423   6.613  13.611 -1.1869 -0.1260  1.8647
 6129TIP3   OH239801   0.436   0.707   4.076  0.0446  0.5461 -0.2109
 6129TIP3    H139802   0.395   0.709   3.990  1.0542  0.4387 -0.7091
 6129TIP3    H239803   0.364   0.714   4.138 -0.5177  3.1165 -1.0953
 6130TIP3   OH239804   4.753   3.177  16.140 -0.1295 -0.3017  0.3945
 6130TIP3    H139805   4.750   3.126  16.221 -2.0365 -0.3465  0.3011
 6130TIP3    H239806   4.842   3.162  16.106 -0.3888 -2.9705  0.7519
 6131TIP3   OH239807   6.143   4.949  11.789  0.1990 -0.0717 -0.0322
 6131TIP3    H139808   6.072   4.916  11.844  0.9586 -0.2382  0.8617
 6131TIP3    H239809   6.201   4.994  11.850 -0.1598  1.8336 -1.0420
 6132TIP3   OH239810   3.331   3.690   3.039  0.0269  0.2000 -0.1221
 6132TIP3    H139811   3.406   3.678   2.980 -0.8189  2.0775 -1.6245
 6132TIP3    H239812   3.333   3.783   3.062 -1.6274  0.1897  0.1142
 6133TIP3   OH239813   1.676   5.323   5.054  0.1894 -0.5921 -0.1022
 6133TIP3    H139814   1.603   5.264   5.041  0.2366 -0.1550 -2.5495
 6133TIP3    H239815   1.646   5.384   5.122 -1.0489 -1.4480  0.1359
 6134TIP3   OH239816   2.321   6.333  12.337  0.2603 -0.0909  0.1653
 6134TIP3    H139817   2.338   6.380  12.256  0.9350 -1.9047 -0.7630
 6134TIP3    H239818   2.236   6.367  12.367  0.9064  1.9681 -0.2711
 6135TIP3   OH239819   2.099   4.888   3.300  0.3966  0.8835  0.1317
 6135TIP3    H139820   2.003   4.891   3.309  0.1925 -2.7272  0.2205
 6135TIP3    H239821   2.131   4.903   3.389 -0.1667  0.3936  0.4225
 6136TIP3   OH239822   5.317   4.610  15.452  0.1698  0.7371  0.0168
 6136TIP3    H139823   5.393   4.581  15.401  0.8431  0.3728  1.1911
 6136TIP3    H239824   5.315   4.550  15.527 -1.3591  0.6656 -0.0599
 6137TIP3   OH239825   0.115   4.399  16.410 -0.1418  0.1459 -0.2187
 6137TIP3    H139826   0.181   4.463  16.382 -0.7685  0.9985  0.2195
 6137TIP3    H239827   0.159   4.346  16.476  0.1880  0.5385 -0.1228
 6138TIP3   OH239828   4.098   2.012   4.418 -0.4785  0.0162 -0.0685
 6138TIP3    H139829   4.159   2.003   4.344 -1.3045 -2.3507 -0.5345
 6138TIP3    H239830   4.085   1.922   4.448 -3.7921  0.4479 -0.0421
 6139TIP3   OH239831   0.760   2.984   1.235 -0.4400 -0.1240 -0.6036
 6139TIP3    H139832   0.685   3.039   1.260  1.5948  1.0521  3.4935
 6139TIP3    H239833   0.743   2.901   1.279 -0.1490 -0.4333 -1.0825
 6140TIP3   OH239834   3.677   3.355  12.138  0.1446  0.0033 -0.2405
 6140TIP3    H139835   3.632   3.387  12.216  0.7851 -1.0460  0.5654
 6140TIP3    H239836   3.764   3.329  12.169 -0.3342 -2.4492 -0.8762
 6141TIP3   OH239837   3.419   5.424  14.703 -0.3368 -0.1723  0.1253
 6141TIP3    H139838   3.385   5.354  14.646  0.8339 -0.0390 -0.7570
 6141TIP3    H239839   3.509   5.437  14.674 -0.0553  0.6399  1.3225
 6142TIP3   OH239840   1.008   6.464  13.009 -0.7118  0.1230  0.1449
 6142TIP3    H139841   0.981   6.384  12.964 -0.2532 -0.4976  0.9493
 6142TIP3    H239842   0.927   6.508  13.032 -0.9439  0.9858 -2.2174
 6143TIP3   OH239843   2.403   6.349   4.185  0.4426 -0.4295  0.1877
 6143TIP3    H139844   2.484   6.398   4.171  0.1201  0.5958  1.7351
 6143TIP3    H239845   2.334   6.408   4.156  0.1172 -0.3824  1.0406
 6144TIP3   OH239846   3.222   4.356  11.214 -0.3893 -0.0595 -0.2927
 6144TIP3    H139847   3.242   4.290  11.280 -0.2192 -1.3181 -1.5973
 6144TIP3    H239848   3.160   4.414  11.258 -0.7927 -1.2602  0.7713
 6145TIP3   OH239849   4.555   3.450   2.466 -0.0567 -0.6357  0.2397
 6145TIP3    H139850   4.639   3.490   2.491  0.6302 -1.0504 -1.3790
 6145TIP3    H239851   4.560   3.361   2.501 -0.1997 -0.3893  0.9054
 6146TIP3   OH239852   2.810   5.708  17.197  0.0488 -0.3243 -0.2761
 6146TIP3    H139853   2.858   5.679  17.119 -1.4921 -2.1161 -0.5782
 6146TIP3    H239854   2.730   5.747  17.163 -0.1497 -0.1752  0.3650
 6147TIP3   OH239855   3.213   0.930  13.791  0.2721  0.9951  0.1535
 6147TIP3    H139856   3.161   0.883  13.726 -2.1437  0.0707  2.6613
 6147TIP3    H239857   3.179   1.019  13.791  1.8322  1.6365 -1.4021
 6148TIP3   OH239858   5.907   5.399   2.377 -0.2678  0.1739 -0.1323
 6148TIP3    H139859   5.825   5.375   2.419 -0.7990 -0.7888 -1.6659
 6148TIP3    H239860   5.975   5.374   2.441 -1.1015 -0.0966  0.6582
 6149TIP3   OH239861   3.901   4.279  15.903 -0.4247  0.1842 -0.1123
 6149TIP3    H139862   3.890   4.296  15.997  2.0593  4.1227 -0.4036
 6149TIP3    H239863   3.953   4.199  15.899  0.8507  0.8497  1.9732
 6150TIP3   OH239864   6.271   3.673   6.586 -0.4010 -0.2216  0.7241
 6150TIP3    H139865   6.280   3.759   6.546  1.9339 -0.3022  1.0506
 6150TIP3    H239866   6.283   3.689   6.679 -1.5317 -0.6889  0.9620
 6151TIP3   OH239867   3.190   6.354   0.570 -0.0599  0.0311  0.4077
 6151TIP3    H139868   3.216   6.264   0.587  1.1184  0.5429  1.3852
 6151TIP3    H239869   3.149   6.384   0.651  1.3959  1.0047  0.8111
 6152TIP3   OH239870   2.206   1.303   4.911  0.3527  0.4771 -0.2918
 6152TIP3    H139871   2.148   1.271   4.843  1.0623  0.9514 -1.1245
 6152TIP3    H239872   2.272   1.234   4.921 -0.8678 -0.5104  1.3357
 6153TIP3   OH239873   4.816   4.756   3.942  0.0909  0.1064 -0.0797
 6153TIP3    H139874   4.757   4.809   3.888 -0.6147 -1.9275 -1.3950
 6153TIP3    H239875   4.757   4.698   3.991  0.8573  0.3357  1.1387
 6154TIP3   OH239876   2.990   3.406  13.403 -0.3347  0.1766  0.3024
 6154TIP3    H139877   3.075   3.412  13.446 -0.8204 -0.8488  1.4260
 6154TIP3    H239878   2.954   3.321  13.430 -0.9770 -0.1730 -1.5297
 6155TIP3   OH239879   5.895   2.592   1.746  0.6919 -0.1174 -0.2756
 6155TIP3    H139880   5.947   2.667   1.719  1.6811 -0.8163 -0.3350
 6155TIP3    H239881   5.956   2.537   1.795 -0.4824 -0.0070  1.3376
 6156TIP3   OH239882   3.757   0.416  15.457 -0.5087  0.1026  0.3824
 6156TIP3    H139883   3.821   0.484  15.480 -1.3104  0.9286  0.2173
 6156TIP3    H239884   3.785   0.386  15.370 -1.7518  2.2262 -0.8021
 6157TIP3   OH239885   3.616   1.854  12.434 -0.0945 -0.3371 -0.1966
 6157TIP3    H139886   3.599   1.828  12.343  1.6938  0.8544 -0.9182
 6157TIP3    H239887   3.701   1.816  12.454 -0.5431 -0.6897  1.0283
 6158TIP3   OH239888   5.037   2.889  13.466  0.0019  0.5365 -0.3549
 6158TIP3    H139889   5.030   2.920  13.556 -0.7590  0.7011 -0.4634
 6158TIP3    H239890   4.974   2.817  13.460  0.6548 -0.0220 -0.5267
 6159TIP3   OH239891   4.149   5.010   2.242  0.3126 -0.2425 -0.1909
 6159TIP3    H139892   4.159   5.032   2.334  0.8179  1.5528 -0.6599
 6159TIP3    H239893   4.238   4.987   2.213 -0.2093 -3.0668  0.3056
 6160TIP3   OH239894   2.363   1.279   2.179  0.0962  0.2302  0.4547
 6160TIP3    H139895   2.371   1.350   2.116  1.2379  1.6486  2.1541
 6160TIP3    H239896   2.380   1.319   2.264 -0.7527 -1.7721  1.6176
 6161TIP3   OH239897   1.041   6.478   3.758 -0.4296 -0.0113 -0.2468
 6161TIP3    H139898   1.069   6.569   3.771 -0.4477  0.1302 -1.2006
 6161TIP3    H239899   0.955   6.475   3.800 -0.4015  0.3985 -0.1506
 6162TIP3   OH239900   3.254   6.611   3.429  0.3555  0.1302  0.5913
 6162TIP3    H139901   3.320   6.607   3.497 -1.1372 -0.0238  2.0802
 6162TIP3    H239902   3.178   6.651   3.472 -0.5345  0.2544 -1.0499
 6163TIP3   OH239903   0.548   2.931   3.402  0.1160  0.2092  0.0322
 6163TIP3    H139904   0.512   3.019   3.409 -0.9813 -0.2355  0.0186
 6163TIP3    H239905   0.581   2.912   3.490  2.7488  1.6363 -0.5907
 6164TIP3   OH239906   4.324   5.838  15.555  0.3547 -0.0070 -0.5271
 6164TIP3    H139907   4.354   5.901  15.489 -1.1853  1.9040  0.5301
 6164TIP3    H239908   4.236   5.814  15.526 -0.4644  1.1129  0.9852
 6165TIP3   OH239909   5.412   3.269  12.750  0.2658 -0.3134 -0.6526
 6165TIP3    H139910   5.362   3.348  12.733 -1.2219 -0.8063  1.1920
 6165TIP3    H239911   5.451   3.284  12.836  0.7497 -1.1885 -0.7142
 6166TIP3   OH239912   6.421   6.414  14.084 -0.6757 -0.4558 -0.2955
 6166TIP3    H139913   6.393   6.323  14.077  0.7333 -0.8104 -1.4706
 6166TIP3    H239914   6.495   6.411  14.145 -0.3267 -0.1709 -0.7035
 6167TIP3   OH239915   1.423   2.835   5.302  0.0791 -0.0492  0.1730
 6167TIP3    H139916   1.499   2.879   5.264  0.2371 -0.7710 -0.3707
 6167TIP3    H239917   1.440   2.741   5.287  0.5769 -0.4183  2.8764
 6168TIP3   OH239918   3.777   5.058  14.298 -0.0898  0.2970  0.3593
 6168TIP3    H139919   3.814   4.979  14.258  0.1503 -1.0860  3.2134
 6168TIP3    H239920   3.839   5.127  14.275  1.8751 -1.1257  1.2500
 6169TIP3   OH239921   3.427   0.719  11.632 -0.1530  0.3710 -0.0246
 6169TIP3    H139922   3.392   0.656  11.569  2.7983 -1.4322  0.0521
 6169TIP3    H239923   3.447   0.666  11.710  2.7812  1.2804 -0.0965
 6170TIP3   OH239924   3.857   6.320   4.117 -0.4140 -0.5079  0.0577
 6170TIP3    H139925   3.892   6.374   4.046  0.3136 -0.3048  0.5601
 6170TIP3    H239926   3.800   6.380   4.166  0.4998 -0.1438  0.6951
 6171TIP3   OH239927   6.478   4.931   3.430 -0.7116  0.3195 -0.0914
 6171TIP3    H139928   6.438   4.909   3.347 -1.3206  0.3051  0.2002
 6171TIP3    H239929   6.448   5.021   3.448 -2.3370 -0.4219  1.1238
 6172TIP3   OH239930   0.240   1.424   2.473 -0.1612 -0.8231 -0.4002
 6172TIP3    H139931   0.326   1.390   2.450 -0.2084 -0.5795 -0.9328
 6172TIP3    H239932   0.246   1.518   2.461 -0.3378 -0.7441  0.0968
 6173TIP3   OH239933   6.225   4.210  11.104  0.3218  0.4557 -0.3276
 6173TIP3    H139934   6.318   4.210  11.080  0.9586 -0.9426  2.0735
 6173TIP3    H239935   6.220   4.272  11.177 -0.1599 -1.3531  1.2063
 6174TIP3   OH239936   0.501   5.717   3.777  0.2874  0.2407 -0.0368
 6174TIP3    H139937   0.440   5.695   3.707 -0.2578  1.6293 -0.0143
 6174TIP3    H239938   0.542   5.634   3.800  0.3643 -0.2610 -1.8857
 6175TIP3   OH239939   1.552   0.916   1.926  0.0010  0.3530  0.1491
 6175TIP3    H139940   1.547   0.964   2.008  0.4870  0.8722 -0.1289
 6175TIP3    H239941   1.645   0.900   1.912 -0.0477  0.6149 -0.5016
 6176TIP3   OH239942   2.999   2.465  15.990 -0.4442  0.1155 -0.3639
 6176TIP3    H139943   2.944   2.512  16.052 -2.2960  0.4176 -2.1811
 6176TIP3    H239944   3.082   2.451  16.036 -0.1440  4.3222  0.5525
 6177TIP3   OH239945   1.905   5.291  11.722  0.2284  0.1285 -0.0349
 6177TIP3    H139946   1.888   5.345  11.645  0.6232  0.8671  0.3909
 6177TIP3    H239947   1.828   5.234  11.728 -0.1777  0.6170 -0.5055
 6178TIP3   OH239948   0.883   2.138  12.264  0.3822 -1.0160  0.0525
 6178TIP3    H139949   0.943   2.169  12.332  0.5255  0.7131 -0.8394
 6178TIP3    H239950   0.830   2.214  12.241 -1.7012 -2.3467  0.3243
 6179TIP3   OH239951   3.335   0.978   2.567  0.4040  0.0796  0.1229
 6179TIP3    H139952   3.316   1.070   2.552 -1.2762 -0.1506  0.8186
 6179TIP3    H239953   3.324   0.965   2.661 -1.3285 -1.2564 -0.2353
 6180TIP3   OH239954   1.718   5.865  15.692 -0.0150  0.5446 -0.2428
 6180TIP3    H139955   1.628   5.879  15.722 -0.4597 -1.3681 -0.6408
 6180TIP3    H239956   1.709   5.813  15.612  1.3732  1.9017 -1.3010
 6181TIP3   OH239957   4.105   4.879  16.371 -0.1331  0.5301  0.0412
 6181TIP3    H139958   4.031   4.846  16.319 -0.5621  1.3098  0.1512
 6181TIP3    H239959   4.151   4.800  16.400  0.3442  0.0767 -1.8442
 6182TIP3   OH239960   4.337   5.499  14.097  0.2309 -0.2535  0.4769
 6182TIP3    H139961   4.384   5.536  14.022 -1.4318  1.9376  0.4561
 6182TIP3    H239962   4.261   5.455  14.059 -0.2435  0.2751  0.7871
 6183TIP3   OH239963   0.742   2.661  13.986  0.1813  0.3125 -0.0877
 6183TIP3    H139964   0.826   2.617  13.977  0.3291  0.4764  0.4821
 6183TIP3    H239965   0.759   2.735  14.045 -0.8554 -1.0276  1.9664
 6184TIP3   OH239966   0.714   4.149  12.065  0.6829 -0.6601 -0.1808
 6184TIP3    H139967   0.809   4.141  12.070  0.6833 -1.7825 -1.6813
 6184TIP3    H239968   0.699   4.241  12.044  1.4056 -0.3263  0.7405
 6185TIP3   OH239969   3.939   3.252  15.029  0.6135 -0.5793 -0.5641
 6185TIP3    H139970   3.903   3.340  15.041  0.8840 -0.1194 -2.8694
 6185TIP3    H239971   3.878   3.195  15.076  0.0776  0.7638  0.4175
 6186TIP3   OH239972   6.258   0.201  12.544 -0.1749 -0.5947 -0.1135
 6186TIP3    H139973   6.198   0.159  12.482  1.9653 -0.2632 -2.4984
 6186TIP3    H239974   6.266   0.291  12.513  1.3351 -0.5619  0.3219
 6187TIP3   OH239975   3.927   5.487  12.159  0.0439 -0.0634 -0.3740
 6187TIP3    H139976   3.984   5.475  12.234  1.8267  0.5292 -1.6107
 6187TIP3    H239977   3.840   5.463  12.191  0.5483  1.3852  2.2306
 6188TIP3   OH239978   3.999   0.150  14.640  0.0384  0.4771  0.3058
 6188TIP3    H139979   4.046   0.218  14.689  0.6786 -0.4263  0.9670
 6188TIP3    H239980   3.909   0.157  14.670 -0.0206  1.4506 -0.0898
 6189TIP3   OH239981   5.373   4.259   2.867 -0.4903 -0.2038  0.6717
 6189TIP3    H139982   5.448   4.292   2.916  0.7307  0.7506 -1.7393
 6189TIP3    H239983   5.299   4.313   2.895  0.3437  0.8221  0.8801
 6190TIP3   OH239984   2.341   0.557  11.298  0.4314 -0.3857 -0.0430
 6190TIP3    H139985   2.321   0.523  11.385  1.2510 -0.9632 -0.0788
 6190TIP3    H239986   2.407   0.625  11.313  1.1875 -1.0537 -0.2829
 6191TIP3   OH239987   0.100   2.852   3.053 -0.0187  0.0080 -0.3302
 6191TIP3    H139988   0.063   2.908   2.985  0.9876  0.9141 -0.1458
 6191TIP3    H239989   0.115   2.911   3.127 -0.3343 -0.8055  0.3970
 6192TIP3   OH239990   4.105   3.553  11.907 -1.1749  0.4499 -0.6518
 6192TIP3    H139991   4.149   3.471  11.932 -0.9581  1.0239  0.8868
 6192TIP3    H239992   4.020   3.525  11.873 -0.9225 -0.4453 -0.5651
 6193TIP3   OH239993   6.338   0.717  11.521 -0.0124 -0.4618 -0.4311
 6193TIP3    H139994   6.381   0.742  11.439 -0.5872 -0.2804 -0.6839
 6193TIP3    H239995   6.276   0.649  11.495 -0.6688  0.0682 -0.2583
 6194TIP3   OH239996   0.815   4.245  14.420 -0.0714 -0.6829  0.3783
 6194TIP3    H139997   0.889   4.258  14.478 -1.4739 -0.7511  2.2322
 6194TIP3    H239998   0.846   4.183  14.354  1.3615 -1.0627  1.4016
 6195TIP3   OH239999   4.997   6.570  16.168 -0.2227 -0.2069  0.0650
 6195TIP3    H140000   4.924   6.521  16.205 -0.4374 -1.8609 -2.4211
 6195TIP3    H240001   5.073   6.543  16.219 -1.0255  0.0186  1.3802
 6196TIP3   OH240002   4.083   2.621  16.579  0.3788  0.3632 -0.1017
 6196TIP3    H140003   4.122   2.594  16.496 -2.0480 -1.6346 -0.6374
 6196TIP3    H240004   4.050   2.540  16.618  3.1671  0.9395  3.7765
 6197TIP3   OH240005   3.855   6.346   3.300 -0.2415  0.3105 -0.0418
 6197TIP3    H140006   3.922   6.352   3.367  1.3163 -1.4310 -1.3768
 6197TIP3    H240007   3.832   6.436   3.279  2.0887  0.9413  0.0631
 6198TIP3   OH240008   3.494   5.845   4.998  0.5127 -0.7039 -0.2286
 6198TIP3    H140009   3.517   5.900   5.073 -0.8976 -0.7112  0.2223
 6198TIP3    H240010   3.473   5.907   4.928  0.6745 -0.6851 -0.2599
 6199TIP3   OH240011   3.367   5.915  12.247  0.0866 -0.1018  0.0490
 6199TIP3    H140012   3.329   5.957  12.324  0.6295 -0.7261  0.6643
 6199TIP3    H240013   3.315   5.836  12.234 -0.6750  0.5346 -0.8672
 6200TIP3   OH240014   5.181   1.440   6.082  0.0593 -0.1808 -0.0252
 6200TIP3    H140015   5.194   1.397   6.167 -0.6353 -0.8020 -0.2249
 6200TIP3    H240016   5.107   1.498   6.097  0.9818  0.9379  0.2361
 6201TIP3   OH240017   3.767   0.700  11.782 -0.0500 -0.0488 -0.1038
 6201TIP3    H140018   3.752   0.657  11.698  1.0747 -2.7605  1.0301
 6201TIP3    H240019   3.753   0.632  11.848  0.1207  1.7483  1.8762
 6202TIP3   OH240020   2.359   1.920  11.762  0.1701  0.2422 -0.1488
 6202TIP3    H140021   2.305   1.963  11.695 -0.9342 -0.1981  0.4463
 6202TIP3    H240022   2.398   1.993  11.811  1.3136  0.5756 -1.5083
 6203TIP3   OH240023   5.580   4.454  12.480  0.6363 -0.7199 -0.1058
 6203TIP3    H140024   5.583   4.408  12.396  0.5348  1.1984 -1.1659
 6203TIP3    H240025   5.595   4.385  12.545  1.6979 -2.0519 -1.7307
 6204TIP3   OH240026   4.353   2.891  13.492 -0.2834  0.3213  0.1257
 6204TIP3    H140027   4.410   2.966  13.505 -0.1895  0.1606  0.6521
 6204TIP3    H240028   4.291   2.919  13.425  1.2030  0.0602 -1.4065
 6205TIP3   OH240029   0.929   5.088  13.280 -0.3404 -0.2045 -0.4419
 6205TIP3    H140030   0.942   5.048  13.366 -0.1364 -0.4871 -0.6008
 6205TIP3    H240031   0.969   5.026  13.219  0.4295  0.4857 -0.6485
 6206TIP3   OH240032   4.927   0.545   3.167  0.3446 -0.0849  0.7165
 6206TIP3    H140033   4.836   0.575   3.172  0.6512  1.1366 -0.7156
 6206TIP3    H240034   4.927   0.478   3.100  0.6515  0.5155  0.1125
 6207TIP3   OH240035   3.255   1.989   4.124  0.5940  0.3152  0.2867
 6207TIP3    H140036   3.182   2.033   4.080  0.5445  1.0910  1.1258
 6207TIP3    H240037   3.289   1.928   4.059 -0.0423  0.8127 -0.5230
 6208TIP3   OH240038   3.389   1.976   0.964  0.1000 -0.2611  0.3357
 6208TIP3    H140039   3.394   2.069   0.940 -1.4681 -0.1567  0.3475
 6208TIP3    H240040   3.433   1.930   0.893  1.5024  0.5432  0.6689
 6209TIP3   OH240041   1.171   4.104   2.966 -0.0525 -0.5314  0.3833
 6209TIP3    H140042   1.136   4.024   2.927 -0.4864 -0.1935  0.0701
 6209TIP3    H240043   1.193   4.160   2.892  0.1942 -0.3392  0.6018
 6210TIP3   OH240044   2.510   4.647   3.500 -0.0499 -0.5620 -0.4457
 6210TIP3    H140045   2.461   4.589   3.441 -1.5386 -1.1417  1.3084
 6210TIP3    H240046   2.534   4.590   3.574 -0.8195  0.8536  0.9178
 6211TIP3   OH240047   5.123   2.454   0.040 -0.2742 -0.3788 -0.2442
 6211TIP3    H140048   5.110   2.522  -0.026 -0.3930 -0.1305  0.0333
 6211TIP3    H240049   5.114   2.500   0.123 -1.8973 -1.0218 -0.0504
 6212TIP3   OH240050   1.653   0.695  12.685 -0.7789 -1.0277  0.3835
 6212TIP3    H140051   1.697   0.778  12.704 -0.8065 -0.7161 -0.9112
 6212TIP3    H240052   1.715   0.628  12.712  0.0396 -0.5859 -0.4043
 6213TIP3   OH240053   2.815   5.327   5.281 -0.3202 -0.0042  0.0405
 6213TIP3    H140054   2.840   5.281   5.361 -0.0532  1.7081  0.9686
 6213TIP3    H240055   2.855   5.413   5.289  1.8511 -0.6178 -3.1292
 6214TIP3   OH240056   2.226   4.542  16.112  0.1305  0.3462 -0.2254
 6214TIP3    H140057   2.318   4.569  16.101  0.0465  0.2101 -1.3191
 6214TIP3    H240058   2.180   4.587  16.042 -0.7019  0.6515  0.5088
 6215TIP3   OH240059   0.004   1.887   6.420  0.0617 -0.2888  0.2471
 6215TIP3    H140060  -0.048   1.925   6.350 -0.5596 -0.5332  0.5687
 6215TIP3    H240061  -0.056   1.828   6.465  1.4767 -3.0877 -1.3797
 6216TIP3   OH240062   4.421   6.146  16.725 -0.2174  0.1164 -0.4327
 6216TIP3    H140063   4.505   6.137  16.771 -0.9128 -0.9547  0.6566
 6216TIP3    H240064   4.446   6.158  16.633  1.1373 -0.4958 -0.1622
 6217TIP3   OH240065   4.182   4.678  15.156 -0.0361  0.3095  0.1121
 6217TIP3    H140066   4.087   4.690  15.159 -0.0043  0.8630 -1.0811
 6217TIP3    H240067   4.194   4.583  15.153 -0.6542  0.2761 -2.7039
 6218TIP3   OH240068   2.783   2.684  13.900  0.0867  0.0906  0.2627
 6218TIP3    H140069   2.691   2.669  13.923  0.1014  0.2973  0.4592
 6218TIP3    H240070   2.810   2.604  13.855 -0.5367  0.5113 -0.8832
 6219TIP3   OH240071   5.596   1.831  12.317  0.2743  1.0064 -0.0447
 6219TIP3    H140072   5.519   1.858  12.265  0.4625  0.6603 -0.5057
 6219TIP3    H240073   5.664   1.894  12.292  0.2201  1.1520  0.1693
 6220TIP3   OH240074   5.845   4.297  16.773 -0.0601 -0.1912  0.0478
 6220TIP3    H140075   5.833   4.244  16.851  0.1021  1.6587  1.3648
 6220TIP3    H240076   5.807   4.382  16.795 -3.2537 -0.6483 -3.1178
 6221TIP3   OH240077   5.271   4.361   1.460  0.5098  0.2116  0.0741
 6221TIP3    H140078   5.301   4.325   1.543  0.0915 -0.7483 -0.1900
 6221TIP3    H240079   5.204   4.300   1.430 -2.3989  2.7537  1.0809
 6222TIP3   OH240080   4.148   0.814  13.673 -0.3495 -0.5161  0.0801
 6222TIP3    H140081   4.109   0.748  13.615 -1.8680 -0.2867  0.8172
 6222TIP3    H240082   4.235   0.780  13.692 -0.6685 -1.7097 -0.5276
 6223TIP3   OH240083   3.296   3.918   2.539 -0.3872  0.2654  0.0383
 6223TIP3    H140084   3.354   3.909   2.614  1.5531  1.6549 -1.2251
 6223TIP3    H240085   3.239   3.992   2.561  0.7206  1.2009 -0.1631
 6224TIP3   OH240086   5.980   2.478  13.020 -0.0132  0.4765  0.4820
 6224TIP3    H140087   6.014   2.390  13.037  0.6203  0.2745 -1.5995
 6224TIP3    H240088   5.888   2.464  12.997  0.1220  0.3151  0.0151
 6225TIP3   OH240089   1.179   5.936   4.880  0.4764 -0.3345 -0.4455
 6225TIP3    H140090   1.157   6.015   4.929  1.2332 -0.7327  0.5796
 6225TIP3    H240091   1.273   5.924   4.896  0.7125 -0.5135 -1.9597
 6226TIP3   OH240092   5.663   0.016  13.551  0.3020 -0.6339 -0.3205
 6226TIP3    H140093   5.586   0.012  13.494 -0.6740 -2.3214  1.0570
 6226TIP3    H240094   5.715   0.088  13.517 -3.0500  2.0879  0.1306
 6227TIP3   OH240095   5.920   5.363  11.338 -0.3479 -0.0852 -0.2487
 6227TIP3    H140096   5.897   5.452  11.312 -0.1111 -0.2305 -0.9637
 6227TIP3    H240097   5.958   5.372  11.425  1.8843  0.7983 -1.2831
 6228TIP3   OH240098   4.403   0.783  12.349  0.3535 -0.2591  0.8829
 6228TIP3    H140099   4.497   0.798  12.359  0.3331 -0.2497  1.0638
 6228TIP3    H240100   4.364   0.870  12.358  0.5283  0.1163 -1.7108
 6229TIP3   OH240101   4.068   0.075  14.967  0.3069 -0.5247  0.4551
 6229TIP3    H140102   4.126   0.000  14.955  0.9755 -0.0428  0.6772
 6229TIP3    H240103   4.094   0.137  14.898  0.0011 -0.3391  0.5046
 6230TIP3   OH240104   5.265   0.342  10.833 -0.5033 -0.1909 -0.3012
 6230TIP3    H140105   5.207   0.321  10.760  0.2263 -0.1842 -0.8883
 6230TIP3    H240106   5.353   0.326  10.800 -0.0589  1.3826  0.0422
 6231TIP3   OH240107   2.771   2.211   2.922  0.1941 -0.4093 -0.0625
 6231TIP3    H140108   2.848   2.262   2.900  0.0502  0.2380  0.9069
 6231TIP3    H240109   2.743   2.173   2.839  0.8569  0.3074 -0.6221
 6232TIP3   OH240110   6.119   4.467   3.716  0.1466  0.5555  0.3377
 6232TIP3    H140111   6.191   4.519   3.680  0.1313  0.4579  0.1670
 6232TIP3    H240112   6.045   4.485   3.658  0.7318 -1.3963 -1.0545
 6233TIP3   OH240113   4.638   1.744  11.107 -0.2497 -0.0589 -0.1681
 6233TIP3    H140114   4.641   1.694  11.025  2.4951  0.6814 -0.5939
 6233TIP3    H240115   4.648   1.835  11.080  1.7126  0.1121  1.0052
 6234TIP3   OH240116   3.986   0.937   2.747  0.1766  0.3656  0.1099
 6234TIP3    H140117   3.988   0.936   2.652 -1.1815 -0.8525  0.0686
 6234TIP3    H240118   4.051   0.871   2.773 -1.0726 -0.9457 -0.0369
 6235TIP3   OH240119   1.941   3.407  16.796  0.4622  0.4833  0.0093
 6235TIP3    H140120   1.908   3.451  16.874  0.2970 -0.2357  0.3512
 6235TIP3    H240121   1.897   3.322  16.796 -0.3782  0.8793 -1.4463
 6236TIP3   OH240122   1.293   3.152  12.829  0.5429  0.3535 -0.2507
 6236TIP3    H140123   1.379   3.176  12.794  0.2423  0.6096 -0.8278
 6236TIP3    H240124   1.234   3.217  12.791  0.0292 -0.0896 -0.2054
 6237TIP3   OH240125   1.612   0.615  12.296 -0.2653 -0.4289  0.2073
 6237TIP3    H140126   1.666   0.633  12.219  0.7854  2.0248  1.4764
 6237TIP3    H240127   1.667   0.559  12.352 -0.0931 -0.1930  0.2719
 6238TIP3   OH240128   5.297   2.961   3.893 -0.3670  0.1372 -0.0902
 6238TIP3    H140129   5.306   2.872   3.928  1.5042  0.2652 -0.1743
 6238TIP3    H240130   5.298   3.017   3.970 -0.3323  0.1610 -0.1080
 6239TIP3   OH240131   0.213   2.347  15.638  0.0534 -0.2655 -0.3506
 6239TIP3    H140132   0.230   2.254  15.626  0.1535 -0.2513 -0.3207
 6239TIP3    H240133   0.277   2.391  15.582 -0.1832 -0.2210 -0.5872
 6240TIP3   OH240134   3.814   5.184  17.208  0.1691  0.3492 -0.0618
 6240TIP3    H140135   3.814   5.222  17.296  0.3008  0.7087 -0.2152
 6240TIP3    H240136   3.905   5.159  17.192 -0.0392 -0.6592  0.3028
 6241TIP3   OH240137   1.005   4.908   3.962 -0.4735  0.0340 -0.2008
 6241TIP3    H140138   0.985   4.921   3.869 -1.3807 -4.5018 -0.7805
 6241TIP3    H240139   1.091   4.866   3.962 -0.3487  0.2906  1.0093
 6242TIP3   OH240140   6.787   6.569   4.435 -0.2968  0.0271 -0.0907
 6242TIP3    H140141   6.732   6.644   4.454 -2.8414 -1.4368 -1.2990
 6242TIP3    H240142   6.804   6.575   4.341 -1.5397 -1.4681 -0.4561
 6243TIP3   OH240143   2.600   6.292  15.133 -0.5734 -0.2915  0.2777
 6243TIP3    H140144   2.692   6.317  15.137 -0.8516  0.5791  1.4962
 6243TIP3    H240145   2.553   6.374  15.143 -1.4888 -0.7586 -0.1743
 6244TIP3   OH240146   6.746   2.743   0.321 -0.2014  0.1996 -0.9102
 6244TIP3    H140147   6.793   2.678   0.374  0.0950  1.3147  0.2096
 6244TIP3    H240148   6.718   2.694   0.243 -1.8218 -1.8274  0.8618
 6245TIP3   OH240149   2.034   3.946  12.703  0.3605 -0.0134 -0.0532
 6245TIP3    H140150   2.074   3.918  12.786 -0.5241 -0.4605  0.2312
 6245TIP3    H240151   1.984   4.024  12.726  1.7233  1.0244 -0.5729
 6246TIP3   OH240152   1.149   5.300   0.332 -0.5971  0.3670  0.4479
 6246TIP3    H140153   1.064   5.313   0.290  1.9875 -0.9208 -5.9075
 6246TIP3    H240154   1.198   5.379   0.310  0.5310  0.1527  2.1448
 6247TIP3   OH240155   0.963   4.943   2.402 -0.0143 -0.1964  0.1241
 6247TIP3    H140156   0.970   5.034   2.430 -1.7200 -0.1772  0.4863
 6247TIP3    H240157   0.909   4.946   2.323  0.5543 -0.8288 -0.3032
 6248TIP3   OH240158   3.030   5.597  12.262 -0.1816 -0.0555  0.1836
 6248TIP3    H140159   3.057   5.596  12.354 -0.0594 -1.2954  0.1402
 6248TIP3    H240160   2.988   5.512  12.249 -2.5879  1.1597 -0.2089
 6249TIP3   OH240161   0.487   1.569   1.095  0.3548  0.4630  0.1923
 6249TIP3    H140162   0.485   1.626   1.019  0.8320 -0.4920 -0.5442
 6249TIP3    H240163   0.395   1.558   1.119  0.2208  1.0033 -0.0618
 6250TIP3   OH240164   1.465   5.186  14.589  0.2323  0.0420 -0.1156
 6250TIP3    H140165   1.530   5.234  14.641 -0.4026 -2.0556  2.7517
 6250TIP3    H240166   1.394   5.248  14.576  0.8402  0.9214  0.6955
 6251TIP3   OH240167   3.978   0.520   4.162 -0.0185 -0.1144 -0.0473
 6251TIP3    H140168   3.988   0.508   4.068  1.9647  0.5688  0.0659
 6251TIP3    H240169   3.884   0.505   4.178 -0.8504  2.1863 -2.4654
 6252TIP3   OH240170   4.972   5.770   3.367  0.1997  0.6213  0.4763
 6252TIP3    H140171   4.913   5.839   3.339 -0.3160 -0.0985 -0.2508
 6252TIP3    H240172   5.026   5.753   3.290  0.0904 -0.0228  0.5402
 6253TIP3   OH240173   4.038   5.087  16.913 -0.0261  1.1214 -0.0102
 6253TIP3    H140174   3.959   5.126  16.874 -1.6398 -0.0074  2.0530
 6253TIP3    H240175   4.044   5.126  17.000  0.2493 -0.6630  0.7998
 6254TIP3   OH240176   6.070   6.576   1.469 -0.3694 -0.3278 -0.5813
 6254TIP3    H140177   6.039   6.486   1.456 -4.2767  0.7840  0.4640
 6254TIP3    H240178   6.070   6.588   1.564 -2.1532  1.4525 -0.7607
 6255TIP3   OH240179   0.873   5.898   4.195 -0.0108  0.6001 -0.3128
 6255TIP3    H140180   0.853   5.933   4.109 -1.4689  1.8246  0.5036
 6255TIP3    H240181   0.789   5.868   4.230  0.5172  0.3251  0.7711
 6256TIP3   OH240182   5.381   5.151  14.053 -0.5305 -0.0750  0.2965
 6256TIP3    H140183   5.358   5.224  13.996 -2.5051  0.8651  2.2360
 6256TIP3    H240184   5.451   5.106  14.007 -0.6804  1.8518 -1.8945
 6257TIP3   OH240185   4.178   0.250  13.504 -0.1048 -0.0408  0.3298
 6257TIP3    H140186   4.134   0.174  13.466 -0.4561  0.1550  0.3422
 6257TIP3    H240187   4.271   0.226  13.504 -0.2242 -0.5301  0.4702
 6258TIP3   OH240188   5.534   6.302   3.866 -0.3122  0.0167  0.0917
 6258TIP3    H140189   5.525   6.258   3.951 -0.3355 -0.3275 -0.0842
 6258TIP3    H240190   5.621   6.340   3.867  0.3124 -1.3524 -0.3519
 6259TIP3   OH240191   3.142   0.130   0.257  0.3077 -0.7284  0.3695
 6259TIP3    H140192   3.103   0.047   0.230  0.0885 -0.6073  0.3140
 6259TIP3    H240193   3.234   0.109   0.273 -0.3503 -1.6825  3.3633
 6260TIP3   OH240194   6.416   6.200  11.967  0.0233 -0.6795  0.0890
 6260TIP3    H140195   6.501   6.161  11.945  0.3013  0.6320 -1.1892
 6260TIP3    H240196   6.438   6.286  12.003 -0.7991 -0.0300 -0.9451
 6261TIP3   OH240197   1.928   3.516  11.565 -0.0224  0.0186 -0.5033
 6261TIP3    H140198   1.936   3.552  11.477  1.1328 -1.1159 -0.8660
 6261TIP3    H240199   1.846   3.467  11.563  0.2189 -0.3627 -1.0695
 6262TIP3   OH240200   3.651   3.821  15.665 -0.2093 -0.0762  0.8438
 6262TIP3    H140201   3.603   3.891  15.620 -1.6801  0.3084  2.9211
 6262TIP3    H240202   3.702   3.867  15.732  2.2286 -0.6056 -0.5934
 6263TIP3   OH240203   1.825   2.947   5.160  0.1041 -0.2291  0.6030
 6263TIP3    H140204   1.762   2.992   5.216 -0.0178  2.0267 -1.2486
 6263TIP3    H240205   1.772   2.916   5.085  0.8383 -0.1454  0.0438
 6264TIP3   OH240206   6.619   1.304   1.058  0.3922 -0.0339 -0.3502
 6264TIP3    H140207   6.606   1.258   0.976 -0.3490 -0.4799  0.0068
 6264TIP3    H240208   6.560   1.380   1.053  1.6655  0.9336 -0.9688
 6265TIP3   OH240209   5.368   3.786   4.590 -0.1725  0.2106 -0.2661
 6265TIP3    H140210   5.346   3.783   4.683 -1.1288  0.7730 -0.4650
 6265TIP3    H240211   5.356   3.697   4.559  0.6551 -0.0878  0.2581
 6266TIP3   OH240212   2.522   3.064  15.211  0.1466  0.2099  0.1465
 6266TIP3    H140213   2.529   2.996  15.144  1.6465  0.2716  0.2237
 6266TIP3    H240214   2.460   3.029  15.275 -0.3985 -0.3474 -0.6794
 6267TIP3   OH240215   4.271   2.055  11.791  0.5993  0.0164  0.4635
 6267TIP3    H140216   4.331   1.982  11.775  0.6801 -0.0913  1.2485
 6267TIP3    H240217   4.329   2.128  11.814  0.4687  0.0922  0.5480
 6268TIP3   OH240218   4.360   2.916  12.612  0.0995  0.3649 -0.0464
 6268TIP3    H140219   4.281   2.934  12.560  0.9760  0.5739 -1.3202
 6268TIP3    H240220   4.418   2.990  12.593  0.9551 -0.2499  0.1851
 6269TIP3   OH240221   1.586   3.354   1.545  0.0115 -0.5864  0.0680
 6269TIP3    H140222   1.599   3.273   1.596  0.0078 -0.1740  0.7289
 6269TIP3    H240223   1.523   3.329   1.477  1.1534 -1.5277 -0.6691
 6270TIP3   OH240224   5.855   2.312  11.671  0.1197 -0.1565 -0.1175
 6270TIP3    H140225   5.850   2.277  11.760  0.1069  1.2650  0.4513
 6270TIP3    H240226   5.768   2.297  11.634  0.0901 -0.6439  0.1524
 6271TIP3   OH240227   5.415   3.413   2.668  0.0274  0.2563  0.0271
 6271TIP3    H140228   5.408   3.319   2.649  0.3184 -0.1422  1.8555
 6271TIP3    H240229   5.325   3.441   2.683 -0.2553  0.6606 -2.2098
 6272TIP3   OH240230   6.414   5.333   2.389 -0.2619 -0.3286  0.6418
 6272TIP3    H140231   6.412   5.344   2.484 -0.3707 -0.8984  0.7087
 6272TIP3    H240232   6.473   5.402   2.358 -1.2756  0.7091  0.9920
 6273TIP3   OH240233   0.027   0.409  14.650  0.0622  0.1700  0.5260
 6273TIP3    H140234   0.031   0.455  14.734  2.2046  0.0275  0.5250
 6273TIP3    H240235  -0.065   0.414  14.625 -0.2201  2.1415  1.8135
 6274TIP3   OH240236   4.403   0.177   3.789 -0.4365  0.6639 -0.5746
 6274TIP3    H140237   4.438   0.088   3.787  0.8491  1.1787 -2.0394
 6274TIP3    H240238   4.323   0.170   3.841  0.1312 -1.1705  0.0877
 6275TIP3   OH240239   0.524   5.870   0.292  0.2325 -0.0452  0.1908
 6275TIP3    H140240   0.543   5.913   0.376 -0.9760 -1.3231  1.1384
 6275TIP3    H240241   0.470   5.933   0.245  1.2720  0.8568  0.1806
 6276TIP3   OH240242   5.829   2.691   0.182 -0.3094 -0.4747  0.6016
 6276TIP3    H140243   5.898   2.629   0.203  0.4786  0.4933  0.9304
 6276TIP3    H240244   5.875   2.773   0.163 -1.3504  0.1357  0.6589
 6277TIP3   OH240245   3.882   2.641   3.461  0.2929 -0.1772 -0.2963
 6277TIP3    H140246   3.905   2.549   3.471 -0.3565 -0.3082  0.0135
 6277TIP3    H240247   3.894   2.659   3.368 -1.3931 -1.0690 -0.7057
 6278TIP3   OH240248   4.596   2.793   4.120 -0.5101 -0.1056  0.1366
 6278TIP3    H140249   4.506   2.771   4.146 -0.2123 -0.6598  0.7180
 6278TIP3    H240250   4.585   2.860   4.052 -1.3578 -0.0058  0.3531
 6279TIP3   OH240251   5.701   6.083   3.134  0.2809 -0.2529  0.3773
 6279TIP3    H140252   5.608   6.063   3.141  0.3282 -0.7134 -0.2212
 6279TIP3    H240253   5.734   6.080   3.224  0.2465 -2.7078  0.3325
 6280TIP3   OH240254   6.519   3.324  16.727  0.1665 -0.3745  0.0820
 6280TIP3    H140255   6.520   3.269  16.648  1.0266 -2.3053  1.3829
 6280TIP3    H240256   6.537   3.262  16.798 -0.3847  1.3714  1.7677
 6281TIP3   OH240257   1.044   2.504   2.161 -0.5461  0.0302  0.1911
 6281TIP3    H140258   1.082   2.592   2.161 -0.9748  0.2312 -1.3865
 6281TIP3    H240259   0.972   2.509   2.224 -0.8127  0.9126 -0.1722
 6282TIP3   OH240260   3.268   4.979   2.340  0.0180 -0.1436 -0.2142
 6282TIP3    H140261   3.226   5.063   2.322 -0.1687 -0.7369 -2.7052
 6282TIP3    H240262   3.196   4.920   2.360 -0.2308 -0.6449 -2.4104
 6283TIP3   OH240263   6.448   5.649   0.546 -0.5895 -0.1870 -0.0295
 6283TIP3    H140264   6.456   5.639   0.452 -1.3341 -0.5154 -0.0607
 6283TIP3    H240265   6.391   5.725   0.557 -0.3994 -0.0703  0.1579
 6284TIP3   OH240266   1.175   2.966   0.761  0.1407 -1.0673 -0.4722
 6284TIP3    H140267   1.171   2.963   0.856  0.3470 -2.3297 -0.4967
 6284TIP3    H240268   1.125   3.045   0.737  0.4497 -0.5145  0.6877
 6285TIP3   OH240269   5.287   6.161   1.766 -0.0241 -0.2540 -0.3538
 6285TIP3    H140270   5.266   6.155   1.673 -2.0557 -1.9009  0.1729
 6285TIP3    H240271   5.357   6.097   1.779  0.1398 -0.1502 -0.7152
 6286TIP3   OH240272   2.187   4.210  14.945  0.0194  0.3117  0.2082
 6286TIP3    H140273   2.189   4.237  15.037 -0.7466  0.0220  0.3097
 6286TIP3    H240274   2.277   4.185  14.925  0.6871  2.6464  0.2057
 6287TIP3   OH240275   5.699   2.408  16.378  0.2213  0.3083  0.0829
 6287TIP3    H140276   5.711   2.322  16.419  0.1479 -0.1814 -0.9106
 6287TIP3    H240277   5.605   2.417  16.366  0.1183  1.0636  1.2859
 6288TIP3   OH240278   6.060   2.933  16.025  0.0714  0.4286 -0.3468
 6288TIP3    H140279   5.990   2.872  16.050  0.1311 -0.2854 -1.8541
 6288TIP3    H240280   6.031   2.971  15.942  2.1022 -0.9868 -1.7650
 6289TIP3   OH240281   3.460   4.949  16.735 -0.1789 -0.4012  0.3271
 6289TIP3    H140282   3.553   4.932  16.718 -0.3081 -0.4274 -0.3794
 6289TIP3    H240283   3.450   5.043  16.721 -0.4605 -0.5660 -0.5687
 6290TIP3   OH240284   4.553   5.348  12.447  0.7307  0.0295  0.4926
 6290TIP3    H140285   4.592   5.435  12.444 -0.6241  0.6528  0.8195
 6290TIP3    H240286   4.548   5.321  12.355 -1.4199  1.4830  0.1378
 6291TIP3   OH240287   5.378   0.978  11.428  0.9261 -0.1561 -0.3481
 6291TIP3    H140288   5.355   0.886  11.413  0.9015 -0.2485  0.2237
 6291TIP3    H240289   5.474   0.980  11.422  0.9379 -0.2517 -0.2062
 6292TIP3   OH240290   3.098   2.909   3.502  0.0119  0.0799 -0.1493
 6292TIP3    H140291   3.105   2.960   3.583  1.1211 -0.3361  0.0268
 6292TIP3    H240292   3.083   2.974   3.434  1.2586  0.6205  0.0917
 6293TIP3   OH240293   6.047   1.589  11.023 -0.1732 -0.1916  0.3866
 6293TIP3    H140294   6.116   1.564  11.084 -0.5192  2.0325  1.7349
 6293TIP3    H240295   5.983   1.519  11.030  0.9099 -1.1732  0.7501
 6294TIP3   OH240296   5.323   4.270   1.721 -0.3668 -0.0805 -0.0824
 6294TIP3    H140297   5.402   4.262   1.775 -1.1024 -1.8661  0.7550
 6294TIP3    H240298   5.291   4.181   1.711 -2.9151  0.7097  0.5487
 6295TIP3   OH240299   6.389   2.985  17.135  0.4728  0.2122 -0.4012
 6295TIP3    H140300   6.381   3.052  17.203  0.9795  0.0495 -0.1817
 6295TIP3    H240301   6.438   2.914  17.175 -1.2401 -0.8872 -0.2053
 6296TIP3   OH240302   0.783   5.724  15.194  0.5613 -0.6641 -0.1182
 6296TIP3    H140303   0.845   5.668  15.148 -0.1880 -2.1724  0.6666
 6296TIP3    H240304   0.760   5.792  15.130  0.7092 -1.8256 -1.4396
 6297TIP3   OH240305   5.223   3.895  14.884 -0.5570  0.1706  0.1993
 6297TIP3    H140306   5.216   3.845  14.803  1.1936  0.0105  0.1146
 6297TIP3    H240307   5.229   3.986  14.857 -0.3251  0.1433  0.1536
 6298TIP3   OH240308   0.742   4.249  12.698  0.0867  0.1974  0.3638
 6298TIP3    H140309   0.776   4.323  12.749 -0.0639  1.4963 -1.3475
 6298TIP3    H240310   0.675   4.210  12.754 -0.2782  1.7647  1.0573
 6299TIP3   OH240311   1.980   0.078  13.811  0.2531  0.0779 -0.2040
 6299TIP3    H140312   1.964   0.045  13.723 -0.4367 -0.7915  0.2423
 6299TIP3    H240313   1.960   0.004  13.869  0.3757  0.7402  0.7046
 6300TIP3   OH240314   0.795   3.032   0.543 -0.0853  0.2638 -0.0802
 6300TIP3    H140315   0.811   2.983   0.623  0.9745  1.2652  0.3336
 6300TIP3    H240316   0.765   3.118   0.573 -0.1568  0.4812 -0.7635
 6301TIP3   OH240317   2.228   1.402  14.995 -0.5623 -0.1647  0.3706
 6301TIP3    H140318   2.217   1.445  14.910 -0.8593 -1.0601 -0.0576
 6301TIP3    H240319   2.141   1.408  15.036 -0.2261  0.9342  0.9404
 6302TIP3   OH240320   5.372   3.488  16.676  0.1873 -0.1959  0.5151
 6302TIP3    H140321   5.277   3.502  16.679  0.3457  0.8772  0.6286
 6302TIP3    H240322   5.381   3.396  16.653 -0.8829 -0.0123 -0.7101
 6303TIP3   OH240323   5.831   0.762   0.817  0.2919 -0.0986  0.1718
 6303TIP3    H140324   5.740   0.742   0.841  0.0087 -0.8603 -1.4858
 6303TIP3    H240325   5.828   0.851   0.782 -0.1764 -0.8294 -1.7057
 6304TIP3   OH240326   2.090   2.578  12.681  0.3767 -0.4658  0.0655
 6304TIP3    H140327   2.023   2.613  12.622  1.4320  0.7121 -0.4595
 6304TIP3    H240328   2.147   2.526  12.624  0.2070 -1.0360  0.4169
 6305TIP3   OH240329   5.386   1.982  12.699  0.0920 -0.1232  0.3824
 6305TIP3    H140330   5.423   1.893  12.698 -0.3044 -0.2838 -0.6891
 6305TIP3    H240331   5.411   2.017  12.784 -1.9289 -2.1874  1.8692
 6306TIP3   OH240332   4.468   3.776   4.885 -0.0176  0.2214  0.1617
 6306TIP3    H140333   4.492   3.863   4.917 -1.4682  0.4481  0.6414
 6306TIP3    H240334   4.437   3.791   4.796 -1.5686  0.3851  0.7248
 6307TIP3   OH240335   4.364   5.581  16.701 -0.1606  0.5463  0.1612
 6307TIP3    H140336   4.427   5.525  16.656 -1.2600  0.2978 -1.1425
 6307TIP3    H240337   4.411   5.662  16.717  0.4654  0.4115 -0.9187
 6308TIP3   OH240338   5.115   3.538  16.629  0.1184 -0.6219  0.4651
 6308TIP3    H140339   5.055   3.470  16.658 -2.1112  0.3376 -1.7301
 6308TIP3    H240340   5.072   3.621  16.652  1.7954  0.1060  1.1486
 6309TIP3   OH240341   5.531   0.497  15.566  0.1832 -0.0857 -1.0375
 6309TIP3    H140342   5.541   0.564  15.497  1.2274  1.1948  0.3257
 6309TIP3    H240343   5.448   0.454  15.546 -0.5166  1.6405 -1.9429
 6310TIP3   OH240344   0.064   4.327  13.328  0.2511  0.2668  0.2710
 6310TIP3    H140345   0.049   4.336  13.234 -0.0589  1.0049  0.3869
 6310TIP3    H240346   0.004   4.390  13.368 -2.3913 -2.7295  1.1733
 6311TIP3   OH240347   6.647   2.477   0.165 -0.1693 -0.3630 -0.3220
 6311TIP3    H140348   6.567   2.434   0.134  1.2364 -3.2964 -0.0322
 6311TIP3    H240349   6.716   2.412   0.150  1.7755  1.2079  1.6343
 6312TIP3   OH240350   6.592   6.383  15.260 -0.4105 -0.3824  0.0722
 6312TIP3    H140351   6.661   6.398  15.325  0.1312 -0.0386 -0.5726
 6312TIP3    H240352   6.512   6.372  15.311 -0.0542  0.2794  0.7779
 6313TIP3   OH240353   0.281   4.980   0.806  1.0334  0.2036 -0.0610
 6313TIP3    H140354   0.307   5.066   0.839 -1.5273  1.0559 -0.1724
 6313TIP3    H240355   0.240   4.937   0.881 -0.4077  0.2728 -0.7874
 6314TIP3   OH240356   4.393   0.749  12.006  0.3594 -0.5780 -0.1927
 6314TIP3    H140357   4.389   0.809  11.931  1.0994 -0.4014 -0.0931
 6314TIP3    H240358   4.304   0.748  12.041 -0.6507 -2.6635 -2.6568
 6315TIP3   OH240359   3.314   4.608  11.642  0.3169 -0.5735 -0.2608
 6315TIP3    H140360   3.263   4.688  11.622 -0.2087 -0.8156  0.1001
 6315TIP3    H240361   3.283   4.580  11.728  3.0329  0.8024  1.2259
 6316TIP3   OH240362   5.638   3.884  13.675 -0.4446 -0.1497  0.0648
 6316TIP3    H140363   5.584   3.945  13.624  0.0191 -0.3153 -0.6353
 6316TIP3    H240364   5.607   3.895  13.765 -1.5876 -0.1834 -0.3098
 6317TIP3   OH240365   3.872   4.670   4.458  0.4811 -0.1569 -0.0419
 6317TIP3    H140366   3.920   4.630   4.385 -0.8393 -1.7317 -0.0796
 6317TIP3    H240367   3.918   4.638   4.536  2.1550  1.8685 -0.1604
 6318TIP3   OH240368   0.378   2.306   5.240 -0.1623 -0.0076 -0.3193
 6318TIP3    H140369   0.349   2.339   5.155 -1.5654  1.7139  0.7874
 6318TIP3    H240370   0.303   2.321   5.298  0.4201 -2.0585  1.0125
 6319TIP3   OH240371   3.230   1.960   3.170 -0.2119  0.2755  0.7379
 6319TIP3    H140372   3.161   2.025   3.155  0.0039  0.6935  1.5698
 6319TIP3    H240373   3.273   1.951   3.085 -0.7284  0.6658  0.4346
 6320TIP3   OH240374   2.460   0.143   0.899 -0.5127 -0.4505  0.3485
 6320TIP3    H140375   2.519   0.068   0.903  1.1765  0.8274 -0.1081
 6320TIP3    H240376   2.455   0.174   0.989  0.9047  0.4857  0.1129
 6321TIP3   OH240377   3.206   6.552   2.674 -0.0023 -0.2132  0.3412
 6321TIP3    H140378   3.240   6.485   2.732  0.2637 -1.0875 -0.8008
 6321TIP3    H240379   3.177   6.504   2.596  1.6780  1.1458 -1.1715
 6322TIP3   OH240380   0.836   0.770  15.804  0.1314 -0.6997 -0.2062
 6322TIP3    H140381   0.783   0.724  15.738 -0.3809  0.1129 -0.3668
 6322TIP3    H240382   0.809   0.861  15.797  0.3430 -0.5520  0.8914
 6323TIP3   OH240383   4.129   0.743   0.574 -0.1311  0.2515  0.5055
 6323TIP3    H140384   4.042   0.727   0.536  0.8975 -2.9796 -0.6482
 6323TIP3    H240385   4.175   0.794   0.508  0.0541 -1.2628 -0.5684
 6324TIP3   OH240386   6.187   2.926  15.707  0.8665  0.2175  0.2460
 6324TIP3    H140387   6.220   2.991  15.769  1.4422 -0.9361  1.1444
 6324TIP3    H240388   6.253   2.857  15.706  1.4933  0.7911 -2.5842
 6325TIP3   OH240389   2.626   2.486   0.191  0.2377 -0.2525 -0.0801
 6325TIP3    H140390   2.580   2.422   0.136  0.4673 -1.0126  0.5882
 6325TIP3    H240391   2.715   2.486   0.158 -0.4399  1.9758 -2.0387
 6326TIP3   OH240392   4.625   1.089   0.842 -0.4534  0.8769 -0.5149
 6326TIP3    H140393   4.720   1.077   0.841 -0.7927 -2.0469 -0.7810
 6326TIP3    H240394   4.591   1.015   0.892 -2.5797  2.2069  0.1069
 6327TIP3   OH240395   6.408   2.420   3.098  0.1549 -0.0443  0.9640
 6327TIP3    H140396   6.457   2.341   3.123  0.6994  0.3424  1.1208
 6327TIP3    H240397   6.473   2.490   3.100 -0.3607  0.4340  0.9499
 6328TIP3   OH240398   4.120   2.418   1.142  0.0690  0.0994  0.3929
 6328TIP3    H140399   4.110   2.513   1.147 -0.8333 -0.0140  1.1250
 6328TIP3    H240400   4.176   2.403   1.067  2.0132  1.3179  1.5560
 6329TIP3   OH240401   5.386   0.948  13.857  0.2712 -0.2424  0.2384
 6329TIP3    H140402   5.305   0.901  13.837  0.0719  0.3171 -0.3041
 6329TIP3    H240403   5.365   1.040  13.839  1.6265 -0.3127 -1.9261
 6330TIP3   OH240404   5.496   0.832  13.156  0.3977 -0.4759 -0.3789
 6330TIP3    H140405   5.588   0.860  13.159  0.6083 -1.0976 -0.7817
 6330TIP3    H240406   5.501   0.740  13.128 -0.2848 -0.8704  0.7847
 6331TIP3   OH240407   3.776   1.212   4.411  0.6035  0.7015 -0.0699
 6331TIP3    H140408   3.730   1.290   4.381 -1.1959  0.7845  2.6640
 6331TIP3    H240409   3.852   1.246   4.459  0.6083  0.7494 -0.1120
 6332TIP3   OH240410   1.551   0.278   0.823  0.0544  0.3975 -0.4474
 6332TIP3    H140411   1.627   0.227   0.796  1.0168  0.5341  1.8991
 6332TIP3    H240412   1.479   0.214   0.823  0.3391  0.0534 -1.7396
 6333TIP3   OH240413   6.702   4.073  12.507 -0.1607 -0.0511 -0.1391
 6333TIP3    H140414   6.689   4.144  12.445 -1.4544 -0.6579 -0.5655
 6333TIP3    H240415   6.796   4.056  12.504 -0.0166  0.8441 -0.9037
 6334TIP3   OH240416   2.007   5.547   0.362  0.2113  0.2925 -0.4548
 6334TIP3    H140417   2.063   5.619   0.335  1.6546  0.0471  1.6878
 6334TIP3    H240418   2.067   5.473   0.374 -0.5044  0.0537  1.9841
 6335TIP3   OH240419   4.848   4.712  14.554 -0.2121 -0.7745  0.6123
 6335TIP3    H140420   4.874   4.780  14.493  0.4205 -1.0244  0.5966
 6335TIP3    H240421   4.800   4.758  14.623  2.0628  0.0120  1.7284
 6336TIP3   OH240422   5.891   2.789  11.472  0.5259 -0.2767  0.2760
 6336TIP3    H140423   5.884   2.864  11.531  0.2090  0.7225 -1.0251
 6336TIP3    H240424   5.980   2.793  11.439  0.0007  0.5070 -1.0780
 6337TIP3   OH240425   4.377   6.030   1.303  0.0975  0.2092 -0.0415
 6337TIP3    H140426   4.290   5.996   1.323  0.2175  1.0620  2.1552
 6337TIP3    H240427   4.367   6.079   1.222 -1.1707 -0.8403 -0.5186
 6338TIP3   OH240428   1.574   5.817   2.846  0.4186  0.8216  0.4192
 6338TIP3    H140429   1.599   5.909   2.857  1.1209  0.5842  0.8675
 6338TIP3    H240430   1.656   5.769   2.857  0.2689  0.2137 -0.9938
 6339TIP3   OH240431   2.951   0.115  13.284 -0.1396 -0.0576  0.0111
 6339TIP3    H140432   2.872   0.118  13.338 -0.2648  0.1157 -0.1793
 6339TIP3    H240433   2.982   0.206  13.282  0.9665 -0.3956  1.3997
 6340TIP3   OH240434   1.720   0.535   2.386 -0.2830 -0.2185 -0.3041
 6340TIP3    H140435   1.661   0.522   2.312 -0.3251 -0.6365 -0.2025
 6340TIP3    H240436   1.665   0.573   2.454 -0.7769 -1.9230  0.2697
 6341TIP3   OH240437   2.985   3.933   6.211  0.2223  0.2004  0.2825
 6341TIP3    H140438   3.051   3.873   6.245 -0.9139 -1.2760 -0.0246
 6341TIP3    H240439   2.908   3.918   6.267  0.2532  2.1827  0.8942
 6342TIP3   OH240440   3.245   5.716  15.444 -0.1593 -0.2332 -0.1848
 6342TIP3    H140441   3.161   5.760  15.426 -0.0587 -0.1308 -0.4109
 6342TIP3    H240442   3.267   5.742  15.534 -1.3212 -1.8181  0.5816
 6343TIP3   OH240443   6.736   4.176   2.428  0.0250  0.0819 -0.1622
 6343TIP3    H140444   6.806   4.185   2.364 -1.5497 -1.1787 -2.1266
 6343TIP3    H240445   6.764   4.104   2.485  1.5541  1.3813  0.7554
 6344TIP3   OH240446   3.528   3.472  15.904  0.1288 -0.2545 -0.0338
 6344TIP3    H140447   3.478   3.441  15.979 -0.0597 -0.6114 -0.3057
 6344TIP3    H240448   3.616   3.487  15.939 -0.1835  0.4508  0.4618
 6345TIP3   OH240449   0.399   1.000  12.557  0.4869 -0.8418  0.5204
 6345TIP3    H140450   0.438   0.966  12.477  1.1439  0.3936  0.3036
 6345TIP3    H240451   0.465   0.983  12.625  1.2135  0.8088  0.2420
 6346TIP3   OH240452   1.195   1.124   5.146  0.1880 -0.0525 -0.0216
 6346TIP3    H140453   1.101   1.105   5.147  0.3111 -0.7980  2.5818
 6346TIP3    H240454   1.200   1.219   5.141 -0.6499 -0.0907 -2.1511
 6347TIP3   OH240455   6.088   0.134   5.066  0.0290 -0.2811  0.4062
 6347TIP3    H140456   6.126   0.048   5.086  2.8750  1.1128  1.1087
 6347TIP3    H240457   6.088   0.138   4.970  1.7391 -0.2600  0.3990
 6348TIP3   OH240458   1.039   3.705   1.658  0.0889  0.2122 -0.0223
 6348TIP3    H140459   0.993   3.660   1.587 -0.3868 -1.0364  1.0531
 6348TIP3    H240460   1.126   3.724   1.622 -0.1060 -0.5146 -0.8933
 6349TIP3   OH240461   5.904   3.296  14.533  0.6683  0.4673 -0.0415
 6349TIP3    H140462   5.834   3.237  14.562  0.0416  1.4196  0.4081
 6349TIP3    H240463   5.980   3.239  14.522  0.1122 -0.4038  0.5441
 6350TIP3   OH240464   1.488   3.962   0.133  0.3476 -0.2912  0.0755
 6350TIP3    H140465   1.428   4.023   0.175 -0.3702 -0.7967 -0.2148
 6350TIP3    H240466   1.465   3.966   0.040 -0.4767 -1.8549  0.1985
 6351TIP3   OH240467   0.954   4.079  12.295 -0.2209  0.3622  1.1081
 6351TIP3    H140468   0.976   4.164  12.255  1.1597 -0.8163 -0.7172
 6351TIP3    H240469   0.940   4.099  12.388 -0.4543  2.6723  0.6039
 6352TIP3   OH240470   1.242   4.827   0.790  0.6728  0.1335  0.2222
 6352TIP3    H140471   1.230   4.843   0.883  2.6562 -0.6521  0.6491
 6352TIP3    H240472   1.156   4.799   0.759  0.5954 -2.3722  2.4214
 6353TIP3   OH240473   3.065   1.172  13.832  0.0544  0.0307 -0.1193
 6353TIP3    H140474   3.082   1.191  13.925 -0.0592  1.8278 -0.4426
 6353TIP3    H240475   3.024   1.252  13.799  0.5934 -0.4018 -1.8484
 6354TIP3   OH240476   5.922   6.011   3.612  0.5318 -0.1891  0.2301
 6354TIP3    H140477   5.835   6.044   3.631  1.1649  0.7712  1.5198
 6354TIP3    H240478   5.974   6.089   3.592  0.8735 -0.8246 -1.5393
 6355TIP3   OH240479   3.312   6.259   5.239  0.5429  0.0013  0.2328
 6355TIP3    H140480   3.245   6.192   5.249  1.5648 -0.9870  0.6197
 6355TIP3    H240481   3.264   6.339   5.219 -0.7277 -0.7326  0.3216
 6356TIP3   OH240482   5.379   2.905   4.620 -0.1818 -0.7106  0.0061
 6356TIP3    H140483   5.379   2.999   4.635 -0.4330 -0.7179  0.0515
 6356TIP3    H240484   5.464   2.887   4.578 -0.2942 -0.4127 -0.3505
 6357TIP3   OH240485   0.431   5.951   3.309  0.3151 -0.3267  0.0560
 6357TIP3    H140486   0.441   6.028   3.254  0.8346  0.6814  1.5035
 6357TIP3    H240487   0.479   5.881   3.263  0.1501  0.3142 -1.0797
 6358TIP3   OH240488   5.764   3.559  16.036  0.0576  0.3541 -0.1518
 6358TIP3    H140489   5.752   3.464  16.032 -0.7309  0.4104  0.6765
 6358TIP3    H240490   5.826   3.572  16.108 -0.3124  0.5057  0.1396
 6359TIP3   OH240491   0.191   0.412   0.324  0.4611 -0.8948  0.3795
 6359TIP3    H140492   0.153   0.333   0.285 -0.7667 -0.4738  0.7189
 6359TIP3    H240493   0.117   0.458   0.363  1.0101  0.9389 -0.6946
 6360TIP3   OH240494   2.811   5.582  12.649  0.1074  0.5458 -0.3265
 6360TIP3    H140495   2.905   5.572  12.663  0.0982  0.2205 -0.4895
 6360TIP3    H240496   2.781   5.495  12.623 -0.4884  0.3122  1.1072
 6361TIP3   OH240497   1.168   2.992   1.095 -0.4542 -0.1119 -0.1021
 6361TIP3    H140498   1.229   3.054   1.136 -0.4672  0.2659 -0.6415
 6361TIP3    H240499   1.201   2.906   1.120 -0.9462  0.1280  1.3850
 6362TIP3   OH240500   6.696   3.077   1.138  0.1459  0.2844 -0.0279
 6362TIP3    H140501   6.690   2.989   1.176 -0.4336  0.0911 -0.5789
 6362TIP3    H240502   6.612   3.119   1.159  0.0810  0.4075 -0.5222
 6363TIP3   OH240503   5.727   4.255   0.572 -0.6432  0.2266 -0.5001
 6363TIP3    H140504   5.755   4.320   0.637  0.1571 -0.5938 -0.0063
 6363TIP3    H240505   5.685   4.306   0.504 -1.5171  1.1100  0.6783
 6364TIP3   OH240506   6.407   1.068  13.031 -0.3539  0.2556 -0.0222
 6364TIP3    H140507   6.360   1.121  13.095  0.4204  0.5119  0.3328
 6364TIP3    H240508   6.382   0.978  13.050 -1.9496  0.5097 -0.8467
 6365TIP3   OH240509   2.927   5.928   6.333 -0.2491  0.1965 -0.0493
 6365TIP3    H140510   2.837   5.948   6.308 -0.0303  0.1764 -0.8633
 6365TIP3    H240511   2.975   5.921   6.250  0.6487  0.9125  0.3911
 6366TIP3   OH240512   3.146   3.391   3.699 -0.3922  0.4961 -0.3327
 6366TIP3    H140513   3.201   3.338   3.756 -1.2359 -1.2475 -1.1011
 6366TIP3    H240514   3.090   3.440   3.758 -0.5659 -0.5407  0.3803
 6367TIP3   OH240515   2.299   2.421  11.933 -0.3244 -0.7171 -0.5859
 6367TIP3    H140516   2.285   2.333  11.969 -1.3211 -1.8503 -3.5764
 6367TIP3    H240517   2.352   2.406  11.854  0.6648  1.5154 -0.3651
 6368TIP3   OH240518   3.787   6.700  13.543  0.1164  0.3663 -0.2757
 6368TIP3    H140519   3.707   6.723  13.591  0.7025  0.6952  0.5420
 6368TIP3    H240520   3.757   6.683  13.453 -1.2101 -1.6689  0.5210
 6369TIP3   OH240521   5.544   0.929  16.736 -0.2488 -0.1404 -0.2516
 6369TIP3    H140522   5.598   0.862  16.778  0.5338 -1.0558 -2.6618
 6369TIP3    H240523   5.606   0.998  16.712 -0.5818  0.0638 -0.5240
 6370TIP3   OH240524   2.292   4.761   2.110 -0.1936  0.3731 -0.1073
 6370TIP3    H140525   2.345   4.785   2.034 -0.0100 -0.8879 -0.3837
 6370TIP3    H240526   2.242   4.685   2.082  0.5909 -0.6959  1.3372
 6371TIP3   OH240527   1.753   0.760  15.520 -0.4106 -0.3217  0.3225
 6371TIP3    H140528   1.753   0.664  15.529 -0.3436 -0.4280 -0.7483
 6371TIP3    H240529   1.768   0.775  15.426  1.9832  0.7666  0.8452
 6372TIP3   OH240530   4.492   5.555  12.699  0.2488  0.1737 -0.0281
 6372TIP3    H140531   4.438   5.558  12.778 -0.1071  0.6253 -0.2830
 6372TIP3    H240532   4.574   5.514  12.727 -1.0783 -2.6509 -0.1704
 6373TIP3   OH240533   5.819   5.005   1.151  0.2914 -0.2004 -0.5776
 6373TIP3    H140534   5.804   4.921   1.194  0.5134  0.3959  0.6876
 6373TIP3    H240535   5.897   4.990   1.097  0.7848 -0.6044  0.2247
 6374TIP3   OH240536   0.752   4.828   4.034 -0.2970  0.1600  0.0783
 6374TIP3    H140537   0.710   4.914   4.030  0.8711  0.7761  1.1062
 6374TIP3    H240538   0.843   4.844   4.012 -0.0786 -0.8278  0.2324
 6375TIP3   OH240539   2.752   4.966   0.211  0.3546 -1.1940  0.5860
 6375TIP3    H140540   2.763   4.974   0.306  1.3701 -1.1022  0.4716
 6375TIP3    H240541   2.727   4.874   0.198  0.7884 -1.3607  0.8970
 6376TIP3   OH240542   3.006   5.602  14.013  0.4393 -0.7628  0.4259
 6376TIP3    H140543   2.939   5.548  14.055 -1.7362  0.6905 -1.0957
 6376TIP3    H240544   2.976   5.692  14.027  1.5105 -0.1400 -1.1845
 6377TIP3   OH240545   4.203   3.466   0.229  0.1553 -0.5911  0.0084
 6377TIP3    H140546   4.186   3.483   0.136 -0.9514  0.5234  0.3924
 6377TIP3    H240547   4.247   3.546   0.260  0.9672 -1.1589  0.3292
 6378TIP3   OH240548   2.027   5.070  16.804 -0.2308  0.2389  0.4066
 6378TIP3    H140549   1.991   5.143  16.854 -3.1875 -1.8748  1.4799
 6378TIP3    H240550   2.048   5.003  16.869  0.8443 -0.5528 -0.7180
 6379TIP3   OH240551   6.508   6.164  16.693 -0.4708 -0.2655  0.0000
 6379TIP3    H140552   6.548   6.245  16.663 -1.9641  0.4413 -0.0946
 6379TIP3    H240553   6.532   6.099  16.627  0.9701  0.0174  0.2300
 6380TIP3   OH240554   2.905   1.462   3.843  0.3396 -0.5665  0.1309
 6380TIP3    H140555   2.817   1.485   3.872 -1.3405 -1.4075 -4.0331
 6380TIP3    H240556   2.916   1.371   3.872  0.1218 -0.2352  1.2725
 6381TIP3   OH240557   5.396   5.131  11.866  0.2263 -0.9833  0.3067
 6381TIP3    H140558   5.341   5.132  11.945  0.1387 -3.6076  0.3411
 6381TIP3    H240559   5.350   5.186  11.804 -0.4946 -0.1013  1.5922
 6382TIP3   OH240560   3.442   5.656  11.092  0.1813 -0.7268  0.2507
 6382TIP3    H140561   3.396   5.702  11.021  0.9028 -0.8712 -0.3148
 6382TIP3    H240562   3.374   5.600  11.131 -0.5585  0.4008  0.5915
 6383TIP3   OH240563   1.873   1.643   5.302  0.1574 -0.3638 -0.6653
 6383TIP3    H140564   1.890   1.597   5.220  1.3913  0.3025 -0.7972
 6383TIP3    H240565   1.889   1.577   5.370 -0.8566 -0.9097 -0.9630
 6384TIP3   OH240566   2.548   0.403   2.839 -0.2342 -0.1981  0.1705
 6384TIP3    H140567   2.602   0.327   2.859  1.6027  0.7831 -0.9780
 6384TIP3    H240568   2.552   0.457   2.918 -0.2791 -0.5443  0.4116
 6385TIP3   OH240569   1.274   6.487  11.992 -0.4589  0.1285 -0.3737
 6385TIP3    H140570   1.186   6.492  11.955 -0.8754 -1.5956  0.3222
 6385TIP3    H240571   1.273   6.550  12.064 -0.5769  1.3377 -1.4153
 6386TIP3   OH240572   0.781   4.314   3.290 -0.1475  0.2327 -0.3432
 6386TIP3    H140573   0.860   4.268   3.264 -0.0533 -0.2052  0.7070
 6386TIP3    H240574   0.732   4.324   3.208 -0.7138 -2.7665 -0.4557
 6387TIP3   OH240575   3.682   2.270   5.240  0.0115 -0.3448 -0.4849
 6387TIP3    H140576   3.591   2.244   5.227 -0.0749  0.9137 -2.5434
 6387TIP3    H240577   3.687   2.359   5.207  1.9279 -0.2797 -0.1018
 6388TIP3   OH240578   6.742   6.550  16.147  0.0517  0.2214 -0.1250
 6388TIP3    H140579   6.693   6.631  16.161  1.8813  1.3453 -0.1498
 6388TIP3    H240580   6.748   6.541  16.052  2.4750  1.6872 -0.1352
 6389TIP3   OH240581   2.631   3.802  16.827 -0.6173  0.3380  0.1878
 6389TIP3    H140582   2.580   3.842  16.757  1.3016 -1.5444 -2.3923
 6389TIP3    H240583   2.618   3.708  16.815  0.9316 -0.0471  1.4268
 6390TIP3   OH240584   0.260   1.847   1.134  0.1227  0.1442 -0.0543
 6390TIP3    H140585   0.219   1.916   1.187  0.7792 -0.3639  1.1277
 6390TIP3    H240586   0.339   1.888   1.099  0.2082  0.1724  0.1715
 6391TIP3   OH240587   1.057   1.912  13.552 -0.5494 -0.1647  0.4678
 6391TIP3    H140588   1.118   1.849  13.513  0.8634  0.5332  1.5395
 6391TIP3    H240589   1.071   1.904  13.646  0.0415  2.1436  0.5980
 6392TIP3   OH240590   3.556   2.759   1.765  0.5457 -0.0145 -0.2248
 6392TIP3    H140591   3.623   2.803   1.713  0.6014  0.4087  0.1995
 6392TIP3    H240592   3.483   2.745   1.705  1.6788 -2.0675 -1.1661
 6393TIP3   OH240593   3.150   5.117   4.195 -0.2356  0.2476  0.6924
 6393TIP3    H140594   3.241   5.144   4.206  0.3600 -0.1982 -2.5385
 6393TIP3    H240595   3.144   5.033   4.241  1.1653  0.0169  0.4879
 6394TIP3   OH240596   3.176   5.804  14.938 -0.1517 -0.2814 -0.2111
 6394TIP3    H140597   3.082   5.802  14.957  0.4580 -2.3666  2.7930
 6394TIP3    H240598   3.218   5.814  15.023  2.3811  1.9275 -1.6237
 6395TIP3   OH240599   0.922   1.694  13.653  0.0741  0.3080  0.6257
 6395TIP3    H140600   1.000   1.671  13.602 -0.9404 -0.4635 -0.6040
 6395TIP3    H240601   0.936   1.786  13.677  1.2437  0.2508  0.2166
 6396TIP3   OH240602   3.500   5.487   2.517  0.3972 -0.1261 -0.1003
 6396TIP3    H140603   3.529   5.405   2.557 -0.2833 -0.6488 -0.6768
 6396TIP3    H240604   3.423   5.512   2.568 -0.1390 -0.5009 -0.7189
 6397TIP3   OH240605   1.118   5.948   3.678  0.0945 -0.5894 -0.4626
 6397TIP3    H140606   1.102   5.894   3.755 -2.1101  2.6993  1.4974
 6397TIP3    H240607   1.196   6.000   3.700  0.7158 -1.1239 -1.3338
 6398TIP3   OH240608   6.390   1.833   1.318 -0.2170 -0.2661  0.5801
 6398TIP3    H140609   6.463   1.811   1.376 -0.2920 -1.4186  0.2382
 6398TIP3    H240610   6.314   1.838   1.375  0.2223  1.6061  1.0476
 6399TIP3   OH240611   3.324   2.607  15.898  0.1583  0.2003 -0.1144
 6399TIP3    H140612   3.406   2.642  15.864  0.8378 -1.7083 -0.4560
 6399TIP3    H240613   3.350   2.549  15.970 -0.9210 -0.1119  0.0378
 6400TIP3   OH240614   0.314   2.609  12.551 -0.6485 -0.3169  0.3257
 6400TIP3    H140615   0.297   2.699  12.524 -2.7132 -0.6714  0.3445
 6400TIP3    H240616   0.312   2.612  12.647 -2.7718 -0.7273  0.3115
 6401TIP3   OH240617   1.604   6.567   6.568  0.4220 -0.4000 -0.1904
 6401TIP3    H140618   1.515   6.585   6.538  1.3999  1.7634 -2.0372
 6401TIP3    H240619   1.616   6.473   6.556 -2.0274 -0.9357  1.3566
 6402TIP3   OH240620   6.135   1.252  16.787 -0.5459 -0.7574 -0.0612
 6402TIP3    H140621   6.063   1.226  16.844 -0.5169 -0.1269  0.2716
 6402TIP3    H240622   6.160   1.172  16.741 -0.4826 -1.3063  0.9191
 6403TIP3   OH240623   0.933   4.234  14.108  0.8262  0.0950  0.0331
 6403TIP3    H140624   0.868   4.287  14.062  0.1954 -0.0608  0.7302
 6403TIP3    H240625   0.923   4.146  14.072 -1.7689 -0.7140  2.5654
 6404TIP3   OH240626   3.231   4.084  13.492  0.1469  0.6133 -0.1330
 6404TIP3    H140627   3.258   4.009  13.544  2.9470  0.5668 -1.5789
 6404TIP3    H240628   3.287   4.082  13.415 -1.7412  2.5035 -1.6492
 6405TIP3   OH240629   0.663   6.649  11.239  0.3354 -0.2331  0.0332
 6405TIP3    H140630   0.617   6.588  11.297  0.2631 -0.5778 -0.3842
 6405TIP3    H240631   0.652   6.612  11.152  2.2500 -0.8448  0.0405
 6406TIP3   OH240632   6.407   3.755   1.071  0.0322 -0.1910 -0.3544
 6406TIP3    H140633   6.348   3.700   1.020  0.1566 -0.4725 -0.1917
 6406TIP3    H240634   6.410   3.714   1.157 -1.1493  0.9522  0.2695
 6407TIP3   OH240635   3.179   4.213  16.993 -0.1233  0.9632 -0.3851
 6407TIP3    H140636   3.163   4.136  17.048 -0.0192  2.5960  1.9752
 6407TIP3    H240637   3.257   4.190  16.942 -1.2636 -1.2648 -1.1791
 6408TIP3   OH240638   0.287   1.853   1.765  0.5600  0.4518 -0.6392
 6408TIP3    H140639   0.212   1.850   1.706  1.5166 -0.8134 -1.8124
 6408TIP3    H240640   0.363   1.842   1.709  1.4508 -1.6106  0.8906
 6409TIP3   OH240641   3.654   6.362   1.478 -0.1089 -0.2180 -0.3689
 6409TIP3    H140642   3.672   6.338   1.387  0.6391  0.9232 -0.5387
 6409TIP3    H240643   3.704   6.298   1.530  0.1277 -0.3570 -0.7688
 6410TIP3   OH240644   6.004   5.960   1.814 -0.2688 -0.1834 -0.1714
 6410TIP3    H140645   5.934   6.016   1.846 -1.2670 -1.7031  0.3630
 6410TIP3    H240646   5.960   5.897   1.757  0.2518 -2.6882  2.1007
 6411TIP3   OH240647   4.161   4.761   2.043  0.5522  0.8250  0.6308
 6411TIP3    H140648   4.177   4.782   1.951  1.3664  0.8577  0.7799
 6411TIP3    H240649   4.168   4.845   2.088  0.5071  0.7509  0.7771
 6412TIP3   OH240650   6.013   0.737   0.616  0.3774  0.2525 -0.0422
 6412TIP3    H140651   5.947   0.753   0.683  0.1195 -0.0105 -0.2354
 6412TIP3    H240652   6.019   0.820   0.568  0.2190  0.2873 -0.0016
 6413TIP3   OH240653   4.580   1.335  14.326  0.3989  0.2981 -0.4588
 6413TIP3    H140654   4.598   1.327  14.419  0.3893 -0.0443 -0.4847
 6413TIP3    H240655   4.486   1.350  14.320  0.7134  2.3972 -0.3037
 6414TIP3   OH240656   2.691   5.477  16.592  0.3375  0.7482  0.0820
 6414TIP3    H140657   2.774   5.432  16.576 -0.0286  0.1372 -0.1112
 6414TIP3    H240658   2.713   5.570  16.582  1.5341  0.7643  2.4421
 6415TIP3   OH240659   1.211   4.754  15.971 -0.2350  0.3310  0.1546
 6415TIP3    H140660   1.257   4.705  15.903 -0.0029  1.2889 -0.3793
 6415TIP3    H240661   1.214   4.845  15.942 -2.3042  0.4381  0.1903
 6416TIP3   OH240662   2.987   2.098  15.401 -0.1246  0.1571 -0.2012
 6416TIP3    H140663   3.002   2.103  15.495 -0.0332 -0.9579 -0.1494
 6416TIP3    H240664   3.009   2.185  15.368  1.4153  0.0665  0.5847
 6417TIP3   OH240665   4.491   4.176  11.506  0.2197  0.9202  0.2596
 6417TIP3    H140666   4.402   4.144  11.517  0.3897  0.1095 -0.6803
 6417TIP3    H240667   4.493   4.214  11.418  1.4457 -1.3070 -0.7306
 6418TIP3   OH240668   2.991   4.513   4.878  0.4209  0.1099  0.8373
 6418TIP3    H140669   3.012   4.513   4.784  1.1623 -0.2395  1.0040
 6418TIP3    H240670   2.896   4.503   4.881  0.3668  0.3570  0.1166
 6419TIP3   OH240671   4.601   2.291   4.206  0.1599  0.2887  0.5775
 6419TIP3    H140672   4.692   2.286   4.235  0.3039 -2.1740 -0.2221
 6419TIP3    H240673   4.607   2.295   4.110 -0.5712  0.0424  0.5179
 6420TIP3   OH240674   3.534   2.032  14.824  0.2198  0.2859  0.5126
 6420TIP3    H140675   3.546   2.002  14.913 -4.0039 -1.7624  0.4808
 6420TIP3    H240676   3.493   2.118  14.833 -3.3716 -1.3526  0.6585
 6421TIP3   OH240677   1.813   0.893   0.482  0.1596  0.5507  0.7031
 6421TIP3    H140678   1.843   0.926   0.567  0.7549 -0.5147  0.9030
 6421TIP3    H240679   1.722   0.868   0.497 -0.4213  2.4247  0.4595
 6422TIP3   OH240680   2.354   4.345  13.122  0.3450  0.0914  0.1626
 6422TIP3    H140681   2.314   4.301  13.198  1.8989 -1.4299  0.1218
 6422TIP3    H240682   2.399   4.420  13.160  1.8364 -1.1389  0.8901
 6423TIP3   OH240683   1.739   0.224   5.497  0.3019  0.1899 -0.2391
 6423TIP3    H140684   1.673   0.281   5.457  1.0446  0.8177 -0.5744
 6423TIP3    H240685   1.696   0.190   5.575  0.4646  2.6912  1.0047
 6424TIP3   OH240686   3.200   4.393   0.503  0.4303 -0.1157  0.3411
 6424TIP3    H140687   3.182   4.474   0.456 -0.3012 -0.8032 -0.5706
 6424TIP3    H240688   3.119   4.342   0.497  1.3156 -1.5098 -0.3258
 6425TIP3   OH240689   3.111   3.445  12.201 -0.1037  0.2995  0.5732
 6425TIP3    H140690   3.171   3.427  12.128 -1.0212  1.1038 -0.4045
 6425TIP3    H240691   3.168   3.474  12.272  0.7860 -0.2121  0.0847
 6426TIP3   OH240692   2.569   3.920  13.039  0.6376  0.5196  0.3746
 6426TIP3    H140693   2.489   3.959  13.005  0.5356 -0.2582 -0.3083
 6426TIP3    H240694   2.629   3.918  12.964  1.2253  0.9303  0.8337
 6427TIP3   OH240695   1.743   3.703  13.145  0.5783 -0.0614  0.4165
 6427TIP3    H140696   1.735   3.758  13.223 -0.1310 -1.0781  1.0644
 6427TIP3    H240697   1.759   3.615  13.178 -1.4470 -0.8183 -0.5163
 6428TIP3   OH240698   5.127   1.142   1.900 -0.6116  0.3884 -0.2385
 6428TIP3    H140699   5.139   1.047   1.911 -1.3274  0.3554  0.3336
 6428TIP3    H240700   5.181   1.181   1.968 -0.0908  0.4031 -0.6582
 6429TIP3   OH240701   6.298   3.313  11.800 -0.5417  0.3629  0.0216
 6429TIP3    H140702   6.227   3.269  11.753 -1.4551  0.9877  0.8281
 6429TIP3    H240703   6.311   3.395  11.752  0.7060 -0.4346 -1.0676
 6430TIP3   OH240704   5.636   4.868  12.527  0.1369 -0.2162 -0.3810
 6430TIP3    H140705   5.594   4.822  12.600  1.2730 -0.6128  0.0324
 6430TIP3    H240706   5.723   4.890  12.559  0.9255 -1.0779 -1.8757
 6431TIP3   OH240707   0.379   1.584  12.830  0.1930  0.2220 -0.6406
 6431TIP3    H140708   0.441   1.620  12.768 -0.9702  0.9477 -1.3948
 6431TIP3    H240709   0.315   1.654  12.845  0.2194 -0.0832  1.0524
 6432TIP3   OH240710   3.064   0.888   6.164  0.1355 -0.0794 -0.3830
 6432TIP3    H140711   3.001   0.815   6.172 -0.1847  0.3090  0.6363
 6432TIP3    H240712   3.044   0.945   6.238  1.3025  0.3546 -0.4029
 6433TIP3   OH240713   2.702   4.026   2.060  0.1052  0.4719  0.3557
 6433TIP3    H140714   2.798   4.029   2.061  0.1859 -1.6103  1.4821
 6433TIP3    H240715   2.680   3.956   2.121 -2.0467 -0.6639 -1.6541
 6434TIP3   OH240716   5.081   3.797   3.675  0.3278  0.0558  0.2178
 6434TIP3    H140717   5.121   3.743   3.744 -0.5472  0.0977  0.7578
 6434TIP3    H240718   5.149   3.861   3.653  0.8366 -0.3448  0.6132
 6435TIP3   OH240719   2.612   1.390  11.982 -0.7456 -0.2490  0.0396
 6435TIP3    H140720   2.640   1.382  12.073  0.4659 -0.2518 -0.3252
 6435TIP3    H240721   2.653   1.315  11.938 -0.9539  0.0101 -0.5968
 6436TIP3   OH240722   5.273   6.193   5.767  0.1140  0.3723  0.5470
 6436TIP3    H140723   5.337   6.192   5.696 -0.6882  0.7075 -0.1907
 6436TIP3    H240724   5.322   6.165   5.844  1.1572  0.6999  0.0045
 6437TIP3   OH240725   3.376   2.685   4.420 -0.5307  0.0987  0.2352
 6437TIP3    H140726   3.296   2.681   4.368  1.1528 -1.1331 -2.3461
 6437TIP3    H240727   3.393   2.779   4.432 -0.3772  0.4214 -2.3663
 6438TIP3   OH240728   5.985   6.292  12.666  0.0698  0.0225  0.3705
 6438TIP3    H140729   6.032   6.209  12.669  0.9477  0.5565  2.7573
 6438TIP3    H240730   5.917   6.279  12.600  0.8405 -2.2264 -0.0232
 6439TIP3   OH240731   4.809   2.585  10.433  0.1613  0.4208 -0.2233
 6439TIP3    H140732   4.730   2.593  10.488 -0.5354  1.5289 -1.3751
 6439TIP3    H240733   4.786   2.519  10.368  0.3085  0.5160 -0.3713
 6440TIP3   OH240734   1.677   1.775   2.441 -0.3887 -0.3249 -0.1884
 6440TIP3    H140735   1.611   1.844   2.446 -1.5349 -1.4376  0.1252
 6440TIP3    H240736   1.691   1.763   2.347  0.3782  0.8426 -0.2424
 6441TIP3   OH240737   3.723   6.012   0.275 -0.2632  0.0287  0.1481
 6441TIP3    H140738   3.728   5.999   0.370  1.3583 -3.4270 -0.3461
 6441TIP3    H240739   3.630   5.998   0.254 -0.3700 -0.6477  1.0484
 6442TIP3   OH240740   0.526   0.207   2.065 -0.2474 -0.0615  0.2060
 6442TIP3    H140741   0.448   0.247   2.104 -1.1784 -2.1906  0.6170
 6442TIP3    H240742   0.492   0.157   1.990  0.6513 -1.4202  0.6942
 6443TIP3   OH240743   1.234   6.617   3.467  0.2333  0.0265  0.1030
 6443TIP3    H140744   1.243   6.711   3.485 -1.4448  0.7182 -2.3954
 6443TIP3    H240745   1.140   6.600   3.476  0.5878 -1.5329  0.9754
 6444TIP3   OH240746   6.432   3.363   5.123  0.0440 -0.2028 -0.6285
 6444TIP3    H140747   6.347   3.380   5.165  0.0766  1.0210 -1.0569
 6444TIP3    H240748   6.475   3.300   5.182 -0.5638  0.2790  0.3427
 6445TIP3   OH240749   0.977   5.957   5.951  0.1319  0.4068 -0.1596
 6445TIP3    H140750   1.041   5.902   5.995  0.5104  0.9435 -0.0388
 6445TIP3    H240751   0.894   5.911   5.964 -0.0334  1.3611  2.5164
 6446TIP3   OH240752   1.156   4.179  15.735 -0.2825  0.0290 -0.2529
 6446TIP3    H140753   1.209   4.250  15.771  0.3554 -0.0805 -0.9846
 6446TIP3    H240754   1.155   4.194  15.641 -0.5720 -0.6415 -0.3629
 6447TIP3   OH240755   5.586   3.827  11.827  0.0578  0.1111  0.2104
 6447TIP3    H140756   5.634   3.906  11.802  1.6634 -0.7805  0.4015
 6447TIP3    H240757   5.632   3.794  11.904 -1.8539  0.1078  1.3928
 6448TIP3   OH240758   4.171   4.509  11.237  0.1756 -0.2324  0.0850
 6448TIP3    H140759   4.183   4.553  11.153 -0.2236  0.6721  0.4988
 6448TIP3    H240760   4.221   4.427  11.229  1.8289  0.7997 -0.2733
 6449TIP3   OH240761   3.091   4.813   2.630 -0.5579  0.0106 -0.1550
 6449TIP3    H140762   3.056   4.827   2.542 -1.3701 -1.0242 -0.0090
 6449TIP3    H240763   3.018   4.776   2.680 -0.3856  1.4628  1.2158
 6450TIP3   OH240764   4.259   0.912   3.797 -0.3465  0.3837  0.1677
 6450TIP3    H140765   4.190   0.923   3.731 -0.7545 -3.1295 -0.1018
 6450TIP3    H240766   4.337   0.949   3.756 -1.3872  1.5867 -0.7838
 6451TIP3   OH240767   3.339   2.300   3.970  0.2480 -0.4456 -0.4394
 6451TIP3    H140768   3.245   2.287   3.954  0.0642 -0.0176  0.2844
 6451TIP3    H240769   3.382   2.240   3.908 -0.4853 -0.1518 -1.2417
 6452TIP3   OH240770   5.489   0.398   3.931  0.8542 -0.1608  0.2737
 6452TIP3    H140771   5.409   0.415   3.881 -0.5460 -0.8984  2.2068
 6452TIP3    H240772   5.536   0.335   3.877 -0.4836 -0.7081 -0.2998
 6453TIP3   OH240773   4.962   0.276  15.039 -0.0546  0.2768  0.0417
 6453TIP3    H140774   5.057   0.270  15.029 -0.0013  0.2116  0.6236
 6453TIP3    H240775   4.932   0.311  14.954  0.8539  4.1826  1.2175
 6454TIP3   OH240776   2.301   1.992   1.855 -0.2762 -0.3870  0.2043
 6454TIP3    H140777   2.320   1.964   1.766  0.4891  2.7336 -0.6785
 6454TIP3    H240778   2.343   1.927   1.911  1.2064 -1.1099 -1.7174
 6455TIP3   OH240779   2.447   4.582   6.523  0.3335 -0.0689  0.6125
 6455TIP3    H140780   2.495   4.550   6.446 -0.5999 -0.0011  0.0008
 6455TIP3    H240781   2.436   4.505   6.578  0.6359 -0.2058  0.4823
 6456TIP3   OH240782   1.424   5.472  12.155  0.1835  0.6534 -0.7666
 6456TIP3    H140783   1.459   5.404  12.097  0.6496  0.1607  0.0663
 6456TIP3    H240784   1.330   5.470  12.141 -0.2184 -2.6170  1.7772
 6457TIP3   OH240785   3.238   4.792   4.778 -0.1492  0.0677 -0.0960
 6457TIP3    H140786   3.269   4.876   4.812 -0.6748  0.2423 -0.0512
 6457TIP3    H240787   3.152   4.780   4.817  0.3360 -0.9512  0.6609
 6458TIP3   OH240788   5.177   6.416  13.578  0.1041  0.2456  0.2394
 6458TIP3    H140789   5.089   6.452  13.577  0.6059  1.4890 -0.3992
 6458TIP3    H240790   5.168   6.327  13.544 -1.2586 -0.5153  2.5135
 6459TIP3   OH240791   0.051   4.698   4.562 -0.3905 -0.0858 -0.0473
 6459TIP3    H140792   0.143   4.673   4.569 -0.6139 -0.6519  0.9780
 6459TIP3    H240793   0.003   4.627   4.607 -1.3304  0.1421 -0.6663
 6460TIP3   OH240794   1.974   6.297  13.913 -0.2962 -0.3835  0.4357
 6460TIP3    H140795   2.007   6.276  14.000  0.2293  0.4446  0.4415
 6460TIP3    H240796   1.896   6.350  13.928  1.5656  2.5052  0.4354
 6461TIP3   OH240797   0.527   4.865  16.127 -0.3307 -0.5744  0.2655
 6461TIP3    H140798   0.456   4.802  16.140 -0.1328 -0.9820 -0.5446
 6461TIP3    H240799   0.527   4.882  16.033  0.3109 -0.1873  0.3300
 6462TIP3   OH240800   3.883   3.671   5.849  0.0563 -0.4911  0.6246
 6462TIP3    H140801   3.812   3.622   5.890  1.0721 -0.5898  2.3099
 6462TIP3    H240802   3.927   3.608   5.793 -0.3201 -0.7907  0.6672
 6463TIP3   OH240803   0.644   1.795  16.597 -0.3420  0.0585  0.7344
 6463TIP3    H140804   0.550   1.778  16.585 -0.4416 -0.5685  2.3222
 6463TIP3    H240805   0.676   1.719  16.646  0.8110  0.7003  0.9894
 6464TIP3   OH240806   4.021   3.489   4.214  0.3060 -0.1040 -0.1780
 6464TIP3    H140807   4.020   3.565   4.273 -1.7519  0.4723 -0.9091
 6464TIP3    H240808   4.042   3.415   4.270 -0.6493  0.5783  1.1228
 6465TIP3   OH240809   5.036   2.265   5.633 -0.2016  0.7628 -0.1811
 6465TIP3    H140810   4.975   2.205   5.676  0.0893  0.3196 -0.3728
 6465TIP3    H240811   5.035   2.237   5.541 -0.5888  1.5062 -0.4030
 6466TIP3   OH240812   4.641   3.686   1.842 -0.1925 -0.2847  0.0982
 6466TIP3    H140813   4.627   3.679   1.936  0.9951 -2.1480  0.1525
 6466TIP3    H240814   4.592   3.764   1.816 -1.1534 -0.2002  2.1241
 6467TIP3   OH240815   1.135   4.839   1.521 -0.0122 -0.5621 -0.3339
 6467TIP3    H140816   1.121   4.865   1.430  0.9533  0.4804 -0.1829
 6467TIP3    H240817   1.219   4.877   1.545  0.2652 -1.7608  0.6605
 6468TIP3   OH240818   6.523   4.496   0.929  0.2006 -0.1737  0.7523
 6468TIP3    H140819   6.526   4.546   1.010 -2.0410 -3.0692  2.7128
 6468TIP3    H240820   6.575   4.418   0.946 -1.4268 -1.4798 -0.0961
 6469TIP3   OH240821   4.746   0.907  16.796  0.0113 -0.0036 -0.4929
 6469TIP3    H140822   4.795   0.915  16.878  0.1876 -0.7166 -0.5281
 6469TIP3    H240823   4.808   0.933  16.728 -0.3844  1.3949 -0.3407
 6470TIP3   OH240824   1.339   6.256  13.534 -0.7574  0.2066 -0.3483
 6470TIP3    H140825   1.360   6.167  13.508  0.6752  0.7157 -0.9880
 6470TIP3    H240826   1.394   6.273  13.610 -2.3419 -0.0510  0.8861
 6471TIP3   OH240827   0.077   3.692  15.707  0.4277  0.2711 -0.0492
 6471TIP3    H140828   0.129   3.660  15.633 -0.2238  0.0078 -0.3961
 6471TIP3    H240829   0.122   3.659  15.785  0.3638 -0.5825 -0.3749
 6472TIP3   OH240830   4.817   2.878   2.440  0.2883 -0.7315  0.7285
 6472TIP3    H140831   4.764   2.802   2.461  2.4627 -1.5031  3.8817
 6472TIP3    H240832   4.862   2.855   2.359  0.9647 -2.8790  1.6783
 6473TIP3   OH240833   0.547   6.046   1.885 -0.0739 -0.6374 -0.6299
 6473TIP3    H140834   0.462   6.089   1.871  0.1392  0.1534  0.4623
 6473TIP3    H240835   0.604   6.116   1.917  0.1586 -1.7947  1.5956
 6474TIP3   OH240836   1.103   6.258  11.667  0.0080  0.0561  0.1237
 6474TIP3    H140837   1.084   6.275  11.575  3.3446  0.6491 -0.5096
 6474TIP3    H240838   1.100   6.344  11.708  0.4120  0.0322  0.1990
 6475TIP3   OH240839   1.124   2.622  16.847 -0.3657  0.9331  0.5735
 6475TIP3    H140840   1.062   2.647  16.778 -1.3367  0.5756  1.3111
 6475TIP3    H240841   1.082   2.549  16.892 -0.1074  1.6950  2.0623
 6476TIP3   OH240842   0.879   5.523   3.737  0.1068  0.1175  0.5127
 6476TIP3    H140843   0.960   5.521   3.788  0.5111 -0.1084 -0.1293
 6476TIP3    H240844   0.890   5.455   3.671 -0.1415  0.8190 -0.2676
 6477TIP3   OH240845   0.616   3.407  10.897 -0.1134  0.0428  0.0567
 6477TIP3    H140846   0.586   3.323  10.863 -1.2682 -1.1932  3.8380
 6477TIP3    H240847   0.568   3.472  10.847 -2.0003 -1.6766 -0.4090
 6478TIP3   OH240848   2.936   1.312  11.635 -0.2814  0.0016 -0.0579
 6478TIP3    H140849   2.901   1.254  11.568 -1.7415 -0.1377  0.7937
 6478TIP3    H240850   2.907   1.400  11.608  0.6303  0.1573 -0.5380
 6479TIP3   OH240851   0.521   5.504   0.585  0.6800  0.1587  0.2119
 6479TIP3    H140852   0.498   5.412   0.580  0.8856  0.0676  0.9551
 6479TIP3    H240853   0.482   5.543   0.507  2.4106 -0.9533 -1.2540
 6480TIP3   OH240854   5.686   4.955   2.766 -0.7219 -0.5838  0.0801
 6480TIP3    H140855   5.748   5.008   2.717  0.0174 -0.8810  0.6809
 6480TIP3    H240856   5.635   5.018   2.817  0.4429 -0.4743  1.1235
 6481TIP3   OH240857   5.334   5.914   3.517  0.2578  0.2074  0.4654
 6481TIP3    H140858   5.352   5.820   3.518  0.5604  0.2597  0.1244
 6481TIP3    H240859   5.366   5.944   3.432  0.2451  0.6380  0.6081
 6482TIP3   OH240860   2.844   6.307   0.322  0.5493 -0.3095 -0.1171
 6482TIP3    H140861   2.928   6.353   0.313  0.2883  0.4005  0.9417
 6482TIP3    H240862   2.865   6.226   0.367  0.6953 -0.2076 -0.0014
 6483TIP3   OH240863   1.679   4.861   1.309 -0.4888 -0.0915 -0.3462
 6483TIP3    H140864   1.698   4.768   1.301 -1.2785 -0.2614 -0.2346
 6483TIP3    H240865   1.712   4.899   1.227 -0.3594 -0.4925 -0.4820
 6484TIP3   OH240866   4.127   2.880  11.821 -0.1767  0.2183 -0.7805
 6484TIP3    H140867   4.189   2.952  11.807 -0.5758  0.5086 -1.0541
 6484TIP3    H240868   4.041   2.922  11.823 -0.3788 -0.2046 -0.5629
 6485TIP3   OH240869   4.416   6.231  16.208 -0.2193 -0.0433  0.2342
 6485TIP3    H140870   4.436   6.160  16.147  0.8216  1.0980 -0.7929
 6485TIP3    H240871   4.328   6.212  16.239 -0.3258 -1.2590 -0.7720
 6486TIP3   OH240872   4.169   3.064  16.525 -0.0885 -0.6688 -0.1563
 6486TIP3    H140873   4.147   3.011  16.602  1.2562 -2.0747 -0.6971
 6486TIP3    H240874   4.238   3.123  16.555  0.1652 -0.9519 -0.1815
 6487TIP3   OH240875   0.683   5.434  13.070 -0.1224  0.4074  0.8442
 6487TIP3    H140876   0.644   5.504  13.018 -3.0686 -0.4677  1.7966
 6487TIP3    H240877   0.649   5.448  13.159  0.8721 -1.0389  1.4743
 6488TIP3   OH240878   2.088   4.464  13.545  0.3349 -0.4019  0.5294
 6488TIP3    H140879   1.997   4.445  13.568  0.6906  0.7824  3.1166
 6488TIP3    H240880   2.083   4.496  13.454 -2.0129  0.9555  1.0777
 6489TIP3   OH240881   2.508   4.544  15.680 -0.1424  0.2159  0.1658
 6489TIP3    H140882   2.503   4.475  15.613 -0.8027  0.7713 -0.3679
 6489TIP3    H240883   2.471   4.621  15.637 -0.5699  0.5747  1.1770
 6490TIP3   OH240884   0.772   3.952  12.975 -0.3260 -0.1705  0.4645
 6490TIP3    H140885   0.765   3.935  13.069  1.7289 -1.4661  0.4242
 6490TIP3    H240886   0.810   4.040  12.969  1.6036 -0.9568  0.8989
 6491TIP3   OH240887   5.524   4.566  17.216  0.2554  0.3715 -0.2171
 6491TIP3    H140888   5.446   4.510  17.209  0.5906 -0.0137 -0.8354
 6491TIP3    H240889   5.522   4.598  17.306 -0.0726 -0.4432  0.0685
 6492TIP3   OH240890   5.976   5.434  11.618 -0.2562 -0.4565  0.3331
 6492TIP3    H140891   5.994   5.381  11.695 -0.1188  0.5471  0.9897
 6492TIP3    H240892   5.899   5.485  11.641 -1.3307 -1.4670 -0.8571
 6493TIP3   OH240893   0.865   3.300   4.591  0.0300 -0.2361  0.0119
 6493TIP3    H140894   0.861   3.253   4.508 -2.1749 -0.9076  0.4653
 6493TIP3    H240895   0.832   3.238   4.656  0.2006  0.8198  1.1363
 6494TIP3   OH240896   5.559   2.576   3.034 -0.3683 -0.0683 -0.0495
 6494TIP3    H140897   5.603   2.656   3.063  1.3127 -1.2999  0.9070
 6494TIP3    H240898   5.605   2.551   2.954  0.5898 -1.2255  0.8211
 6495TIP3   OH240899   2.419   0.163   5.727  0.6727  0.1029 -0.3642
 6495TIP3    H140900   2.456   0.115   5.653 -1.3283 -2.2780  0.1126
 6495TIP3    H240901   2.327   0.137   5.729  0.3974  1.1468  2.1589
 6496TIP3   OH240902   2.918   2.230   1.647 -0.4353  0.3538 -0.3304
 6496TIP3    H140903   2.911   2.206   1.554 -0.7958 -0.5605 -0.0748
 6496TIP3    H240904   2.842   2.287   1.662 -1.8157 -1.5388  0.0106
 6497TIP3   OH240905   2.693   0.497  16.800 -0.2844  0.3512  0.0578
 6497TIP3    H140906   2.660   0.480  16.888 -0.4332 -0.5220 -0.1617
 6497TIP3    H240907   2.614   0.502  16.746 -0.0822 -2.0185 -0.5166
 6498TIP3   OH240908   4.822   0.889  11.893 -0.1130  0.4812  0.4903
 6498TIP3    H140909   4.781   0.892  11.979  0.9520 -1.3385  1.0879
 6498TIP3    H240910   4.759   0.842  11.838 -1.1672  2.3817  0.0405
 6499TIP3   OH240911   4.720   2.480   0.432 -0.0345 -0.6303  0.3091
 6499TIP3    H140912   4.641   2.470   0.378 -0.1592  0.8810  0.1747
 6499TIP3    H240913   4.781   2.529   0.377 -0.2409  1.1291  1.5735
 6500TIP3   OH240914   6.724   6.530   1.771 -0.7603 -0.6227 -0.4837
 6500TIP3    H140915   6.710   6.620   1.741 -0.8928 -0.2278  0.7438
 6500TIP3    H240916   6.780   6.539   1.848 -1.2253 -1.5511 -0.0307
 6501TIP3   OH240917   1.100   6.371   6.715  0.3490 -0.1101 -0.6432
 6501TIP3    H140918   1.049   6.366   6.634  1.2218 -0.3974 -1.1817
 6501TIP3    H240919   1.154   6.450   6.704 -0.0840  0.2799 -0.0091
 6502TIP3   OH240920   0.807   1.486   2.838  0.5150 -0.1058  0.3793
 6502TIP3    H140921   0.884   1.492   2.895  1.3183 -1.0978 -0.5629
 6502TIP3    H240922   0.844   1.485   2.749 -0.6028 -0.3797 -0.0827
 6503TIP3   OH240923   1.394   1.584  16.838  0.2989 -0.1595  0.3269
 6503TIP3    H140924   1.382   1.603  16.931 -0.5792 -1.2704  0.4509
 6503TIP3    H240925   1.396   1.671  16.796  0.2035  0.3259  1.3109
 6504TIP3   OH240926   4.622   3.016  11.408  0.3680 -0.0952  0.0576
 6504TIP3    H140927   4.584   3.050  11.327 -1.8203 -1.0873  0.6139
 6504TIP3    H240928   4.686   3.082  11.435  0.0557  0.9478 -1.6970
 6505TIP3   OH240929   3.409   3.580  16.213 -0.5937 -0.4305  0.0588
 6505TIP3    H140930   3.343   3.632  16.168 -0.0624 -0.0440 -0.2829
 6505TIP3    H240931   3.405   3.494  16.170 -0.6278 -0.3011 -0.2002
 6506TIP3   OH240932   6.569   1.866   4.326 -0.7312  0.0467 -0.3058
 6506TIP3    H140933   6.491   1.920   4.332  0.1892  1.4336 -0.4977
 6506TIP3    H240934   6.549   1.801   4.258 -1.9901 -0.1054  0.2092
 6507TIP3   OH240935   1.518   2.933  11.200  0.9977 -0.1661 -0.2293
 6507TIP3    H140936   1.528   3.024  11.226  0.9699 -0.5792  1.3284
 6507TIP3    H240937   1.607   2.901  11.187  1.0866 -0.2725  0.5791
 6508TIP3   OH240938   0.685   6.640  16.329 -0.6829  0.0714  0.0603
 6508TIP3    H140939   0.753   6.615  16.392 -2.4614 -2.4749  1.0803
 6508TIP3    H240940   0.715   6.604  16.245  0.5537  1.4233 -0.0956
 6509TIP3   OH240941   5.016   0.360   2.686  0.2610 -0.0761 -0.2445
 6509TIP3    H140942   5.107   0.371   2.659 -0.4136  2.8393 -1.5071
 6509TIP3    H240943   4.966   0.370   2.606 -1.2460 -0.9569  0.5593
 6510TIP3   OH240944   3.185   4.059  13.036  0.4221 -0.5978 -0.3659
 6510TIP3    H140945   3.197   4.071  12.942  1.4502  0.6053 -0.0946
 6510TIP3    H240946   3.141   3.975  13.044  0.5576 -0.8304 -1.9104
 6511TIP3   OH240947   0.739   3.661   0.403 -0.0697 -0.7751  0.0158
 6511TIP3    H140948   0.822   3.628   0.367  1.0002  2.9567 -1.2038
 6511TIP3    H240949   0.766   3.719   0.473 -1.5669  1.4541 -1.2211
 6512TIP3   OH240950   0.663   5.504  12.591 -0.1409  0.6417  0.2582
 6512TIP3    H140951   0.605   5.513  12.515 -1.0746  1.7234  1.0733
 6512TIP3    H240952   0.610   5.456  12.656  0.8204 -0.7038  0.0568
 6513TIP3   OH240953   0.917   4.398  15.866 -0.3157  0.1069  0.4831
 6513TIP3    H140954   0.847   4.333  15.858  0.4637 -0.6514 -0.2887
 6513TIP3    H240955   0.980   4.374  15.798  0.4045  1.1517  0.7656
 6514TIP3   OH240956   5.059   5.405  14.209 -0.4051  0.0258 -0.2838
 6514TIP3    H140957   5.051   5.397  14.114  1.0112  0.9144 -0.4855
 6514TIP3    H240958   5.039   5.497  14.227 -3.5439 -0.7692  0.6028
 6515TIP3   OH240959   3.346   4.794   5.458 -0.5089 -1.0167 -0.0499
 6515TIP3    H140960   3.428   4.751   5.436 -0.1157 -1.6425  2.4445
 6515TIP3    H240961   3.369   4.887   5.463  0.0190 -1.1605  0.3593
 6516TIP3   OH240962   1.838   2.558   1.120  0.1389  0.4473 -0.4234
 6516TIP3    H140963   1.803   2.601   1.198  2.9028  0.2351  1.0074
 6516TIP3    H240964   1.761   2.523   1.075 -1.5136  0.4404  2.2902
 6517TIP3   OH240965   1.989   2.270   0.089 -0.4596  0.2665 -0.1781
 6517TIP3    H140966   1.973   2.177   0.105  2.9524 -0.2184  0.8577
 6517TIP3    H240967   2.041   2.299   0.164  0.2804  2.5016 -1.4996
 6518TIP3   OH240968   4.118   3.238   0.946  0.0899  0.7391  0.0203
 6518TIP3    H140969   4.159   3.266   0.863  0.8395  1.7704  0.7217
 6518TIP3    H240970   4.106   3.320   0.995 -0.9744  0.2078  0.6540
 6519TIP3   OH240971   5.698   1.383  14.481  0.0459 -0.2020  0.0874
 6519TIP3    H140972   5.678   1.296  14.446  0.1009 -0.1854  0.0161
 6519TIP3    H240973   5.615   1.430  14.475  0.4414  0.3220 -1.4952
 6520TIP3   OH240974   2.163   6.411  13.776  0.1162 -0.1752  0.0793
 6520TIP3    H140975   2.162   6.463  13.856 -2.3065 -0.1065  0.0356
 6520TIP3    H240976   2.122   6.328  13.800 -0.4981 -0.2122 -1.0445
 6521TIP3   OH240977   5.277   3.472   6.339 -0.3261  0.3134 -0.1484
 6521TIP3    H140978   5.291   3.427   6.423 -1.7936  2.6806  1.4362
 6521TIP3    H240979   5.360   3.519   6.324 -0.4498  0.7752  0.5694
 6522TIP3   OH240980   3.160   3.737  13.580  0.5222  0.1436  0.2931
 6522TIP3    H140981   3.149   3.644  13.600  0.2393  0.1617  0.2205
 6522TIP3    H240982   3.253   3.754  13.595  0.1835  0.3200  2.2808
 6523TIP3   OH240983   5.560   4.225   1.388 -0.3875  0.1241  0.1017
 6523TIP3    H140984   5.533   4.313   1.417 -1.4566 -0.4888  1.0082
 6523TIP3    H240985   5.563   4.232   1.293  0.0236  1.2812  0.1816
 6524TIP3   OH240986   6.017   6.202  10.691  0.0429  0.2762 -0.3397
 6524TIP3    H140987   6.022   6.178  10.783  0.6199  3.4278  0.5058
 6524TIP3    H240988   5.990   6.294  10.692 -1.4138 -0.0533 -3.3639
 6525TIP3   OH240989   3.856   6.227  15.106  0.0314  0.1792 -0.2569
 6525TIP3    H140990   3.807   6.147  15.088  0.8925 -0.7859  1.5618
 6525TIP3    H240991   3.946   6.198  15.121  0.4001  1.4939  0.2158
 6526TIP3   OH240992   2.217   4.562   3.709 -0.2843  0.0775  0.2547
 6526TIP3    H140993   2.150   4.602   3.653 -0.6454  1.3076  1.5249
 6526TIP3    H240994   2.206   4.606   3.794  1.1978 -0.7296  0.8786
 6527TIP3   OH240995   6.315   3.776   1.575 -0.6128 -0.1136  0.2212
 6527TIP3    H140996   6.355   3.715   1.638 -1.5888 -0.4347  0.5388
 6527TIP3    H240997   6.389   3.825   1.539  0.1302 -1.1191  0.3539
 6528TIP3   OH240998   5.031   0.477   5.374  0.8184  0.2320 -0.9542
 6528TIP3    H140999   5.034   0.506   5.283  0.3811 -0.0449 -1.0575
 6528TIP3    H241000   5.057   0.385   5.371  0.5734  0.1575 -0.8292
 6529TIP3   OH241001   5.548   1.422   0.846 -0.3251  0.7811 -0.2111
 6529TIP3    H141002   5.631   1.457   0.813 -0.1252 -0.0092 -0.5571
 6529TIP3    H241003   5.573   1.351   0.905 -0.7615  0.3024 -0.6005
 6530TIP3   OH241004   3.813   1.174   5.558  0.2335 -0.3153 -0.3674
 6530TIP3    H141005   3.730   1.186   5.606  0.2738  1.2514 -0.6777
 6530TIP3    H241006   3.787   1.158   5.468  0.1771 -2.8356  0.0364
 6531TIP3   OH241007   1.225   0.798   2.545  0.5522 -0.2939  0.2194
 6531TIP3    H141008   1.261   0.798   2.456  1.4900 -0.1093  0.6021
 6531TIP3    H241009   1.289   0.846   2.597 -0.1208 -0.1869  0.9515
 6532TIP3   OH241010   4.411   1.392  11.921 -0.6104  0.2690  0.2347
 6532TIP3    H141011   4.450   1.317  11.878 -1.9739 -0.2951 -0.0491
 6532TIP3    H241012   4.455   1.468  11.882 -0.4647 -0.3094 -0.7405
 6533TIP3   OH241013   0.672   5.334   2.693  0.5380  0.6621  0.0155
 6533TIP3    H141014   0.745   5.352   2.752  0.8721  0.6612 -0.3955
 6533TIP3    H241015   0.659   5.415   2.645  1.0452  0.2910 -0.7541
 6534TIP3   OH241016   2.911   1.518  13.947  0.2685 -0.2040 -0.4595
 6534TIP3    H141017   2.863   1.438  13.929  0.8399 -0.3595 -1.3167
 6534TIP3    H241018   2.914   1.564  13.863  1.1712  0.0472 -0.2941
 6535TIP3   OH241019   5.599   1.319  16.849  0.8747  0.3604  0.0500
 6535TIP3    H141020   5.516   1.360  16.872  0.3942 -0.4695 -0.1561
 6535TIP3    H241021   5.649   1.387  16.804 -0.4415  0.3408 -1.4940
 6536TIP3   OH241022   3.749   5.385  15.446 -0.2399 -0.7002 -0.1834
 6536TIP3    H141023   3.681   5.393  15.513 -0.3395  0.2621 -0.3935
 6536TIP3    H241024   3.785   5.297  15.459 -0.6497 -0.7357  0.7593
 6537TIP3   OH241025   1.897   6.599  16.392  0.0727  0.4367 -0.3366
 6537TIP3    H141026   1.968   6.552  16.347 -0.6364 -1.7612  0.7433
 6537TIP3    H241027   1.841   6.529  16.427 -0.8577  2.1061  1.6182
 6538TIP3   OH241028   4.487   6.009   2.130  0.2956 -0.5606 -0.3702
 6538TIP3    H141029   4.462   6.082   2.072  2.2354  1.0239  0.6989
 6538TIP3    H241030   4.564   5.971   2.086  1.2518  0.1125  0.6808
 6539TIP3   OH241031   4.324   4.594   1.921 -0.2915 -0.5410  0.0214
 6539TIP3    H141032   4.273   4.658   1.971 -0.8964  0.3865 -1.7610
 6539TIP3    H241033   4.366   4.540   1.988 -0.9716  0.7692  1.5400
 6540TIP3   OH241034   4.937   4.286  11.652  0.5624 -0.5195 -0.1447
 6540TIP3    H141035   4.911   4.346  11.722  1.7483 -1.4322  1.1210
 6540TIP3    H241036   4.857   4.238  11.630 -0.2251  1.0072 -0.6690
 6541TIP3   OH241037   1.249   2.577   6.271  0.4090  0.2715 -0.1877
 6541TIP3    H141038   1.300   2.519   6.215 -1.4402 -1.9073  0.2680
 6541TIP3    H241039   1.257   2.538   6.358  0.1517  1.4415  0.3692
 6542TIP3   OH241040   0.221   6.618   4.191  0.0982  0.1647 -0.0928
 6542TIP3    H141041   0.316   6.624   4.175  0.2868  0.3047  1.0229
 6542TIP3    H241042   0.182   6.615   4.104  0.9494  2.9107 -0.6276
 6543TIP3   OH241043   3.570   5.598  10.561 -0.5389  0.5215 -0.5603
 6543TIP3    H141044   3.579   5.693  10.564 -0.9387  0.5218  0.5635
 6543TIP3    H241045   3.632   5.566  10.626 -0.8130  0.0327 -0.5436
 6544TIP3   OH241046   3.019   5.953   2.887 -0.0887 -0.1026 -0.3474
 6544TIP3    H141047   3.026   5.873   2.835  1.2047 -0.9551  1.1130
 6544TIP3    H241048   2.926   5.961   2.906 -0.6310  0.3357 -2.9265
 6545TIP3   OH241049   2.128   1.723   2.072 -0.6645 -0.4589 -0.2336
 6545TIP3    H141050   2.165   1.666   2.004 -0.1927 -0.3669 -0.0594
 6545TIP3    H241051   2.076   1.787   2.024 -0.4021 -0.4464 -0.5070
 6546TIP3   OH241052   6.773   6.276  14.490  0.1254 -0.3795  0.6821
 6546TIP3    H141053   6.815   6.268  14.405 -1.3367  1.0831 -0.1954
 6546TIP3    H241054   6.751   6.186  14.514 -0.2264 -0.7257 -0.8883
 6547TIP3   OH241055   5.103   3.962  17.076 -0.7743  0.1064  0.7849
 6547TIP3    H141056   5.012   3.983  17.095 -1.1363  0.1124 -0.8348
 6547TIP3    H241057   5.104   3.868  17.060 -0.5452  0.1384  0.5954
 6548TIP3   OH241058   6.407   0.777  13.196  0.0715  0.8957  0.3660
 6548TIP3    H141059   6.355   0.748  13.270  1.3538 -0.5192  0.7434
 6548TIP3    H241060   6.377   0.724  13.122  1.6487 -0.6662  0.8107
 6549TIP3   OH241061   6.622   5.949   5.412 -0.3638  0.2493  0.1084
 6549TIP3    H141062   6.582   6.036   5.410 -0.0723  0.3998  0.7576
 6549TIP3    H241063   6.659   5.941   5.500  1.9649  0.5598 -0.8010
 6550TIP3   OH241064   5.505   0.429  16.963 -0.0289 -0.0234 -0.2516
 6550TIP3    H141065   5.509   0.410  17.057 -0.9788 -2.2065 -0.6252
 6550TIP3    H241066   5.417   0.466  16.950 -0.5791 -1.3937 -0.5434
 6551TIP3   OH241067   1.173   0.624   1.867  0.7869 -0.6431 -0.0311
 6551TIP3    H141068   1.159   0.535   1.898  1.6614 -0.2680  1.5050
 6551TIP3    H241069   1.205   0.672   1.944  0.8568  0.8602 -0.9663
 6552TIP3   OH241070   6.104   6.415  11.882 -0.3607 -0.2266  0.3354
 6552TIP3    H141071   6.070   6.349  11.941 -1.8747  1.0272  0.8972
 6552TIP3    H241072   6.144   6.481  11.939 -0.9331  0.4848 -0.0625
 6553TIP3   OH241073   1.066   0.175   2.907 -0.2846  0.6636  0.4694
 6553TIP3    H141074   1.054   0.081   2.896  1.2939  0.4816  0.2143
 6553TIP3    H241075   1.022   0.214   2.831  0.6175  0.0211 -0.4049
 6554TIP3   OH241076   5.274   0.912   1.845 -0.1719  0.1709 -0.3285
 6554TIP3    H141077   5.337   0.901   1.917  0.3125  1.5213 -0.5322
 6554TIP3    H241078   5.221   0.832   1.847  1.9453 -1.2574 -0.5546
 6555TIP3   OH241079   1.271   1.311  12.916  1.1241  0.1275  0.0648
 6555TIP3    H141080   1.283   1.232  12.863  1.4307 -0.4463  0.9755
 6555TIP3    H241081   1.360   1.343  12.931  0.9449  1.2199 -1.1509
 6556TIP3   OH241082   0.819   5.808   5.217 -0.6567 -0.2847 -0.2122
 6556TIP3    H141083   0.894   5.862   5.245  0.8867 -0.9769 -2.8297
 6556TIP3    H241084   0.852   5.760   5.141 -3.6186 -1.0693 -1.0376
 6557TIP3   OH241085   2.571   1.388  17.193 -0.4317  0.1875 -0.6550
 6557TIP3    H141086   2.524   1.445  17.254 -0.1437 -1.6442  1.3685
 6557TIP3    H241087   2.533   1.407  17.107 -1.9967  1.6497  0.3381
 6558TIP3   OH241088   2.239   2.935   2.932  0.3206 -0.7842  0.3312
 6558TIP3    H141089   2.192   2.854   2.951  2.5363 -2.4350 -0.9962
 6558TIP3    H241090   2.317   2.932   2.987  1.4968 -0.6149 -1.2866
 6559TIP3   OH241091   1.710   3.906  17.190  0.4161  0.4820 -0.2220
 6559TIP3    H141092   1.736   3.814  17.187  0.6525  0.5609 -0.6046
 6559TIP3    H241093   1.641   3.909  17.257  0.2679 -0.0015 -0.3504
 6560TIP3   OH241094   0.142   0.272  15.020  0.4171  0.1522 -0.2798
 6560TIP3    H141095   0.103   0.352  14.984 -1.5169 -1.5207 -2.0429
 6560TIP3    H241096   0.090   0.253  15.098 -0.2556 -0.2814 -0.8171
 6561TIP3   OH241097   3.391   6.351   1.588  0.0365 -0.4885 -0.4708
 6561TIP3    H141098   3.476   6.335   1.547  0.8877  0.6579  0.7718
 6561TIP3    H241099   3.329   6.356   1.515  1.7050  2.7131 -1.7991
 6562TIP3   OH241100   1.689   6.314   5.194 -0.0708 -0.0862 -0.2134
 6562TIP3    H141101   1.726   6.380   5.135 -0.6919 -1.1720 -1.8326
 6562TIP3    H241102   1.727   6.336   5.279  1.3486  1.1222 -1.1146
 6563TIP3   OH241103   3.135   2.514   2.531  0.5821  0.6506 -0.5640
 6563TIP3    H141104   3.062   2.453   2.528  0.7409  0.4619 -0.6258
 6563TIP3    H241105   3.098   2.594   2.568  0.3017  0.6166 -0.7695
 6564TIP3   OH241106   0.569   6.440  15.742 -0.0088 -0.4811  0.7045
 6564TIP3    H141107   0.601   6.491  15.668 -1.0377  1.5369  1.6113
 6564TIP3    H241108   0.486   6.403  15.711 -1.0918  1.4288  1.2452
 6565TIP3   OH241109   0.466   1.353  13.266 -0.2028  0.1913 -0.1685
 6565TIP3    H141110   0.484   1.443  13.239  3.7078 -0.3536  0.4453
 6565TIP3    H241111   0.462   1.356  13.361 -0.2806 -0.2518 -0.1558
 6566TIP3   OH241112   1.053   1.906   1.381 -0.5761  0.1442  0.4205
 6566TIP3    H141113   1.073   1.863   1.298  0.8972  0.0659  0.8010
 6566TIP3    H241114   0.999   1.843   1.429  0.6252 -0.8276  0.5170
 6567TIP3   OH241115   0.109   1.505  14.549 -0.2302  0.5987  0.3285
 6567TIP3    H141116   0.181   1.544  14.599 -1.9033  3.1386  0.8580
 6567TIP3    H241117   0.120   1.539  14.460 -0.4344  0.5131  0.2700
 6568TIP3   OH241118   0.161   2.902   4.081  0.0125 -0.0966  0.0798
 6568TIP3    H141119   0.182   2.813   4.053 -0.5978  0.0411 -0.8629
 6568TIP3    H241120   0.065   2.903   4.086  0.1027  0.0017  1.8026
 6569TIP3   OH241121   4.658   2.258  12.717 -0.1265 -0.5073  0.0047
 6569TIP3    H141122   4.657   2.351  12.697  0.5192 -0.0286  2.0812
 6569TIP3    H241123   4.692   2.217  12.637 -1.0421  0.9491 -1.1673
 6570TIP3   OH241124   3.592   4.881  13.715 -0.4706  0.4711 -0.0055
 6570TIP3    H141125   3.504   4.887  13.677 -0.3143  0.2049 -0.4153
 6570TIP3    H241126   3.584   4.921  13.801 -0.8517  1.0094 -0.2870
 6571TIP3   OH241127   1.977   4.353   4.815 -1.0628  0.0429  0.2124
 6571TIP3    H141128   1.967   4.444   4.786  0.1189 -0.0864 -0.6757
 6571TIP3    H241129   1.892   4.313   4.800 -1.1620  0.6212 -0.8319
 6572TIP3   OH241130   1.007   5.703   4.386  0.0956  0.7020 -0.5015
 6572TIP3    H141131   0.978   5.761   4.315  1.7248  1.4579 -0.5705
 6572TIP3    H241132   0.993   5.755   4.465  0.7322  0.8640 -0.4920
 6573TIP3   OH241133   5.824   0.592   2.613  0.7146  0.3020 -0.6138
 6573TIP3    H141134   5.770   0.608   2.690  2.3054  0.3536  0.5289
 6573TIP3    H241135   5.914   0.605   2.644  1.3997  0.0375 -2.4097
 6574TIP3   OH241136   4.765   6.498   5.468 -0.2898  0.4016  0.3873
 6574TIP3    H141137   4.684   6.488   5.518  0.0718  0.2125  0.9499
 6574TIP3    H241138   4.767   6.421   5.411 -1.0338  0.9598 -0.4076
 6575TIP3   OH241139   6.104   4.118   3.087 -0.3185  0.1550 -0.2650
 6575TIP3    H141140   6.197   4.094   3.088 -0.2353  0.5142  1.1423
 6575TIP3    H241141   6.101   4.202   3.042  0.2655  1.0388  1.3252
 6576TIP3   OH241142   1.071   5.156   3.779 -0.5622  0.2847  0.0996
 6576TIP3    H141143   1.010   5.171   3.852  1.0676  0.4656  1.4648
 6576TIP3    H241144   1.030   5.198   3.704 -1.3645  1.8190  1.3683
 6577TIP3   OH241145   5.073   3.140   4.888 -0.4906 -0.2196  0.3634
 6577TIP3    H141146   5.060   3.054   4.846 -2.1067 -0.6910  1.7799
 6577TIP3    H241147   4.998   3.149   4.946  1.3986  0.6988  2.7182
 6578TIP3   OH241148   5.084   0.674   5.517 -0.4500  0.1796 -0.7229
 6578TIP3    H141149   5.007   0.701   5.567  0.1199  0.9604 -0.2667
 6578TIP3    H241150   5.054   0.598   5.466 -0.8940 -0.9946  1.2279
 6579TIP3   OH241151   5.429   1.618  13.104  0.0516  0.5497 -0.5036
 6579TIP3    H141152   5.349   1.638  13.153 -0.4656 -0.5910 -0.8683
 6579TIP3    H241153   5.491   1.586  13.170  0.5899  2.4463 -0.0518
 6580TIP3   OH241154   6.725   4.008   3.012  0.3120 -0.1289 -0.2221
 6580TIP3    H141155   6.730   3.935   2.950  0.0867  0.2269 -0.6599
 6580TIP3    H241156   6.632   4.014   3.034  0.2538  0.3698 -0.6002
 6581TIP3   OH241157   5.487   4.350   1.142 -0.3384  0.2987 -0.5052
 6581TIP3    H141158   5.444   4.290   1.081 -0.5786  0.2670 -0.3046
 6581TIP3    H241159   5.503   4.429   1.090 -0.8476  0.3940 -0.5191
 6582TIP3   OH241160   4.562   3.409   1.131 -1.0475  0.8297 -0.1238
 6582TIP3    H141161   4.466   3.405   1.132 -0.9712 -2.8348  1.8392
 6582TIP3    H241162   4.588   3.347   1.063 -0.0754  0.2039  0.7969
 6583TIP3   OH241163   3.385   6.276   5.695 -0.3171 -0.9172 -0.2315
 6583TIP3    H141164   3.379   6.364   5.658  2.3521  0.0275  1.4632
 6583TIP3    H241165   3.339   6.282   5.779 -0.0797 -1.1275 -0.0874
 6584TIP3   OH241166   3.520   1.916   2.502 -0.1521 -0.3735 -1.3598
 6584TIP3    H141167   3.440   1.870   2.476 -0.0545  0.3380 -2.9353
 6584TIP3    H241168   3.573   1.848   2.544 -1.1985 -1.0558 -1.1111
 6585TIP3   OH241169   6.516   3.945   0.269  0.4501 -0.4158 -0.0393
 6585TIP3    H141170   6.502   3.913   0.180  1.4315 -0.3110 -0.2266
 6585TIP3    H241171   6.597   3.995   0.265 -0.3053  0.8911  0.5821
 6586TIP3   OH241172   2.636   5.526   3.380  0.1628  0.2933  0.1411
 6586TIP3    H141173   2.575   5.535   3.307  0.1872 -0.5243  0.0162
 6586TIP3    H241174   2.720   5.505   3.340  0.1713 -0.1887  0.4025
 6587TIP3   OH241175   6.692   1.560   4.348 -0.4711 -0.1441 -0.1227
 6587TIP3    H141176   6.668   1.587   4.260  0.6499  2.3168  0.2580
 6587TIP3    H241177   6.626   1.600   4.405 -1.0531 -1.5169  0.1801
 6588TIP3   OH241178   1.406   0.930   0.003 -0.4548  0.2386  0.3395
 6588TIP3    H141179   1.431   1.005  -0.050  1.0755  1.2584  2.4122
 6588TIP3    H241180   1.329   0.958   0.051 -0.5131  0.1118  0.3210
 6589TIP3   OH241181   2.115   0.222   6.227 -0.3667  1.0758 -0.6786
 6589TIP3    H141182   2.047   0.277   6.266 -2.3847 -2.1104  0.4940
 6589TIP3    H241183   2.185   0.218   6.293 -0.7193  1.3310 -0.2892
 6590TIP3   OH241184   0.066   6.096  15.154 -0.2106  0.3433  0.5417
 6590TIP3    H141185   0.021   6.161  15.100  0.9146 -0.2992 -1.2009
 6590TIP3    H241186   0.115   6.147  15.218  1.4534  1.2853 -1.4295
 6591TIP3   OH241187   1.513   3.290  12.771  0.5374 -0.3443  0.6862
 6591TIP3    H141188   1.538   3.379  12.795 -0.4253  0.0232  0.3460
 6591TIP3    H241189   1.596   3.245  12.756  1.0457  0.2655  1.6770
 6592TIP3   OH241190   2.230   2.403   0.386 -0.0903  0.3119 -0.6264
 6592TIP3    H141191   2.308   2.450   0.415 -1.0290  0.7526  1.2422
 6592TIP3    H241192   2.264   2.330   0.335  1.6187 -0.0824  1.0168
 6593TIP3   OH241193   1.519   5.670   4.620  0.0938 -0.1356 -0.7955
 6593TIP3    H141194   1.461   5.622   4.679  0.3313  0.0422 -0.4170
 6593TIP3    H241195   1.465   5.690   4.544 -0.3833  0.1664 -0.3774
 6594TIP3   OH241196   3.312   6.193  11.976 -0.3743 -0.4211 -0.1144
 6594TIP3    H141197   3.220   6.195  11.947 -0.3193  1.6527 -0.1850
 6594TIP3    H241198   3.359   6.242  11.909  0.7723 -1.3175  0.0279
 6595TIP3   OH241199   4.187   6.764   3.149  0.0361 -0.2466  0.2785
 6595TIP3    H141200   4.157   6.743   3.061 -0.2668  0.6912  0.1512
 6595TIP3    H241201   4.265   6.817   3.136  0.7893 -1.2833  0.5933
 6596TIP3   OH241202   3.105   1.395   2.605  0.2441 -0.0240 -0.0787
 6596TIP3    H141203   3.104   1.419   2.698 -0.8872 -1.3700  0.2559
 6596TIP3    H241204   3.183   1.440   2.570  0.1684  1.2302  1.3037
 6597TIP3   OH241205   5.359   6.427  15.318 -0.3166 -0.4842  0.2007
 6597TIP3    H141206   5.320   6.492  15.375  0.7924 -1.2254  1.8414
 6597TIP3    H241207   5.286   6.393  15.266 -1.1053  1.1318  0.2232
 6598TIP3   OH241208   5.369   2.592  16.652 -0.1020  0.1249  0.1714
 6598TIP3    H141209   5.442   2.624  16.704 -1.1938  3.7849 -0.4327
 6598TIP3    H241210   5.298   2.655  16.667 -1.7119 -0.8748 -2.6546
 6599TIP3   OH241211   4.715   0.831   1.418  0.2578 -0.0218  0.4650
 6599TIP3    H141212   4.786   0.874   1.370  0.7590 -0.2280  1.0170
 6599TIP3    H241213   4.667   0.903   1.458 -0.1179  0.1486 -0.2706
 6600TIP3   OH241214   6.239   2.892  11.047 -0.9482 -0.0088 -0.2882
 6600TIP3    H141215   6.158   2.847  11.021 -1.0761 -0.1132  0.2911
 6600TIP3    H241216   6.214   2.945  11.123 -0.2535 -0.8094  0.5160
 6601TIP3   OH241217   2.860   2.847  12.605  0.5031  0.7177  0.1220
 6601TIP3    H141218   2.896   2.761  12.586  0.4586  0.2529  1.9623
 6601TIP3    H241219   2.765   2.835  12.600  0.5143  0.8942 -0.5407
 6602TIP3   OH241220   2.192   2.815   0.772 -0.1161  0.2845 -0.3345
 6602TIP3    H141221   2.251   2.831   0.698  0.7411 -0.6497  0.1398
 6602TIP3    H241222   2.106   2.844   0.740 -0.2553 -2.3534 -2.6179
 6603TIP3   OH241223   5.107   4.044  14.384 -0.5252  0.0085 -0.4571
 6603TIP3    H141224   5.203   4.044  14.393 -0.7070 -0.5107  1.6590
 6603TIP3    H241225   5.091   3.991  14.306  0.8389 -1.6055  0.3218
 6604TIP3   OH241226   3.485   2.118  11.725  0.0428  0.3353 -0.2780
 6604TIP3    H141227   3.426   2.080  11.660  0.1292 -1.3033  0.5912
 6604TIP3    H241228   3.567   2.132  11.677 -1.0270  2.6783 -1.5007
 6605TIP3   OH241229   4.505   2.003   5.293  0.2609 -0.1178  0.9249
 6605TIP3    H141230   4.440   2.041   5.351  0.1200  1.5101 -0.2616
 6605TIP3    H241231   4.458   1.986   5.211  1.3182  1.1070  0.0497
 6606TIP3   OH241232   4.129   5.235   5.241 -0.2266  0.3534  0.2317
 6606TIP3    H141233   4.079   5.297   5.295  1.0923  1.2039  0.5027
 6606TIP3    H241234   4.078   5.154   5.244  0.3838  0.0144  3.7250
 6607TIP3   OH241235   4.544   4.436   4.027 -0.4666 -0.0631 -0.6887
 6607TIP3    H141236   4.551   4.376   4.101  1.6998  0.2116 -0.6275
 6607TIP3    H241237   4.494   4.511   4.061 -0.0333 -0.2181  0.3045
 6608TIP3   OH241238   0.173   0.089   4.317  0.0375  0.3308  0.1304
 6608TIP3    H141239   0.196  -0.001   4.296 -1.1888  0.6546 -2.8041
 6608TIP3    H241240   0.253   0.138   4.302  0.6088 -0.1694  1.3972
 6609TIP3   OH241241   6.730   5.554   3.279 -0.4592  0.3370  0.4883
 6609TIP3    H141242   6.762   5.473   3.318  1.5132  1.1804  0.7003
 6609TIP3    H241243   6.754   5.547   3.186 -2.0066 -0.1374  0.1065
 6610TIP3   OH241244   2.354   4.602  11.378 -0.4615  0.4547  0.1329
 6610TIP3    H141245   2.365   4.604  11.473 -0.0826  0.4003  0.0905
 6610TIP3    H241246   2.266   4.637  11.363 -1.0645 -0.8463  0.5863
 6611TIP3   OH241247   2.192   1.029  13.091 -0.0245 -0.3015  0.4475
 6611TIP3    H141248   2.264   1.046  13.152  2.0807 -2.0116 -1.4973
 6611TIP3    H241249   2.185   0.934  13.087 -1.1853 -0.1785 -0.8117
 6612TIP3   OH241250   3.427   1.101  10.707  0.2552 -0.4023 -0.0316
 6612TIP3    H141251   3.435   1.011  10.737  1.7220 -0.2010  0.1940
 6612TIP3    H241252   3.492   1.150  10.758 -0.9619  0.9039  0.3161
 6613TIP3   OH241253   5.899   4.596  15.066  0.3531  0.6639 -0.2736
 6613TIP3    H141254   5.831   4.563  15.006  1.8294 -0.3237 -1.4330
 6613TIP3    H241255   5.977   4.544  15.045  1.7133  2.3764  0.4435
 6614TIP3   OH241256   6.249   3.472   2.258 -0.1446  0.6785 -0.4008
 6614TIP3    H141257   6.261   3.493   2.350  0.1788  0.0286 -0.2934
 6614TIP3    H241258   6.155   3.481   2.242 -0.1929  0.8293 -0.0253
 6615TIP3   OH241259   1.414   3.560   5.339  0.0962 -0.1878  0.0529
 6615TIP3    H141260   1.485   3.499   5.358  0.4197  0.4052  0.7561
 6615TIP3    H241261   1.334   3.511   5.361  0.4132  0.0945  1.8799
 6616TIP3   OH241262   6.618   6.380   5.778  0.1875 -0.3257 -0.3777
 6616TIP3    H141263   6.600   6.340   5.863 -2.0841  0.2343 -0.5520
 6616TIP3    H241264   6.659   6.310   5.727 -0.1488 -1.2363  0.5727
 6617TIP3   OH241265   5.218   0.111  15.077  0.2637 -0.0855 -0.1059
 6617TIP3    H141266   5.180   0.053  15.011  0.2794  0.6391 -0.7636
 6617TIP3    H241267   5.223   0.196  15.034  0.9214  0.2394  0.5962
 6618TIP3   OH241268   0.093   4.866   5.591  0.0562 -0.3134  0.2465
 6618TIP3    H141269   0.089   4.782   5.636  0.5616 -0.3924  0.1453
 6618TIP3    H241270   0.042   4.853   5.511 -0.5616 -0.2721  0.6284
 6619TIP3   OH241271   1.880   2.655   4.907  0.4535 -0.2635 -0.0928
 6619TIP3    H141272   1.879   2.669   4.812  1.3885 -1.0663 -0.2243
 6619TIP3    H241273   1.927   2.573   4.919 -1.6118 -1.3418  0.9268
 6620TIP3   OH241274   0.428   1.397   6.234 -0.2855 -0.0546  0.0849
 6620TIP3    H141275   0.411   1.319   6.287 -0.5925 -0.6204 -0.8225
 6620TIP3    H241276   0.503   1.438   6.275  0.6635 -1.5078 -0.1369
 6621TIP3   OH241277   3.538   3.902  12.610 -0.3249 -0.1207  0.0524
 6621TIP3    H141278   3.603   3.946  12.556 -0.6438  0.7411  0.3529
 6621TIP3    H241279   3.584   3.884  12.693  0.3533 -2.0137 -0.7156
 6622TIP3   OH241280   0.207   4.227  16.847  0.4560 -0.7210 -0.9264
 6622TIP3    H141281   0.269   4.207  16.777 -0.0860 -0.7503 -1.4015
 6622TIP3    H241282   0.168   4.142  16.868  0.9321 -0.7837 -0.2824
 6623TIP3   OH241283   5.108   1.579   2.263  0.1427  0.3364  0.0931
 6623TIP3    H141284   5.101   1.508   2.327  0.4274  0.2717  0.0532
 6623TIP3    H241285   5.031   1.634   2.279  0.3385  0.4505  0.6512
 6624TIP3   OH241286   2.938   2.170   0.049 -0.4175  0.2486  0.1147
 6624TIP3    H141287   2.992   2.119   0.108 -0.9740  1.2919  1.5522
 6624TIP3    H241288   2.979   2.160  -0.037  1.8939  0.8298  1.1349
 6625TIP3   OH241289   3.307   5.841   2.892  0.4102 -0.3141 -0.0067
 6625TIP3    H141290   3.360   5.860   2.970  0.6241  0.4244 -0.3194
 6625TIP3    H241291   3.228   5.894   2.903  0.4449 -0.1987 -0.2918
 6626TIP3   OH241292   3.493   3.494   0.517 -0.5897 -0.3318 -0.5479
 6626TIP3    H141293   3.586   3.497   0.494 -0.4615 -0.4776 -0.0474
 6626TIP3    H241294   3.448   3.489   0.433 -0.1674  0.2550 -0.8153
 6627TIP3   OH241295   0.444   3.924   3.796 -0.6675 -0.3663  0.1276
 6627TIP3    H141296   0.417   3.991   3.733 -1.5452 -0.4385  0.4253
 6627TIP3    H241297   0.514   3.965   3.846 -2.5811  1.0852  1.6815
 6628TIP3   OH241298   2.498   0.865  12.774  0.8608 -0.1916 -0.7826
 6628TIP3    H141299   2.568   0.800  12.774 -1.2063 -2.4655 -1.0857
 6628TIP3    H241300   2.418   0.814  12.778 -0.8570  2.3033 -2.1877
 6629TIP3   OH241301   1.316   3.528   0.966 -0.6208 -0.1263 -0.6266
 6629TIP3    H141302   1.331   3.460   0.900  1.9370 -0.5091  0.2750
 6629TIP3    H241303   1.352   3.608   0.926 -2.1134  0.3637 -1.0180
 6630TIP3   OH241304   3.077   5.116   4.549  0.6045 -0.1860  0.6366
 6630TIP3    H141305   3.152   5.057   4.537 -0.5119 -1.6793  0.7974
 6630TIP3    H241306   3.111   5.186   4.605  1.2465 -2.1574  2.8272
 6631TIP3   OH241307   2.879   2.513   4.884 -0.5937  0.2888 -0.2598
 6631TIP3    H141308   2.842   2.523   4.796 -0.1928  1.2998 -0.3173
 6631TIP3    H241309   2.905   2.601   4.910 -1.4723  0.1337  1.2258
 6632TIP3   OH241310   6.608   0.038   3.301  0.0697 -0.3540  0.0307
 6632TIP3    H141311   6.685   0.092   3.285  0.4446 -0.7122  0.6245
 6632TIP3    H241312   6.553   0.052   3.224 -0.6987  2.3715  1.0293
 6633TIP3   OH241313   3.689   1.835   6.653  0.4014 -0.0017 -0.5565
 6633TIP3    H141314   3.661   1.893   6.724 -0.4761 -1.6091  0.4333
 6633TIP3    H241315   3.771   1.873   6.622 -1.0580  2.7700 -1.1390
 6634TIP3   OH241316   4.142   0.951  13.407  0.1302 -0.0471  0.5088
 6634TIP3    H141317   4.177   0.960  13.496  2.4822  1.2382 -0.4824
 6634TIP3    H241318   4.201   1.004  13.353 -1.0474 -1.0830 -1.8789
 6635TIP3   OH241319   4.789   5.883  14.340  0.0218 -0.5292 -0.1927
 6635TIP3    H141320   4.706   5.903  14.298  0.5187  1.0783 -0.4416
 6635TIP3    H241321   4.783   5.790  14.363 -1.7306 -0.4784 -0.4207
 6636TIP3   OH241322   3.141   0.910   2.276  0.3018  0.1163  0.5664
 6636TIP3    H141323   3.070   0.909   2.340 -0.1792  1.0009  0.0496
 6636TIP3    H241324   3.107   0.860   2.202  0.4736 -0.0344  0.5887
 6637TIP3   OH241325   1.692   2.943  14.055 -0.3277  0.4328  0.1186
 6637TIP3    H141326   1.749   2.917  14.128 -0.6615 -1.9979 -0.4227
 6637TIP3    H241327   1.630   3.004  14.094 -0.6840 -1.0481  1.9781
 6638TIP3   OH241328   3.631   4.094  16.312  0.2571  0.4570  0.0842
 6638TIP3    H141329   3.653   4.001  16.307 -1.0816  0.1160  0.3703
 6638TIP3    H241330   3.608   4.119  16.222  2.8252  1.0899 -0.4328
 6639TIP3   OH241331   0.658   4.502   2.067  0.6974  0.0931 -0.0084
 6639TIP3    H141332   0.624   4.575   2.015  0.2032  1.3863  2.0823
 6639TIP3    H241333   0.581   4.466   2.111  0.9093 -1.8313 -1.1591
 6640TIP3   OH241334   6.746   4.280  17.086  0.0502  0.1434  0.7748
 6640TIP3    H141335   6.737   4.237  17.001 -0.6737  0.1398  0.8556
 6640TIP3    H241336   6.830   4.249  17.120  0.3449  0.1493  0.0581
 6641TIP3   OH241337   4.776   0.442   1.390 -0.2975 -0.7463  0.8403
 6641TIP3    H141338   4.739   0.436   1.478  0.0633  0.8061  1.1205
 6641TIP3    H241339   4.849   0.503   1.399  0.2110 -1.1510 -0.3904
 6642TIP3   OH241340   5.192   2.364   4.715 -0.2620  0.6258 -0.2505
 6642TIP3    H141341   5.254   2.307   4.761  1.3870  2.1294 -0.5410
 6642TIP3    H241342   5.114   2.363   4.770  0.8275  0.5054  1.3589
 6643TIP3   OH241343   2.237   5.317  13.098 -0.2796  0.2683 -0.2049
 6643TIP3    H141344   2.318   5.352  13.062 -0.6096  0.4492 -0.7786
 6643TIP3    H241345   2.185   5.394  13.120 -0.6907  0.1514 -0.7489
 6644TIP3   OH241346   5.803   5.531  13.014 -0.2773  0.1966  0.0464
 6644TIP3    H141347   5.822   5.518  12.921 -0.7703  0.1999 -0.0558
 6644TIP3    H241348   5.866   5.597  13.043  0.8800 -0.8876  0.0714
 6645TIP3   OH241349   0.734   6.349  12.118 -0.6401 -0.1124  0.2172
 6645TIP3    H141350   0.692   6.263  12.113 -0.4795 -0.2473  1.0059
 6645TIP3    H241351   0.826   6.332  12.097 -0.1818 -0.5003  2.3677
 6646TIP3   OH241352   0.380   0.508  12.704  0.1110  0.2249  0.5783
 6646TIP3    H141353   0.429   0.527  12.624 -0.1481  0.0450  0.3753
 6646TIP3    H241354   0.298   0.470  12.673  0.0226  0.1284  0.9325
 6647TIP3   OH241355   0.541   4.986   1.892 -0.2048  0.7891  0.1866
 6647TIP3    H141356   0.527   4.892   1.878  2.2504  0.4710 -0.4374
 6647TIP3    H241357   0.458   5.027   1.867 -1.3425 -1.2262  0.5901
 6648TIP3   OH241358   2.864   4.441   4.511  1.1166  0.3048  0.0227
 6648TIP3    H141359   2.880   4.426   4.418  0.9248 -1.5108  0.2696
 6648TIP3    H241360   2.776   4.478   4.515  1.0235  0.1403 -0.4953
 6649TIP3   OH241361   3.535   5.595   1.056  0.6152 -0.3810  0.3969
 6649TIP3    H141362   3.507   5.505   1.073 -1.2292 -0.1269 -1.1385
 6649TIP3    H241363   3.549   5.599   0.961 -1.4220  1.4870  0.1270
 6650TIP3   OH241364   1.521   4.769   3.067 -0.0726 -0.0791  0.9475
 6650TIP3    H141365   1.466   4.835   3.024 -1.1942 -0.9697  1.0032
 6650TIP3    H241366   1.560   4.720   2.994  4.0618  3.2046  0.7452
 6651TIP3   OH241367   6.162   2.058   0.799 -0.1528  0.1191  0.0920
 6651TIP3    H141368   6.148   2.122   0.869 -1.8453 -0.2373  0.0969
 6651TIP3    H241369   6.136   1.975   0.837  1.0721 -0.4405 -0.2538
 6652TIP3   OH241370   4.891   3.921  14.193  0.1942 -0.0528  0.4213
 6652TIP3    H141371   4.887   3.836  14.237 -1.5108 -0.2684 -0.1424
 6652TIP3    H241372   4.836   3.978  14.246 -0.7670  0.0333 -0.6679
 6653TIP3   OH241373   5.254   4.626   0.802 -0.2764 -0.0104  0.0789
 6653TIP3    H141374   5.217   4.642   0.889 -0.6532  2.0937 -0.4408
 6653TIP3    H241375   5.204   4.684   0.744  0.1109 -1.2374 -1.5071
 6654TIP3   OH241376   1.011   3.537  13.603  0.0455 -0.5981  0.3307
 6654TIP3    H141377   1.097   3.519  13.563  0.3274 -0.2055  0.7523
 6654TIP3    H241378   0.949   3.487  13.550  0.6630 -1.7538  0.6984
 6655TIP3   OH241379   1.487   1.090  11.467 -0.2605 -0.1627  0.1378
 6655TIP3    H141380   1.446   1.176  11.455  1.6566  0.6650 -0.7596
 6655TIP3    H241381   1.466   1.066  11.557  1.7193  2.7107  1.4488
 6656TIP3   OH241382   3.378   3.100  11.424 -0.1286  0.0645  0.3209
 6656TIP3    H141383   3.376   3.116  11.329  1.3416 -0.2920  0.2222
 6656TIP3    H241384   3.313   3.031  11.438  1.7721 -2.0523 -0.8724
 6657TIP3   OH241385   4.256   6.526  14.138 -0.1326  0.1066  0.6270
 6657TIP3    H141386   4.340   6.491  14.109 -0.4317  0.7196 -1.0545
 6657TIP3    H241387   4.267   6.543  14.231  1.3241 -0.6407  0.5927
 6658TIP3   OH241388   6.099   6.491   5.460  0.4343  0.1770 -0.1244
 6658TIP3    H141389   6.073   6.515   5.371  0.3783 -0.3423 -0.2490
 6658TIP3    H241390   6.034   6.534   5.516 -0.8032 -1.2342 -0.4445
 6659TIP3   OH241391   0.848   6.317   2.861 -0.6785  0.2258  0.0445
 6659TIP3    H141392   0.847   6.262   2.783 -1.1302  0.9081 -0.4360
 6659TIP3    H241393   0.941   6.327   2.882 -0.4769  1.4652 -1.4193
 6660TIP3   OH241394   3.305   2.935   1.536 -0.8366  0.0333 -0.0311
 6660TIP3    H141395   3.266   2.871   1.596  0.5414 -1.4355 -0.6639
 6660TIP3    H241396   3.314   2.887   1.453  0.8131  0.8531 -0.3289
 6661TIP3   OH241397   0.389   5.427  10.491  0.2358 -0.2217  0.0673
 6661TIP3    H141398   0.427   5.515  10.483  1.7609 -0.9309 -0.7181
 6661TIP3    H241399   0.457   5.369  10.457 -1.0752 -1.6452 -0.1498
 6662TIP3   OH241400   1.561   4.695   5.184  0.6232  0.1442 -0.0226
 6662TIP3    H141401   1.552   4.601   5.197  3.5408 -0.1956  0.0162
 6662TIP3    H241402   1.511   4.735   5.256 -0.5284 -1.3552  0.0281
 6663TIP3   OH241403   5.219   1.845   1.977 -0.1714 -0.0190  0.0606
 6663TIP3    H141404   5.128   1.821   1.992 -0.9193  0.9233 -2.7125
 6663TIP3    H241405   5.246   1.792   1.901  1.1949  0.6450  0.0641
 6664TIP3   OH241406   0.814   1.950   6.513  0.4264  0.2714  0.7028
 6664TIP3    H141407   0.831   1.912   6.427 -0.4735  1.1663  0.1199
 6664TIP3    H241408   0.728   1.918   6.537  0.0539  1.1868  0.6183
 6665TIP3   OH241409   3.116   0.593   0.441  0.1237  0.2422 -0.1652
 6665TIP3    H141410   3.107   0.585   0.536  0.4441  0.1227 -0.1463
 6665TIP3    H241411   3.119   0.687   0.425 -0.1553  0.2672 -0.0777
 6666TIP3   OH241412   5.798   1.067  10.776  0.2840 -0.3659 -0.2558
 6666TIP3    H141413   5.796   1.163  10.783 -0.7241 -0.3023 -1.1864
 6666TIP3    H241414   5.867   1.040  10.836 -0.2225  0.8632  0.9173
 6667TIP3   OH241415   2.186   1.261  12.901  0.0873 -0.0613  0.1463
 6667TIP3    H141416   2.215   1.177  12.937  1.3131 -0.2898 -1.2993
 6667TIP3    H241417   2.220   1.261  12.811 -0.9217  1.4733 -0.2482
 6668TIP3   OH241418   3.311   5.005  12.854 -0.2954  0.0544 -0.0341
 6668TIP3    H141419   3.327   5.053  12.935 -0.0354  0.5906 -0.3993
 6668TIP3    H241420   3.396   4.967  12.832 -0.5790 -0.8640  0.4365
 6669TIP3   OH241421   2.655   1.839   3.342  0.7115  0.7326 -0.1838
 6669TIP3    H141422   2.625   1.920   3.384 -0.0428 -0.1083  0.8998
 6669TIP3    H241423   2.651   1.858   3.248  1.3870  2.2528  0.0750
 6670TIP3   OH241424   2.948   2.973  16.578 -0.3523 -0.6330 -0.6085
 6670TIP3    H141425   2.963   3.066  16.566 -2.4264 -0.0102  1.4019
 6670TIP3    H241426   3.020   2.944  16.635 -1.0949  0.2939  0.8385
 6671TIP3   OH241427   6.175   4.663  12.754  0.0391  0.5269 -0.5900
 6671TIP3    H141428   6.122   4.710  12.818 -0.1446 -0.8194  0.2575
 6671TIP3    H241429   6.146   4.698  12.669 -0.6010  1.4117 -0.0205
 6672TIP3   OH241430   6.522   4.120  13.025  0.0808  0.1455 -0.7090
 6672TIP3    H141431   6.617   4.119  13.035  0.1152 -2.4402 -0.9972
 6672TIP3    H241432   6.507   4.085  12.937 -1.0982  1.6272 -1.1151
 6673TIP3   OH241433   2.366   1.009  16.030 -0.4059  0.3327  0.1178
 6673TIP3    H141434   2.339   1.017  16.121  0.1430 -1.5606  0.4543
 6673TIP3    H241435   2.338   0.921  16.004  0.6271  0.3654 -1.1388
 6674TIP3   OH241436   3.369   1.409  16.847 -0.0923 -0.2435  0.1285
 6674TIP3    H141437   3.403   1.378  16.931 -0.4254 -1.5398 -0.1991
 6674TIP3    H241438   3.446   1.419  16.791  0.1563  0.8728  0.6608
 6675TIP3   OH241439   3.172   4.846  11.600  0.5199 -0.4586  0.0865
 6675TIP3    H141440   3.114   4.889  11.537 -0.7474 -2.1921  0.0445
 6675TIP3    H241441   3.132   4.865  11.685  1.0549  0.1025  0.2131
 6676TIP3   OH241442   5.955   5.527   1.528 -0.0219  0.2867 -0.4285
 6676TIP3    H141443   6.026   5.494   1.582 -2.1460 -0.0506  2.2518
 6676TIP3    H241444   5.956   5.472   1.450  2.0341 -0.3131  0.0145
 6677TIP3   OH241445   5.864   6.225  14.304  0.1406  0.0923 -0.1584
 6677TIP3    H141446   5.932   6.262  14.360 -0.4236 -0.2920  0.7853
 6677TIP3    H241447   5.857   6.134  14.331 -0.4965  0.0344 -0.5067
 6678TIP3   OH241448   1.822   3.489   0.600  0.5147 -0.4610 -0.5979
 6678TIP3    H141449   1.878   3.520   0.671 -0.0308 -0.6207 -0.0978
 6678TIP3    H241450   1.759   3.431   0.643 -1.7085  1.7758 -0.7331
 6679TIP3   OH241451   5.152   1.160  11.411  0.2004 -0.1785  0.2803
 6679TIP3    H141452   5.088   1.185  11.344 -1.5267 -0.3552  1.8134
 6679TIP3    H241453   5.199   1.087  11.373  0.4298  0.8342 -1.4266
 6680TIP3   OH241454   3.120   5.968   3.658 -0.0832 -0.1148 -0.3150
 6680TIP3    H141455   3.074   5.944   3.578 -1.3422 -0.2553  0.4227
 6680TIP3    H241456   3.069   5.924   3.728  2.0830 -1.5772  0.3973
 6681TIP3   OH241457   6.717   0.366  17.141  0.5802  0.1908 -0.4053
 6681TIP3    H141458   6.764   0.406  17.067 -1.6262  1.0878 -1.3554
 6681TIP3    H241459   6.745   0.416  17.217  1.4072  0.5062 -0.9020
 6682TIP3   OH241460   0.014   0.768   4.628 -0.1967  0.0710 -0.3419
 6682TIP3    H141461  -0.004   0.675   4.614  2.3576 -0.2537 -1.6510
 6682TIP3    H241462  -0.056   0.814   4.582 -0.2001 -1.1766 -1.5853
 6683TIP3   OH241463   3.655   1.469  11.612 -0.2274 -0.0264  0.1161
 6683TIP3    H141464   3.658   1.563  11.629  2.8102 -0.1104  0.3504
 6683TIP3    H241465   3.663   1.461  11.517  0.6889 -0.0530  0.1871
 6684TIP3   OH241466   0.242   5.585  13.094 -0.9247  0.4120  0.1811
 6684TIP3    H141467   0.261   5.679  13.102  0.9157 -0.0797  2.1389
 6684TIP3    H241468   0.147   5.581  13.082 -0.9480  2.5445 -0.6293
 6685TIP3   OH241469   1.976   2.915   0.302  0.0831 -0.2707  0.1164
 6685TIP3    H141470   1.939   2.832   0.272 -0.4996 -0.0914  0.3358
 6685TIP3    H241471   2.035   2.942   0.231  1.1668 -1.4316  0.5447
 6686TIP3   OH241472   2.768   2.169   5.317  0.6419  0.2598  0.3642
 6686TIP3    H141473   2.712   2.170   5.395  0.1716 -0.5335  0.0530
 6686TIP3    H241474   2.744   2.248   5.268 -0.7201 -0.4319 -0.1102
 6687TIP3   OH241475   3.609   5.203  14.060  0.0783  0.3691 -0.1336
 6687TIP3    H141476   3.684   5.145  14.069 -0.2613 -0.2159 -0.9326
 6687TIP3    H241477   3.620   5.243  13.973 -1.9677 -1.8409 -1.4653
 6688TIP3   OH241478   0.063   0.489   4.228  0.0543 -0.1377 -0.2228
 6688TIP3    H141479   0.035   0.546   4.156  0.9289 -0.5076 -0.8637
 6688TIP3    H241480  -0.018   0.462   4.270 -0.3665  2.5902  0.8782
 6689TIP3   OH241481   2.594   2.325   2.448  0.1442 -0.7823  0.6576
 6689TIP3    H141482   2.551   2.370   2.521 -0.1665 -0.5343  0.3245
 6689TIP3    H241483   2.536   2.252   2.427 -1.4326  1.0044 -1.4410
 6690TIP3   OH241484   1.951   3.847   1.482 -0.4595 -0.2740  0.3259
 6690TIP3    H141485   1.912   3.786   1.420 -0.1277 -0.0227 -0.1282
 6690TIP3    H241486   2.000   3.792   1.543 -0.2470 -0.4713 -0.0203
 6691TIP3   OH241487   4.068   1.290   0.776 -0.0688  0.5001  0.0922
 6691TIP3    H141488   4.052   1.380   0.749  0.0216  0.5607  0.2435
 6691TIP3    H241489   4.030   1.237   0.706 -0.9348  0.6456  0.4524
 6692TIP3   OH241490   3.570   5.996   5.859 -0.9563 -0.5088 -0.5141
 6692TIP3    H141491   3.526   6.079   5.840 -2.6810 -1.3354 -0.2382
 6692TIP3    H241492   3.593   6.001   5.952  1.0629  0.6027 -1.0461
 6693TIP3   OH241493   4.314   5.615   4.420  0.1310  0.5806 -0.1141
 6693TIP3    H141494   4.351   5.700   4.394  2.9235 -0.6863 -0.5346
 6693TIP3    H241495   4.379   5.579   4.481 -2.3096 -0.1257  2.1545
 6694TIP3   OH241496   1.579   3.943   3.881  0.9227  0.0244  0.1381
 6694TIP3    H141497   1.494   3.938   3.837  0.6473  0.0358  0.6616
 6694TIP3    H241498   1.587   4.035   3.907  1.0064 -0.0167  0.2550
 6695TIP3   OH241499   3.798   5.824   5.827  0.6307  0.1712 -0.3744
 6695TIP3    H141500   3.861   5.834   5.755 -0.0318  3.3109 -0.6099
 6695TIP3    H241501   3.727   5.884   5.804  0.0452  0.6374  2.5288
 6696TIP3   OH241502   5.989   0.565  14.084 -0.5464 -0.4831 -0.1588
 6696TIP3    H141503   6.022   0.534  14.000 -2.1162 -2.2321 -0.1403
 6696TIP3    H241504   6.067   0.566  14.141  0.2952 -0.3720 -1.2861
 6697TIP3   OH241505   1.046   1.983   2.422 -0.0765 -0.5785 -0.1233
 6697TIP3    H141506   1.034   1.909   2.481  1.2847 -2.8029 -2.5200
 6697TIP3    H241507   1.135   1.972   2.387 -0.1167  1.7878 -1.0804
 6698TIP3   OH241508   1.300   4.256   4.038 -0.2842  0.1573 -0.0866
 6698TIP3    H141509   1.226   4.222   4.089  0.6231 -1.1390  0.4139
 6698TIP3    H241510   1.263   4.276   3.952 -2.1697  3.8264  1.4809
 6699TIP3   OH241511   3.721   5.954   0.538  0.5935 -0.2594 -0.2044
 6699TIP3    H141512   3.789   5.946   0.605  0.0780 -0.8913  0.2584
 6699TIP3    H241513   3.645   5.986   0.586 -0.0433 -1.5639 -0.3012
 6700TIP3   OH241514   4.397   4.266  12.668  0.0604 -0.0119  1.1725
 6700TIP3    H141515   4.371   4.208  12.740 -0.7630  0.2475  1.0878
 6700TIP3    H241516   4.390   4.211  12.590  1.1129 -0.3420  1.2983
 6701TIP3   OH241517   0.626   4.069   5.424  0.0720  0.2765 -0.1838
 6701TIP3    H141518   0.553   4.089   5.365 -0.4256  2.0825  0.9799
 6701TIP3    H241519   0.591   4.002   5.483 -0.5563  0.9016  0.1661
 6702TIP3   OH241520   1.271   5.363   2.653 -0.1873 -0.2383  0.2277
 6702TIP3    H141521   1.300   5.351   2.743  0.3854 -1.4754 -0.1214
 6702TIP3    H241522   1.346   5.338   2.600 -0.6287  0.1941 -0.6080
 6703TIP3   OH241523   0.072   3.753   2.399  0.0983 -0.1089  0.0483
 6703TIP3    H141524   0.057   3.807   2.321  1.0770 -1.4619 -1.1235
 6703TIP3    H241525   0.077   3.815   2.471 -1.3531  1.1313 -0.8924
 6704TIP3   OH241526   1.282   3.867  13.567  0.1341  0.0149  0.0809
 6704TIP3    H141527   1.310   3.787  13.612 -3.3285  0.0744  2.5492
 6704TIP3    H241528   1.338   3.936  13.603  0.8661 -0.7734  0.4594
 6705TIP3   OH241529   0.629   5.434   4.889  0.8055  0.7559  0.3655
 6705TIP3    H141530   0.650   5.522   4.920 -1.2374  1.1598  0.6795
 6705TIP3    H241531   0.584   5.448   4.805 -1.9210  0.2199  1.6641
 6706TIP3   OH241532   0.172   4.420  15.101 -0.4010 -0.0978 -0.8442
 6706TIP3    H141533   0.182   4.448  15.010  0.0642 -0.5540 -0.9348
 6706TIP3    H241534   0.255   4.378  15.122  0.3994  2.1071  0.5438
 6707TIP3   OH241535   2.211   3.304  16.159 -0.3977  0.1662 -0.5957
 6707TIP3    H141536   2.296   3.334  16.190 -0.9083 -0.4335  1.4267
 6707TIP3    H241537   2.159   3.384  16.152 -0.3609  0.2808  0.3616
 6708TIP3   OH241538   3.495   6.750   1.834 -0.9095 -0.0276  0.1941
 6708TIP3    H141539   3.585   6.765   1.861 -0.6843  1.0240 -1.0961
 6708TIP3    H241540   3.500   6.674   1.775 -0.8368  0.1599 -0.0415
 6709TIP3   OH241541   2.499   1.735  16.323  0.2361 -0.1616  0.1965
 6709TIP3    H141542   2.483   1.642  16.337 -1.1399  0.1089  0.4988
 6709TIP3    H241543   2.592   1.747  16.340  0.6850 -1.7040 -1.0513
 6710TIP3   OH241544   4.476   0.370  15.489 -0.1071  0.9561  0.1201
 6710TIP3    H141545   4.512   0.454  15.519  4.3458 -1.4296  1.9338
 6710TIP3    H241546   4.526   0.350  15.410 -1.1538 -0.0139 -0.3099
 6711TIP3   OH241547   2.551   6.391   4.804 -0.4091  0.4966 -0.2238
 6711TIP3    H141548   2.564   6.483   4.780 -0.5451  0.7623  0.7270
 6711TIP3    H241549   2.477   6.392   4.864  0.7234 -0.0255  1.1973
 6712TIP3   OH241550   2.596   1.114  13.128 -0.4898 -0.6758  0.1124
 6712TIP3    H141551   2.562   1.091  13.214 -0.5752 -2.0695 -0.2843
 6712TIP3    H241552   2.648   1.193  13.143 -1.8713  0.0435  1.1406
 6713TIP3   OH241553   4.711   3.692   5.704 -0.0361  0.6811 -0.0958
 6713TIP3    H141554   4.649   3.619   5.707  0.9062 -0.1941 -1.1618
 6713TIP3    H241555   4.754   3.691   5.789  0.0520 -0.0818 -0.1468
 6714TIP3   OH241556   2.376   6.264  15.855 -0.4838 -0.4590 -0.4728
 6714TIP3    H141557   2.432   6.306  15.790  0.7876 -0.9640  0.2674
 6714TIP3    H241558   2.406   6.173  15.857 -0.5641 -0.4718  0.7337
 6715TIP3   OH241559   4.994   1.470  12.909 -0.8091 -0.1044 -0.4256
 6715TIP3    H141560   4.972   1.436  12.996  0.2114 -0.1187 -0.1615
 6715TIP3    H241561   5.087   1.493  12.915 -0.9983  0.9101 -1.1924
 6716TIP3   OH241562   2.358   1.067  13.647  0.2371 -0.2610  0.2923
 6716TIP3    H141563   2.339   1.160  13.634 -0.0726 -0.4002 -0.2866
 6716TIP3    H241564   2.283   1.022  13.607  0.4204 -0.7583  0.5110
 6717TIP3   OH241565   0.051   1.494   5.161 -0.0532 -0.5762  0.0331
 6717TIP3    H141566   0.019   1.584   5.148 -1.8464 -1.3566 -1.0675
 6717TIP3    H241567   0.086   1.469   5.076  2.3947 -0.1875  0.8989
 6718TIP3   OH241568   6.161   3.896  12.126 -0.1610 -0.0132 -0.3629
 6718TIP3    H141569   6.107   3.869  12.201 -2.0705  2.6192 -0.7140
 6718TIP3    H241570   6.220   3.963  12.162  0.9593 -0.8725 -0.5870
 6719TIP3   OH241571   6.267   1.959   5.157 -0.1372 -0.5582 -0.6337
 6719TIP3    H141572   6.229   1.873   5.173 -0.4249 -0.0559  1.5587
 6719TIP3    H241573   6.193   2.019   5.167  0.4467  0.1028 -0.2696
 6720TIP3   OH241574   3.676   5.707  14.810 -0.9353 -0.0329 -0.1581
 6720TIP3    H141575   3.619   5.747  14.875 -0.4703  0.9869 -0.3690
 6720TIP3    H241576   3.650   5.746  14.726  0.0025  0.3818 -0.2693
 6721TIP3   OH241577   5.756   4.308   3.699 -0.2732  0.1419  0.3997
 6721TIP3    H141578   5.830   4.259   3.661 -0.0486 -0.9245  2.1654
 6721TIP3    H241579   5.751   4.387   3.646  1.5893 -0.1702 -0.3086
 6722TIP3   OH241580   3.502   0.848  14.484  0.0064 -0.0051  0.1242
 6722TIP3    H141581   3.581   0.826  14.436 -0.4140 -0.7104 -0.2619
 6722TIP3    H241582   3.430   0.827  14.424 -0.5849 -2.1417  1.4793
 6723TIP3   OH241583   4.426   2.352   1.536 -0.5888  0.2172  0.1446
 6723TIP3    H141584   4.516   2.329   1.515 -0.2905  1.4533  0.0207
 6723TIP3    H241585   4.427   2.369   1.631 -1.6659 -4.1353  1.0334
 6724TIP3   OH241586   5.093   2.426   4.156 -0.2426 -0.1905  0.1886
 6724TIP3    H141587   5.175   2.382   4.134 -0.2529 -0.0578 -0.1301
 6724TIP3    H241588   5.112   2.477   4.234  0.9614  2.5981 -1.8372
 6725TIP3   OH241589   3.958   1.450   1.739 -1.0280 -0.2999 -0.6419
 6725TIP3    H141590   4.038   1.499   1.760  0.2637 -2.1945 -1.0203
 6725TIP3    H241591   3.888   1.498   1.784 -0.2449  3.4169 -3.1294
 6726TIP3   OH241592   1.102   3.958   3.415 -0.1339 -0.3181 -0.5015
 6726TIP3    H141593   1.070   3.997   3.334 -0.7233  2.1614  0.8442
 6726TIP3    H241594   1.197   3.960   3.408 -0.1960 -2.0874 -1.9999
 6727TIP3   OH241595   3.488   1.582  11.275  0.8475  0.1821 -0.2503
 6727TIP3    H141596   3.516   1.592  11.184 -0.4310  0.6984 -0.6059
 6727TIP3    H241597   3.401   1.622  11.278  1.4981  1.5695  1.5499
 6728TIP3   OH241598   2.676   4.607  13.858  0.0292  0.0471  0.2055
 6728TIP3    H141599   2.765   4.597  13.823  0.0336  1.1553 -0.1291
 6728TIP3    H241600   2.680   4.688  13.909 -0.6426 -0.2160  0.6773
 6729TIP3   OH241601   5.686   6.778  16.482 -0.3244 -0.1872 -0.0876
 6729TIP3    H141602   5.738   6.768  16.402 -0.9595 -1.7165 -0.3372
 6729TIP3    H241603   5.649   6.691  16.497 -0.8188  0.2738  1.4570
 6730TIP3   OH241604   2.495   0.097  13.174  0.1894 -0.2755 -0.3539
 6730TIP3    H141605   2.455   0.013  13.150 -0.9341 -0.1194  0.8974
 6730TIP3    H241606   2.450   0.161  13.118  0.4467 -0.4049 -0.7088
 6731TIP3   OH241607   3.041   4.750  14.020  0.1636  0.6128 -0.4881
 6731TIP3    H141608   3.086   4.806  13.956  0.2340  1.2150  0.0871
 6731TIP3    H241609   2.951   4.782  14.019  0.5311  1.7604  0.9499
 6732TIP3   OH241610   2.587   0.212  14.888 -0.2892 -0.3946 -0.4486
 6732TIP3    H141611   2.663   0.249  14.934  1.0807 -1.6787 -1.6377
 6732TIP3    H241612   2.517   0.275  14.905  1.3222  1.4248 -0.2768
 6733TIP3   OH241613   2.132   4.487  12.586 -0.4400  0.1042 -0.2570
 6733TIP3    H141614   2.199   4.541  12.629  2.9436 -4.5965  0.6791
 6733TIP3    H241615   2.147   4.502  12.492  0.1791  1.1019 -0.0155
 6734TIP3   OH241616   1.745   5.736  14.927  0.2057  0.1893  0.0558
 6734TIP3    H141617   1.790   5.652  14.940 -0.8172 -0.5314 -0.9329
 6734TIP3    H241618   1.784   5.773  14.848  0.1724  0.3213  0.1006
 6735TIP3   OH241619   1.729   0.878  15.820  0.7120  0.2533  0.3750
 6735TIP3    H141620   1.796   0.946  15.823  2.1511 -1.1625  1.5537
 6735TIP3    H241621   1.746   0.832  15.737  2.6076 -1.4108  1.6136
 6736TIP3   OH241622   2.726   3.881  15.426  0.3208  0.3175 -0.1861
 6736TIP3    H141623   2.674   3.868  15.347  1.1791  1.7195 -1.0021
 6736TIP3    H241624   2.804   3.828  15.412  0.1297 -0.0360  0.0687
 6737TIP3   OH241625   2.900   5.138  11.332  0.0866  0.5206  0.4516
 6737TIP3    H141626   2.922   5.055  11.375 -0.4300  0.8232  1.3128
 6737TIP3    H241627   2.814   5.122  11.293 -1.0415  1.3479  2.5374
 6738TIP3   OH241628   4.303   4.346  14.640  0.4745  0.1059  0.0995
 6738TIP3    H141629   4.247   4.284  14.687 -0.9851  0.8412 -0.6416
 6738TIP3    H241630   4.318   4.305  14.555 -0.2442  0.6412 -0.2817
 6739TIP3   OH241631   0.888   6.447  16.816  0.1377 -0.1883  0.0788
 6739TIP3    H141632   0.892   6.536  16.851  0.0440 -0.4749  0.8137
 6739TIP3    H241633   0.980   6.423  16.805  0.1532  0.4275 -1.2160
 6740TIP3   OH241634   2.411   4.237  16.602  0.0623  0.0900  0.6266
 6740TIP3    H141635   2.468   4.160  16.609  1.2548  0.7496 -1.2440
 6740TIP3    H241636   2.472   4.310  16.597 -1.0037  0.9249 -0.2019
 6741TIP3   OH241637   0.757   4.391   2.426 -0.0334  0.6034 -0.0185
 6741TIP3    H141638   0.737   4.445   2.503  0.8900  0.7346  0.1395
 6741TIP3    H241639   0.825   4.331   2.457 -1.3827 -0.9633 -0.0732
 6742TIP3   OH241640   4.712   1.556  13.877  0.2463 -0.3202 -0.1897
 6742TIP3    H141641   4.656   1.572  13.801  1.0492 -0.2346 -0.7613
 6742TIP3    H241642   4.722   1.642  13.917 -0.2892 -0.3872  0.1040
 6743TIP3   OH241643   2.301   6.567   0.039  0.4919 -0.5906  0.5019
 6743TIP3    H141644   2.276   6.657   0.019 -0.4320 -0.5794  1.6820
 6743TIP3    H241645   2.338   6.534  -0.043 -1.8466 -0.0581 -0.8346
 6744TIP3   OH241646   2.554   1.759  13.971  0.2604 -0.4678  0.5492
 6744TIP3    H141647   2.481   1.729  13.916  0.9799 -1.4189  0.0870
 6744TIP3    H241648   2.626   1.772  13.909  0.0645  1.9471  0.7880
 6745TIP3   OH241649   2.652   0.311  16.168 -1.0062 -0.3281  0.0265
 6745TIP3    H141650   2.573   0.297  16.220 -1.3743  1.0470 -0.1364
 6745TIP3    H241651   2.708   0.236  16.188 -0.9053  0.4594  2.8232
 6746TIP3   OH241652   4.552   0.194   2.469 -0.2623 -0.1452 -0.2902
 6746TIP3    H141653   4.457   0.188   2.463 -0.4714  0.6908  1.8137
 6746TIP3    H241654   4.569   0.227   2.557  2.0519 -1.8316 -0.0527
 6747TIP3   OH241655   0.510   3.955  16.431 -0.0234  0.6299 -0.3096
 6747TIP3    H141656   0.474   3.867  16.445 -1.1863  1.1437 -0.0161
 6747TIP3    H241657   0.585   3.941  16.374 -0.1983 -0.5630 -0.2564
 6748TIP3   OH241658   2.482   1.317  13.741  0.2902 -0.5154  0.0098
 6748TIP3    H141659   2.548   1.297  13.675  0.3837  0.2237 -0.1297
 6748TIP3    H241660   2.399   1.291  13.701  0.3801 -0.3663 -0.2787
 6749TIP3   OH241661   0.069   5.764   0.014 -0.0622 -0.4012  0.3207
 6749TIP3    H141662   0.080   5.669   0.022  0.0527 -0.4997 -0.8725
 6749TIP3    H241663   0.021   5.789   0.093 -1.1974 -1.6338  0.0519
 6750TIP3   OH241664   2.454   1.072  12.573  0.8184 -0.6536  0.1963
 6750TIP3    H141665   2.507   1.011  12.624  1.5812 -0.8788 -0.8433
 6750TIP3    H241666   2.503   1.155  12.577  0.3851 -0.4154  0.6258
 6751TIP3   OH241667   0.750   5.099   2.231 -0.5929 -0.1402 -0.0198
 6751TIP3    H141668   0.667   5.141   2.254 -1.2059 -1.0180 -0.5492
 6751TIP3    H241669   0.727   5.007   2.217  0.6927 -0.6283  0.9797
 6752TIP3   OH241670   0.373   3.509  14.026  0.0932 -0.0764  0.3870
 6752TIP3    H141671   0.382   3.542  13.937  1.4717  0.1815  0.6090
 6752TIP3    H241672   0.385   3.414  14.017  0.3801 -0.0346  0.3138
 6753TIP3   OH241673   4.188   2.095  10.872  0.4943  0.6403 -0.4199
 6753TIP3    H141674   4.278   2.064  10.862 -0.5681 -2.3450 -0.9937
 6753TIP3    H241675   4.141   2.023  10.912 -1.8972  1.7699 -1.0653
 6754TIP3   OH241676   0.962   1.315   2.334  0.3528 -1.3924  0.8638
 6754TIP3    H141677   0.949   1.220   2.340 -0.1253 -1.3397  0.6809
 6754TIP3    H241678   0.928   1.338   2.248 -0.0757 -0.9679  1.1431
 6755TIP3   OH241679   4.279   1.415   5.797  0.3818  0.0259  0.1551
 6755TIP3    H141680   4.314   1.484   5.853 -1.0223  0.2103  0.8220
 6755TIP3    H241681   4.232   1.462   5.728  0.7513 -0.2373 -0.2774
 6756TIP3   OH241682   5.797   4.141  14.148  0.3175  0.5375 -0.7752
 6756TIP3    H141683   5.806   4.237  14.146  1.2729  0.4327 -1.7994
 6756TIP3    H241684   5.857   4.110  14.080 -0.2620 -0.7728 -0.6952
 6757TIP3   OH241685   3.009   6.371   2.233  0.4773  0.6087  0.4372
 6757TIP3    H141686   3.023   6.441   2.169  1.7947 -0.4302 -0.4346
 6757TIP3    H241687   2.934   6.323   2.198  0.4833  0.7174  0.2676
 6758TIP3   OH241688   3.393   3.006   4.828 -0.3529 -0.2997  0.5293
 6758TIP3    H141689   3.341   2.959   4.893 -2.1272  1.1228  0.1583
 6758TIP3    H241690   3.344   2.995   4.746  0.1876  0.6348  0.0795
 6759TIP3   OH241691   1.682   5.383   4.509 -0.3709  0.1144 -0.1048
 6759TIP3    H141692   1.677   5.472   4.543 -0.3694 -0.2085  0.7347
 6759TIP3    H241693   1.765   5.381   4.461  0.4838  0.0458  1.3541
 6760TIP3   OH241694   1.733   0.120   2.166  0.3090 -0.3524 -0.1538
 6760TIP3    H141695   1.779   0.196   2.201  2.8556 -1.9270  0.0933
 6760TIP3    H241696   1.772   0.106   2.080 -0.0019 -1.4768 -0.1189
 6761TIP3   OH241697   2.855   4.725   2.748  0.5893 -0.1919 -0.3362
 6761TIP3    H141698   2.878   4.785   2.819  0.3360 -0.7993  0.2619
 6761TIP3    H241699   2.764   4.746   2.727  0.9364  0.5894 -1.0861
 6762TIP3   OH241700   1.433   4.562  16.587 -0.2548  0.0756  0.2127
 6762TIP3    H141701   1.356   4.506  16.598 -0.1756 -0.1873 -0.5202
 6762TIP3    H241702   1.420   4.604  16.502  1.8570 -2.3090 -1.3761
 6763TIP3   OH241703   0.018   5.190  11.255 -0.0061 -0.4247 -0.0947
 6763TIP3    H141704  -0.007   5.228  11.171 -1.8413  0.0873  0.6595
 6763TIP3    H241705  -0.035   5.237  11.319  2.4564  0.2197  1.5128
 6764TIP3   OH241706   5.237   0.882   5.609  0.5162 -0.2201 -0.5091
 6764TIP3    H141707   5.204   0.811   5.553  0.3061  0.7304 -1.6081
 6764TIP3    H241708   5.165   0.899   5.670 -0.7362  1.2068 -2.3000
 6765TIP3   OH241709   5.934   4.487   3.532 -0.0518 -0.4815  0.0240
 6765TIP3    H141710   5.918   4.401   3.494 -2.2884  0.5237 -1.4399
 6765TIP3    H241711   5.943   4.545   3.457  0.5503  0.7194  0.9999
 6766TIP3   OH241712   1.769   0.576   4.025 -0.1121 -0.0714 -0.2069
 6766TIP3    H141713   1.758   0.497   4.078 -0.1136  0.3055  0.3571
 6766TIP3    H241714   1.761   0.545   3.935 -2.5538 -0.3442  0.0592
 6767TIP3   OH241715   6.126   1.809  16.766  0.2977 -0.3087 -0.3702
 6767TIP3    H141716   6.083   1.852  16.692 -0.4165 -1.0179 -0.3719
 6767TIP3    H241717   6.203   1.767  16.728  1.3743  1.5201 -0.2543
 6768TIP3   OH241718   3.520   4.486   5.229 -0.1302  0.1705 -0.0401
 6768TIP3    H141719   3.516   4.542   5.307  1.2395 -0.0557  0.2040
 6768TIP3    H241720   3.488   4.542   5.158 -2.5706 -0.0053  0.8610
 6769TIP3   OH241721   1.635   4.913  15.334  0.7005 -0.3279  0.2337
 6769TIP3    H141722   1.583   4.927  15.414  0.8444 -0.6427  0.3815
 6769TIP3    H241723   1.720   4.951  15.355  0.5024  0.2825 -0.0458
 6770TIP3   OH241724   5.921   4.104  12.742 -0.0099  0.1012  0.0685
 6770TIP3    H141725   5.856   4.116  12.673 -1.4146  2.1674  1.6475
 6770TIP3    H241726   5.870   4.072  12.817  1.4114 -1.6963  0.2810
 6771TIP3   OH241727   6.060   2.179   2.393 -0.5235  0.1621 -0.5137
 6771TIP3    H141728   6.026   2.265   2.418  0.8235 -0.0439  2.2452
 6771TIP3    H241729   6.023   2.119   2.458  1.2817 -0.7692 -0.3078
 6772TIP3   OH241730   3.601   2.768  14.661  0.0888  0.0081 -0.4324
 6772TIP3    H141731   3.521   2.771  14.607 -1.7501  0.5029  2.2070
 6772TIP3    H241732   3.581   2.705  14.729  2.2035 -0.2572 -0.0412
 6773TIP3   OH241733   5.089   2.682  16.130 -0.6642  0.0879  0.6442
 6773TIP3    H141734   5.008   2.681  16.080  0.5805  0.8758 -1.4309
 6773TIP3    H241735   5.151   2.633  16.077  0.8560  1.4782  1.0972
 6774TIP3   OH241736   1.938   5.480  11.181 -0.1042 -0.1333 -0.2790
 6774TIP3    H141737   2.000   5.408  11.166  0.4569  0.3416 -0.2958
 6774TIP3    H241738   1.889   5.487  11.099 -0.7298 -1.0313  0.0130
 6775TIP3   OH241739   2.650   4.145   6.615 -0.3205 -0.1153 -0.0411
 6775TIP3    H141740   2.658   4.096   6.697 -1.9560 -0.9598 -0.3681
 6775TIP3    H241741   2.711   4.103   6.555  0.8880  0.5062  0.7217
 6776TIP3   OH241742   5.303   2.259  16.491  0.2367 -0.5399 -0.5254
 6776TIP3    H141743   5.241   2.330  16.476 -1.6491 -1.7582  1.2203
 6776TIP3    H241744   5.346   2.247  16.406 -2.1865  0.1046 -1.9005
 6777TIP3   OH241745   1.760   6.766  12.536 -0.3855  0.2049  0.2217
 6777TIP3    H141746   1.735   6.689  12.485 -2.1893  0.2197  1.0532
 6777TIP3    H241747   1.700   6.835  12.507  0.3481  0.9350  0.4267
 6778TIP3   OH241748   2.270   1.989  12.244 -0.2707 -0.0038 -0.1398
 6778TIP3    H141749   2.261   1.917  12.307 -0.0712 -0.3120 -0.4646
 6778TIP3    H241750   2.201   1.972  12.180  1.4439 -1.3824 -1.6654
 6779TIP3   OH241751   2.637   3.507   1.613  0.4096 -0.0516  0.1022
 6779TIP3    H141752   2.699   3.574   1.582 -1.1281  0.4504 -2.0039
 6779TIP3    H241753   2.624   3.528   1.706 -0.9551  3.4018 -0.7555
 6780TIP3   OH241754   4.854   6.680   5.923  0.6106  0.3525  0.7304
 6780TIP3    H141755   4.888   6.620   5.856 -0.3333 -0.3090  0.8385
 6780TIP3    H241756   4.764   6.696   5.897  0.2424  0.1070  1.8307
 6781TIP3   OH241757   5.306   6.674   4.528 -0.6280  0.6838  0.0108
 6781TIP3    H141758   5.301   6.700   4.620 -0.8200  0.3482  0.0969
 6781TIP3    H241759   5.284   6.581   4.529 -0.4784  0.6478 -0.3582
 6782TIP3   OH241760   0.574   1.615   2.129  0.6293 -0.1840 -0.0759
 6782TIP3    H141761   0.529   1.665   2.062  2.1469  0.4054 -0.6748
 6782TIP3    H241762   0.586   1.677   2.201  1.7398  0.0969 -0.4824
 6783TIP3   OH241763   2.681   5.301  12.130  0.1131  0.4548  0.1722
 6783TIP3    H141764   2.664   5.231  12.067  3.8451  0.0241 -0.4310
 6783TIP3    H241765   2.653   5.381  12.085  1.2906 -0.0189 -1.4235
 6784TIP3   OH241766   3.258   0.294  14.858  0.1273 -0.2422  0.3025
 6784TIP3    H141767   3.252   0.360  14.788 -0.4285 -1.9788 -1.3315
 6784TIP3    H241768   3.341   0.249  14.841  0.1561 -0.4405  0.9736
 6785TIP3   OH241769   1.258   0.095   4.377 -0.1926  0.2496 -0.2630
 6785TIP3    H141770   1.304   0.153   4.437 -0.3337  0.7512 -0.6336
 6785TIP3    H241771   1.241   0.016   4.428  2.0708 -0.3894 -0.4638
 6786TIP3   OH241772   2.066   4.563   2.033 -0.6627  0.2798  0.1464
 6786TIP3    H141773   2.082   4.602   1.947 -0.7066  0.6062  0.2846
 6786TIP3    H241774   2.096   4.472   2.024 -2.3730 -0.2233 -0.7737
 6787TIP3   OH241775   5.209   5.712   1.095 -0.7038 -0.3210  0.0991
 6787TIP3    H141776   5.126   5.668   1.076 -0.6850  0.0931 -1.0145
 6787TIP3    H241777   5.187   5.805   1.093 -0.4198 -0.2419  0.8236
 6788TIP3   OH241778   1.131   1.931  15.926  0.2774 -0.1507  0.2867
 6788TIP3    H141779   1.048   1.897  15.961 -0.8117  0.8402 -1.2775
 6788TIP3    H241780   1.138   1.891  15.840  0.7393  0.8569 -0.1424
 6789TIP3   OH241781   1.898   1.570  11.396  0.2004 -0.1680 -0.5052
 6789TIP3    H141782   1.846   1.542  11.472 -0.1534 -0.1706 -0.7482
 6789TIP3    H241783   1.988   1.548  11.419 -0.0830 -1.5469 -0.7279
 6790TIP3   OH241784   5.635   2.358  10.891 -0.2093  0.4423 -0.6844
 6790TIP3    H141785   5.620   2.359  10.797  2.1673  0.4406 -1.0881
 6790TIP3    H241786   5.695   2.431  10.906 -0.4725  0.3680  0.8320
 6791TIP3   OH241787   6.363   3.016  12.511  0.0172  0.2223 -0.5586
 6791TIP3    H141788   6.431   3.014  12.443  1.3036 -1.0623  0.7198
 6791TIP3    H241789   6.381   2.939  12.565 -1.3263  0.8910  0.8957
 6792TIP3   OH241790   2.853   6.558  10.737  0.0127 -0.3513  0.0097
 6792TIP3    H141791   2.944   6.528  10.734  0.2132  0.3706 -1.4494
 6792TIP3    H241792   2.801   6.478  10.725  0.4697 -0.6449 -0.0094
 6793TIP3   OH241793   4.600   1.164  16.933 -0.3010  0.0616  0.0907
 6793TIP3    H141794   4.647   1.228  16.881  1.5155 -1.0214  0.3432
 6793TIP3    H241795   4.609   1.082  16.885 -1.0329 -0.3839  0.6927
 6794TIP3   OH241796   2.570   3.067   0.861 -0.1711  0.2104  0.3056
 6794TIP3    H141797   2.489   3.096   0.903  0.0019  0.7225  0.2832
 6794TIP3    H241798   2.584   3.129   0.790 -1.0078 -1.2459 -1.1776
 6795TIP3   OH241799   0.181   1.233  12.223  0.5905  0.9853 -0.3518
 6795TIP3    H141800   0.086   1.240  12.232  0.6767 -0.3768  1.8984
 6795TIP3    H241801   0.215   1.246  12.311  2.4274  0.1850 -0.9187
 6796TIP3   OH241802   2.930   4.015   3.952 -0.5346 -0.1645  0.3657
 6796TIP3    H141803   2.928   3.955   4.026  0.9050  0.3447  0.8266
 6796TIP3    H241804   2.895   4.097   3.987  2.3521  0.7865  1.1656
 6797TIP3   OH241805   4.960   3.904  11.440 -0.5693  0.1210  0.3297
 6797TIP3    H141806   4.921   3.878  11.524  1.7714 -2.4755  0.6990
 6797TIP3    H241807   5.024   3.971  11.462 -0.7670  0.2521  0.4952
 6798TIP3   OH241808   2.588   3.565  11.500 -1.0967 -0.3404 -0.1364
 6798TIP3    H141809   2.510   3.529  11.543 -0.4570 -1.4316  0.1095
 6798TIP3    H241810   2.556   3.596  11.415 -1.6402 -1.5238 -0.3624
 6799TIP3   OH241811   5.537   3.827   5.020 -0.3589 -0.7606 -0.1912
 6799TIP3    H141812   5.598   3.869   5.080 -2.8994 -0.6511  2.4694
 6799TIP3    H241813   5.548   3.733   5.036 -1.6003 -0.7112  1.1442
 6800TIP3   OH241814   4.254   1.701  15.550 -0.2327 -0.2500  0.2554
 6800TIP3    H141815   4.302   1.783  15.539  0.2184 -0.4937  0.3857
 6800TIP3    H241816   4.278   1.671  15.637 -2.2184  0.6526  1.1450
 6801TIP3   OH241817   0.994   1.898   4.436 -0.5167  0.1682  0.0228
 6801TIP3    H141818   1.089   1.896   4.426 -0.5522  0.1502 -0.3305
 6801TIP3    H241819   0.967   1.981   4.395 -0.6120  0.3739  0.4972
 6802TIP3   OH241820   1.897   2.209  16.190 -0.1245  0.6385  0.2974
 6802TIP3    H141821   1.907   2.303  16.173  3.0645  0.2175 -0.4635
 6802TIP3    H241822   1.914   2.167  16.106 -0.7525 -0.6863  0.8136
 6803TIP3   OH241823   0.304   6.699  16.019 -0.3278  0.0136 -0.1937
 6803TIP3    H141824   0.268   6.671  16.103 -3.1437 -0.8099 -1.6085
 6803TIP3    H241825   0.282   6.792  16.013 -1.3333 -0.2398 -0.5817
 6804TIP3   OH241826   5.321   0.107   4.759  0.1331  0.0293 -0.1053
 6804TIP3    H141827   5.377   0.063   4.822 -0.3278 -1.5994 -0.8252
 6804TIP3    H241828   5.313   0.196   4.793 -1.0348 -1.1205  2.7519
 6805TIP3   OH241829   6.045   4.285  11.726 -0.5428  0.1671 -0.4304
 6805TIP3    H141830   6.085   4.239  11.800  0.3658  0.2797 -0.8443
 6805TIP3    H241831   5.953   4.259  11.729 -0.5160  0.1458  0.7236
 6806TIP3   OH241832   6.562   5.880  10.471  0.3583  0.0184  0.3934
 6806TIP3    H141833   6.616   5.881  10.392  3.2796 -0.5573  2.2962
 6806TIP3    H241834   6.473   5.897  10.439  1.5927  0.8656 -2.8783
 6807TIP3   OH241835   5.343   5.019   2.840  0.0381 -0.1721  0.2869
 6807TIP3    H141836   5.294   5.013   2.922 -0.6380  0.1279 -0.0952
 6807TIP3    H241837   5.358   5.112   2.827 -0.6078 -0.1548 -0.3713
 6808TIP3   OH241838   1.630   3.570   4.313  0.2204  0.0938  0.1133
 6808TIP3    H141839   1.723   3.593   4.320  0.7385 -0.9176 -2.7293
 6808TIP3    H241840   1.593   3.637   4.257 -0.7757  0.4482  1.1825
 6809TIP3   OH241841   4.303   3.840   5.303 -0.7765  0.2145  0.1631
 6809TIP3    H141842   4.315   3.774   5.235 -0.4788  1.1804 -0.7419
 6809TIP3    H241843   4.389   3.880   5.313 -0.2330 -1.4352  2.7514
 6810TIP3   OH241844   0.808   4.634  12.440 -0.3109 -0.0198 -0.5515
 6810TIP3    H141845   0.882   4.618  12.382  1.4316 -0.0760  1.6029
 6810TIP3    H241846   0.774   4.546  12.461 -1.3937  0.0383 -2.0296
 6811TIP3   OH241847   5.273   3.375  12.304 -0.2938  0.4988 -0.8954
 6811TIP3    H141848   5.266   3.456  12.354 -1.1212  0.3502 -0.7705
 6811TIP3    H241849   5.366   3.350  12.311 -0.4601  0.3375  0.7568
 6812TIP3   OH241850   2.183   0.614   1.080  0.1679  0.3943 -0.6341
 6812TIP3    H141851   2.279   0.624   1.084  0.3759 -1.1634 -1.2250
 6812TIP3    H241852   2.153   0.639   1.168  1.2735 -0.4775  0.0093
 6813TIP3   OH241853   5.385   2.410   1.056 -0.0054  0.8421 -0.2657
 6813TIP3    H141854   5.446   2.456   1.114 -0.7765  2.1749 -0.4965
 6813TIP3    H241855   5.351   2.478   0.999  1.1346 -0.5155 -2.6531
 6814TIP3   OH241856   5.460   6.380  16.776 -0.4572  0.2815  0.4247
 6814TIP3    H141857   5.515   6.318  16.825 -0.9949  0.0102  0.6867
 6814TIP3    H241858   5.506   6.464  16.784  0.5854 -0.1994 -0.4422
 6815TIP3   OH241859   4.751   4.366  12.221 -0.4237 -0.7693 -0.0881
 6815TIP3    H141860   4.804   4.301  12.176  1.0057  0.4798 -0.2466
 6815TIP3    H241861   4.690   4.315  12.274 -0.4899 -2.2442 -1.5265
 6816TIP3   OH241862   4.746   3.531  15.440 -0.1422  0.0458 -0.1425
 6816TIP3    H141863   4.797   3.567  15.368 -1.7161  1.1402 -0.7273
 6816TIP3    H241864   4.675   3.594  15.454 -0.1899 -0.4423  1.9810
 6817TIP3   OH241865   1.207   3.383   5.402  0.0723  0.1679 -0.4957
 6817TIP3    H141866   1.145   3.450   5.431  1.0469  0.1696  1.6811
 6817TIP3    H241867   1.153   3.317   5.359 -1.2473  0.9124 -0.0089
 6818TIP3   OH241868   2.021   3.219   4.767  0.2757 -0.0847  0.4886
 6818TIP3    H141869   1.986   3.134   4.741 -0.0948  0.2944 -0.2850
 6818TIP3    H241870   2.099   3.199   4.818 -0.4519 -0.9145  1.2847
 6819TIP3   OH241871   2.986   1.680  15.809  0.4650 -0.0355  0.2983
 6819TIP3    H141872   3.009   1.685  15.902  0.8693 -1.8637  0.3166
 6819TIP3    H241873   2.946   1.765  15.790  0.4465  0.3943  2.1211
 6820TIP3   OH241874   6.064   3.821   2.359 -0.3848  0.3224 -0.2125
 6820TIP3    H141875   6.079   3.880   2.433 -0.2059  0.9349 -0.7344
 6820TIP3    H241876   6.118   3.857   2.288  0.9855 -1.3843 -0.0605
 6821TIP3   OH241877   6.610   5.658  14.550  0.5023 -0.4743 -0.5165
 6821TIP3    H141878   6.625   5.587  14.613  2.0435  0.4352  0.1697
 6821TIP3    H241879   6.527   5.635  14.508  0.6420 -2.3435  0.1544
 6822TIP3   OH241880   1.085   0.770  13.411 -0.5987  0.2658 -0.3769
 6822TIP3    H141881   0.990   0.782  13.407 -0.4688  1.1018 -1.0884
 6822TIP3    H241882   1.118   0.853  13.445 -0.1772 -0.2883  0.5805
 6823TIP3   OH241883   1.555   5.533  15.001  0.2334  0.2764  0.0535
 6823TIP3    H141884   1.550   5.535  15.097 -1.2279  0.3693 -0.0125
 6823TIP3    H241885   1.611   5.608  14.978  0.1251  0.5916  0.8020
 6824TIP3   OH241886   1.317   4.340   1.583  0.4676  0.1698  0.1381
 6824TIP3    H141887   1.276   4.355   1.668  0.1716  1.3675 -0.2019
 6824TIP3    H241888   1.280   4.408   1.526  1.7712  0.3089 -0.5720
 6825TIP3   OH241889   3.971   3.892  14.379 -0.5147  0.0572 -0.5622
 6825TIP3    H141890   4.021   3.857  14.305 -0.3024 -1.6164  0.3559
 6825TIP3    H241891   3.923   3.967  14.342  2.0951  1.2831 -1.6121
 6826TIP3   OH241892   5.399   4.453   0.632  0.0334  0.2907  0.2530
 6826TIP3    H141893   5.452   4.401   0.692  1.3142  1.5435  0.2284
 6826TIP3    H241894   5.373   4.530   0.683 -2.0826 -0.4758  0.3793
 6827TIP3   OH241895   3.735   3.385  11.559  0.7959 -0.1175 -0.2773
 6827TIP3    H141896   3.792   3.453  11.525 -0.7093  0.9817 -0.6405
 6827TIP3    H241897   3.658   3.387  11.502  0.7725 -2.1864 -0.3559
 6828TIP3   OH241898   2.084   6.578   2.638  0.1408 -0.0770 -0.6539
 6828TIP3    H141899   2.152   6.629   2.596  1.7186 -0.5643  1.2609
 6828TIP3    H241900   2.022   6.643   2.672 -0.1893  0.3700 -2.0679
 6829TIP3   OH241901   6.726   1.456  15.108  0.0074 -0.2026  0.3756
 6829TIP3    H141902   6.645   1.412  15.133  0.6496 -0.6343  1.7615
 6829TIP3    H241903   6.790   1.386  15.098  0.0778  0.0700 -1.3608
 6830TIP3   OH241904   5.366   0.368  12.610  0.4012 -0.3351  0.5010
 6830TIP3    H141905   5.385   0.279  12.581  1.3453  0.0015  0.0474
 6830TIP3    H241906   5.407   0.423  12.543  2.1674  0.4676  2.1917
 6831TIP3   OH241907   5.456   4.990  14.775  0.1048 -0.5505  0.4931
 6831TIP3    H141908   5.369   4.986  14.735  0.3733  1.2429 -0.3148
 6831TIP3    H241909   5.512   4.942  14.714  0.1319  0.4183 -0.2516
 6832TIP3   OH241910   4.590   0.294  11.744 -0.6985  0.1637 -0.4414
 6832TIP3    H141911   4.520   0.235  11.772 -0.7055 -0.2365 -1.2793
 6832TIP3    H241912   4.621   0.334  11.825 -2.9134  1.4700 -0.1766
 6833TIP3   OH241913   6.266   3.448  12.090  0.0220  0.5526  0.1510
 6833TIP3    H141914   6.251   3.398  12.010 -0.1805  0.7133  0.0875
 6833TIP3    H241915   6.239   3.537  12.068 -0.0798  0.5867  0.4142
 6834TIP3   OH241916   4.457   5.311   6.064  0.3121 -0.5543  0.6471
 6834TIP3    H141917   4.424   5.387   6.016  0.8886 -0.8698 -0.2549
 6834TIP3    H241918   4.378   5.271   6.102 -0.0891 -0.0151  0.3884
 6835TIP3   OH241919   0.521   6.487  11.389  0.4197 -0.4060  0.1588
 6835TIP3    H141920   0.441   6.539  11.401  1.0640 -0.1027  3.3317
 6835TIP3    H241921   0.494   6.397  11.409  0.9204 -0.2705  1.4506
 6836TIP3   OH241922   6.323   1.742  15.461  0.0389  0.0723 -0.0107
 6836TIP3    H141923   6.270   1.684  15.516 -3.1944  2.7346 -0.1114
 6836TIP3    H241924   6.311   1.829  15.500  1.7768  1.2214 -1.9676
 6837TIP3   OH241925   3.875   6.685  16.119 -0.6728 -0.3030  0.4412
 6837TIP3    H141926   3.833   6.622  16.178 -1.2864  0.7809  1.1712
 6837TIP3    H241927   3.802   6.730  16.077 -0.2440  0.4865  0.5354
 6838TIP3   OH241928   3.613   2.166  16.419  0.3984  0.4929  0.6200
 6838TIP3    H141929   3.694   2.115  16.409  1.1381  1.7268  0.2498
 6838TIP3    H241930   3.633   2.251  16.379 -1.3098  0.5700 -0.0902
 6839TIP3   OH241931   3.009   4.421  13.212 -0.1555  0.7837 -0.4726
 6839TIP3    H141932   2.956   4.499  13.223 -0.9165  0.1626  0.3146
 6839TIP3    H241933   2.946   4.351  13.195  0.5192  0.3303 -1.1458
 6840TIP3   OH241934   0.464   2.881   6.797  0.1622  0.6267 -0.3914
 6840TIP3    H141935   0.397   2.813   6.802 -1.2461  2.0038  0.0981
 6840TIP3    H241936   0.450   2.922   6.712  1.7721 -0.4500 -1.1847
 6841TIP3   OH241937   1.610   0.394   4.793 -0.0593  0.7484  0.0877
 6841TIP3    H141938   1.569   0.316   4.829 -0.8195  1.0025 -0.2141
 6841TIP3    H241939   1.539   0.440   4.748  0.6456  0.9592 -0.8369
 6842TIP3   OH241940   4.096   6.376  16.952  0.7125  0.5851  0.4964
 6842TIP3    H141941   4.126   6.295  16.910 -2.4351  0.0049 -0.7305
 6842TIP3    H241942   4.036   6.347  17.021 -2.0422  1.9060 -1.2844
 6843TIP3   OH241943   4.361   0.910   4.700 -0.5288 -0.3701 -0.7117
 6843TIP3    H141944   4.442   0.910   4.750 -1.5368 -0.7577  0.9720
 6843TIP3    H241945   4.388   0.914   4.608  1.3544  0.4088 -0.1292
 6844TIP3   OH241946   3.781   4.461   2.416  0.2900  0.4237  0.0807
 6844TIP3    H141947   3.802   4.472   2.323  0.4405  0.7881  0.1555
 6844TIP3    H241948   3.852   4.406   2.449  0.8150  1.1605  0.2036
 6845TIP3   OH241949   0.517   2.647  11.307 -0.8387  0.5073 -0.1386
 6845TIP3    H141950   0.456   2.575  11.320 -0.5695  0.1740 -0.6769
 6845TIP3    H241951   0.594   2.624  11.358 -0.8310  0.5086 -0.1486
 6846TIP3   OH241952   3.551   1.758  14.745  0.2962 -0.0362 -0.1081
 6846TIP3    H141953   3.533   1.731  14.835 -1.7498 -2.2365 -1.1250
 6846TIP3    H241954   3.527   1.850  14.743 -1.9816 -0.5701  1.0174
 6847TIP3   OH241955   3.722   1.524  12.508 -0.3652  0.4837  0.3174
 6847TIP3    H141956   3.645   1.554  12.459  0.0767  0.9931 -0.0714
 6847TIP3    H241957   3.752   1.446  12.461 -0.3965  0.5268  0.2267
 6848TIP3   OH241958   3.448   4.242  12.307  0.0124  0.1619  0.0160
 6848TIP3    H141959   3.528   4.216  12.261 -0.9794 -2.2618 -0.4297
 6848TIP3    H241960   3.389   4.270  12.238 -0.7025 -1.3708 -0.0256
 6849TIP3   OH241961   5.260   6.088   4.805  0.1861  0.1701 -0.3160
 6849TIP3    H141962   5.299   6.005   4.777  0.0109  0.1705 -0.5586
 6849TIP3    H241963   5.329   6.153   4.792  0.1626  0.1416 -0.5748
 6850TIP3   OH241964   0.333   2.081  11.836  0.0079 -0.1223  0.0376
 6850TIP3    H141965   0.248   2.038  11.826 -0.0590  0.2772 -1.2837
 6850TIP3    H241966   0.359   2.063  11.926 -1.2423 -0.6788  0.2984
 6851TIP3   OH241967   4.085   5.446  17.041 -0.6519 -0.2804 -0.6146
 6851TIP3    H141968   4.158   5.494  17.079 -1.1554  1.9101 -2.3494
 6851TIP3    H241969   4.008   5.497  17.064 -1.5813 -2.1371  0.5011
 6852TIP3   OH241970   1.035   1.585   5.307 -0.3058 -0.2377  0.0408
 6852TIP3    H141971   0.998   1.569   5.394  0.2649  0.1324  0.3515
 6852TIP3    H241972   0.962   1.570   5.248 -1.0662  0.8572  0.6763
 6853TIP3   OH241973   6.198   5.072   5.918  0.0329  0.2661 -0.0823
 6853TIP3    H141974   6.281   5.034   5.948  0.4769 -0.9155 -2.6725
 6853TIP3    H241975   6.188   5.152   5.970  1.1984 -1.2158  2.5008
 6854TIP3   OH241976   4.583   2.347  15.864 -0.3270  0.1324 -0.6715
 6854TIP3    H141977   4.514   2.288  15.832 -1.4798  0.7636  0.6298
 6854TIP3    H241978   4.548   2.435  15.852  0.6028  0.4967 -0.7777
 6855TIP3   OH241979   0.984   0.019  13.744 -0.0561 -0.0907 -0.4202
 6855TIP3    H141980   0.932  -0.026  13.811 -0.2035  1.1297  0.2857
 6855TIP3    H241981   1.023  -0.052  13.693  1.3942 -1.0733  1.9491
 6856TIP3   OH241982   5.547   5.113   4.571 -0.0272  0.2897 -0.0813
 6856TIP3    H141983   5.626   5.131   4.621 -1.4025  1.1512  1.8385
 6856TIP3    H241984   5.481   5.171   4.608 -1.2832  0.4052 -2.4209
 6857TIP3   OH241985   0.782   2.719   0.366 -0.4861  0.8282 -0.2693
 6857TIP3    H141986   0.719   2.661   0.323  0.1088  0.6272 -0.8902
 6857TIP3    H241987   0.736   2.754   0.441 -0.7461 -0.7219  0.3159
 6858TIP3   OH241988   1.072   6.327  13.625  0.0888  0.2604  0.1547
 6858TIP3    H141989   1.122   6.245  13.617  0.2616  0.4563 -0.7365
 6858TIP3    H241990   0.981   6.298  13.634  0.0329  0.0056 -1.2109
 6859TIP3   OH241991   1.648   0.786   5.156  0.9453  0.1120 -0.2809
 6859TIP3    H141992   1.715   0.755   5.217  1.2467 -1.5214 -1.3893
 6859TIP3    H241993   1.624   0.707   5.106 -1.1936  0.8535 -0.4598
 6860TIP3   OH241994   6.309   2.721   1.990  0.3905  0.1501  0.4759
 6860TIP3    H141995   6.248   2.765   1.932  0.3959 -1.5721 -0.8546
 6860TIP3    H241996   6.255   2.684   2.060  0.0942  0.0345  0.1826
 6861TIP3   OH241997   6.448   0.896   5.490  0.4246  0.1006  0.7151
 6861TIP3    H141998   6.372   0.841   5.506  0.8928 -0.7208  0.1448
 6861TIP3    H241999   6.493   0.854   5.417  1.2966  0.7090  0.8955
 6862TIP3   OH242000   0.864   2.801  10.532  0.6070  0.0815 -0.0809
 6862TIP3    H142001   0.955   2.773  10.548  0.7599  1.5011  1.6207
 6862TIP3    H242002   0.872   2.874  10.471  0.7918  1.8060  1.9868
 6863TIP3   OH242003   2.001   3.844   4.218 -0.0946  0.4411 -0.3468
 6863TIP3    H142004   2.011   3.861   4.312 -1.9553 -0.3990  0.0242
 6863TIP3    H242005   1.918   3.886   4.195 -0.5713 -0.9372 -1.2070
 6864TIP3   OH242006   6.624   3.589   0.305  0.1898  0.5325  0.4743
 6864TIP3    H142007   6.543   3.611   0.352  0.4556 -0.5136  1.4549
 6864TIP3    H242008   6.686   3.567   0.374  0.3985 -1.6927 -0.3908
 6865TIP3   OH242009   1.224   5.551   0.300 -0.0093 -0.6908 -0.7966
 6865TIP3    H142010   1.302   5.550   0.245 -0.2734  1.0992 -1.2395
 6865TIP3    H242011   1.226   5.637   0.342 -0.2087 -1.7366  1.4321
 6866TIP3   OH242012   3.598   3.795  16.422  0.2044  0.6878 -0.5260
 6866TIP3    H142013   3.594   3.700  16.410  1.4631  0.7140 -1.2868
 6866TIP3    H242014   3.689   3.817  16.402  0.3080  1.8480  1.2054
 6867TIP3   OH242015   2.471   5.386   4.677  0.1178 -0.4540 -0.2036
 6867TIP3    H142016   2.520   5.320   4.628  1.4497  0.5250 -0.2136
 6867TIP3    H242017   2.393   5.402   4.625  0.0461 -1.6442 -0.4600
 6868TIP3   OH242018   1.231   2.539  13.000 -0.2579  0.0863 -0.0418
 6868TIP3    H142019   1.215   2.569  13.089  2.1732  1.1733  0.0651
 6868TIP3    H242020   1.268   2.451  13.010 -1.1910 -0.3120 -0.0505
 6869TIP3   OH242021   0.077   3.808   5.603 -0.1046  0.1954  0.2280
 6869TIP3    H142022   0.166   3.801   5.636  0.3774 -1.9309 -1.4166
 6869TIP3    H242023   0.084   3.785   5.510 -2.0287  2.1343 -0.4234
 6870TIP3   OH242024   0.388   2.411   3.813  0.3847 -0.5655 -0.0731
 6870TIP3    H142025   0.346   2.378   3.893 -0.0947  0.7897  0.2581
 6870TIP3    H242026   0.419   2.498   3.838  1.2582 -0.5965 -1.0411
 6871TIP3   OH242027   3.750   1.221  14.447  0.0984  0.0415  0.3369
 6871TIP3    H142028   3.766   1.144  14.502  0.7924 -0.5923 -0.7231
 6871TIP3    H242029   3.662   1.206  14.411  0.0848 -0.0753  0.4181
 6872TIP3   OH242030   6.401   4.277   1.731  0.3082 -0.8678 -0.1286
 6872TIP3    H142031   6.350   4.218   1.676 -0.5505 -1.2950  1.0863
 6872TIP3    H242032   6.349   4.357   1.735  0.7117 -0.5886 -0.5171
 6873TIP3   OH242033   3.130   6.020  15.196 -0.2398  0.6187 -0.2827
 6873TIP3    H142034   3.122   6.114  15.213 -1.2166  0.3086  1.0475
 6873TIP3    H242035   3.222   6.001  15.216 -0.4265  1.0027  0.9972
 6874TIP3   OH242036   5.710   0.029   4.899  0.4428  0.1926 -0.1628
 6874TIP3    H142037   5.783  -0.033   4.902  0.2363 -0.0898 -0.7517
 6874TIP3    H242038   5.743   0.108   4.942  1.0110 -0.0165 -0.2097
 6875TIP3   OH242039   4.797   5.684   4.042  0.0471 -0.3554 -0.3424
 6875TIP3    H142040   4.759   5.717   3.961 -1.4457  1.0798  0.9265
 6875TIP3    H242041   4.845   5.605   4.015 -1.9200 -0.9289 -2.3315
 6876TIP3   OH242042   2.727   5.183   2.502 -0.1182  0.1786  0.0131
 6876TIP3    H142043   2.682   5.190   2.418  1.3153  1.5184 -0.6899
 6876TIP3    H242044   2.722   5.271   2.539 -0.6479 -0.3795  1.3011
 6877TIP3   OH242045   5.551   3.697  16.953  0.4235  0.0937 -0.1629
 6877TIP3    H142046   5.568   3.692  17.047 -0.4449 -1.5360 -0.0677
 6877TIP3    H242047   5.458   3.674  16.945 -0.2192  2.8564 -1.1903
 6878TIP3   OH242048   0.884   1.277  17.107  0.5468 -0.5776 -0.1638
 6878TIP3    H142049   0.932   1.275  17.189  0.7207 -1.3671 -0.2812
 6878TIP3    H242050   0.826   1.201  17.111 -0.4549  0.1720 -0.1699
 6879TIP3   OH242051   2.240   5.725   6.343  0.0060  0.5355  0.0053
 6879TIP3    H142052   2.217   5.685   6.426  0.5755  0.2754  0.0459
 6879TIP3    H242053   2.168   5.785   6.323 -0.0837  0.6654  0.7272
 6880TIP3   OH242054   0.551   4.725  14.922  0.0365  0.0007 -0.2236
 6880TIP3    H142055   0.590   4.811  14.935 -0.4858  0.0745  0.9092
 6880TIP3    H242056   0.550   4.685  15.009 -1.5096 -0.3681 -0.3880
 6881TIP3   OH242057   5.688   3.028   3.439 -0.1361  0.1554 -0.1235
 6881TIP3    H142058   5.650   3.081   3.509 -0.7607 -1.6645  0.9725
 6881TIP3    H242059   5.707   3.090   3.369 -0.8329  1.8028  1.1052
 6882TIP3   OH242060   1.427   2.179   5.084 -0.5429 -0.1434  0.2243
 6882TIP3    H142061   1.336   2.207   5.097 -0.6223 -0.8292  1.1605
 6882TIP3    H242062   1.453   2.221   5.002 -1.8754 -0.3619 -0.3236
 6883TIP3   OH242063   3.686   5.075  11.251 -0.1545 -0.2619 -0.2280
 6883TIP3    H142064   3.684   5.004  11.186 -1.3345  1.2202 -1.8547
 6883TIP3    H242065   3.766   5.124  11.230 -0.4166  0.0836 -0.4246
 6884TIP3   OH242066   4.313   0.955   2.892 -0.0595  0.2876 -0.2724
 6884TIP3    H142067   4.368   0.935   2.817  2.5525  0.6580  1.4747
 6884TIP3    H242068   4.281   1.044   2.876 -0.3975 -0.0425 -1.4368
 6885TIP3   OH242069   2.891   6.783   0.889  0.0829 -0.0332  0.0752
 6885TIP3    H142070   2.955   6.840   0.846 -0.4133  0.5899  0.1464
 6885TIP3    H242071   2.910   6.793   0.983 -0.3105  0.3885  0.1118
 6886TIP3   OH242072   2.923   6.330  17.070 -0.1206  0.1664 -0.3781
 6886TIP3    H142073   3.009   6.298  17.099 -0.1945 -0.6628 -1.0317
 6886TIP3    H242074   2.902   6.274  16.995 -2.5376 -1.5450  1.5007
 6887TIP3   OH242075   6.244   6.058  13.226 -0.2682 -0.0510  0.0666
 6887TIP3    H142076   6.223   6.151  13.214  1.2702  0.3411  0.3592
 6887TIP3    H242077   6.274   6.051  13.317 -0.6561 -0.9033  0.1412
 6888TIP3   OH242078   4.898   0.798   4.409  0.1835  0.4105  0.2123
 6888TIP3    H142079   4.990   0.774   4.422 -0.1621 -0.1463  1.7823
 6888TIP3    H242080   4.898   0.894   4.418  0.6125  0.4150  0.1991
 6889TIP3   OH242081   2.915   2.059   5.514  0.2816  0.6885 -0.5144
 6889TIP3    H142082   2.846   2.067   5.580 -0.4664 -0.1748 -1.1727
 6889TIP3    H242083   2.877   2.094   5.434  0.6086  0.2202 -0.8802
 6890TIP3   OH242084   0.058   3.538   0.771  0.0324 -0.2542  0.4690
 6890TIP3    H142085   0.114   3.615   0.789 -2.4514  1.5816  0.5858
 6890TIP3    H242086  -0.012   3.544   0.836 -0.4831 -2.3520  0.1318
 6891TIP3   OH242087   3.540   4.011  17.063  0.1159 -0.2323 -0.3693
 6891TIP3    H142088   3.494   4.004  17.147 -0.5842  0.5690 -0.6809
 6891TIP3    H242089   3.486   3.961  17.002 -0.9889  1.6935 -0.9952
 6892TIP3   OH242090   5.784   1.326   5.164 -0.0588 -0.5265  0.1063
 6892TIP3    H142091   5.754   1.239   5.137 -0.1438 -0.5622  0.3167
 6892TIP3    H242092   5.879   1.319   5.169  0.1785  0.1762 -2.6873
 6893TIP3   OH242093   2.775   0.823  10.387 -0.0956  0.9109  0.2004
 6893TIP3    H142094   2.744   0.732  10.380  1.4225  0.5131 -1.9499
 6893TIP3    H242095   2.844   0.820  10.454 -0.5262  0.6079  0.6297
 6894TIP3   OH242096   1.870   4.193   0.495  0.0971 -0.4917 -0.6577
 6894TIP3    H142097   1.946   4.212   0.439 -0.1870 -1.8405 -1.5342
 6894TIP3    H242098   1.835   4.111   0.460 -0.9448 -0.6023  0.6173
 6895TIP3   OH242099   3.738   0.028   1.935  0.0041  0.2322  0.1500
 6895TIP3    H142100   3.829   0.003   1.921 -0.2330 -1.3141  1.2409
 6895TIP3    H242101   3.738   0.071   2.021 -0.0436  1.6265 -0.5388
 6896TIP3   OH242102   2.281   1.929   0.064 -0.5524  0.3575 -0.2135
 6896TIP3    H142103   2.337   1.937  -0.013 -0.2098  3.9849  0.3308
 6896TIP3    H242104   2.339   1.898   0.133 -0.6363 -1.8906 -1.1033
 6897TIP3   OH242105   2.982   4.921   4.037 -0.1070 -0.2929 -0.2171
 6897TIP3    H142106   3.036   4.882   4.106 -1.0047  0.3352  0.8635
 6897TIP3    H242107   3.003   4.870   3.958  1.4531 -0.5646  0.3590
 6898TIP3   OH242108   5.643   4.641  10.751 -0.4103 -0.0360 -0.1798
 6898TIP3    H142109   5.569   4.616  10.696 -0.2184 -0.8171 -0.0942
 6898TIP3    H242110   5.718   4.597  10.711 -0.2701 -0.6392  0.7084
 6899TIP3   OH242111   6.264   6.186   4.158  0.3137  0.2077 -0.5858
 6899TIP3    H142112   6.323   6.148   4.093 -0.2118 -0.2399 -0.8059
 6899TIP3    H242113   6.322   6.217   4.228  0.8438  0.2433 -1.0360
 6900TIP3   OH242114   1.501   3.973   4.476 -0.1117  0.2042  0.0808
 6900TIP3    H142115   1.547   3.958   4.559 -0.7433 -3.7421 -0.2116
 6900TIP3    H242116   1.419   4.015   4.502 -1.2139 -2.8331  1.6971
 6901TIP3   OH242117   2.162   1.677  15.529 -0.1807  0.2274 -0.2459
 6901TIP3    H142118   2.147   1.677  15.435 -0.1724 -0.1773 -0.2486
 6901TIP3    H242119   2.205   1.593  15.546 -0.7830  0.0074  0.2151
 6902TIP3   OH242120   3.058   1.498  12.992  0.0817 -0.5050  0.1287
 6902TIP3    H142121   3.014   1.414  12.985  1.5667 -1.4052  1.2159
 6902TIP3    H242122   3.144   1.477  13.028  0.8414  1.3658 -0.5078
 6903TIP3   OH242123   1.011   6.180  15.624 -0.2962 -0.0321  0.5560
 6903TIP3    H142124   0.930   6.137  15.596 -0.3964  0.4918  0.0374
 6903TIP3    H242125   1.032   6.240  15.552  1.1169 -0.9345  0.1940
 6904TIP3   OH242126   2.614   4.406  15.902 -0.5107 -0.3875 -0.0390
 6904TIP3    H142127   2.579   4.465  15.835 -1.1930 -1.2821 -0.4789
 6904TIP3    H242128   2.677   4.352  15.856  2.1919  1.8196  0.9349
 6905TIP3   OH242129   4.987   5.964   4.842  0.1193 -0.4260  0.5166
 6905TIP3    H142130   5.066   5.923   4.805 -0.2441  1.8855 -3.0660
 6905TIP3    H242131   5.006   6.058   4.840 -2.4268  0.1033  0.3557
 6906TIP3   OH242132   1.176   1.092  17.153 -0.4031  0.2173 -0.2186
 6906TIP3    H142133   1.198   1.170  17.101 -0.4439 -0.2767 -0.9741
 6906TIP3    H242134   1.165   1.022  17.089  0.8279 -0.6940  0.5601
 6907TIP3   OH242135   3.770   5.788   1.946 -0.7479  0.0751  0.7477
 6907TIP3    H142136   3.807   5.700   1.949  1.4515  0.9259 -0.0324
 6907TIP3    H242137   3.694   5.784   2.004 -1.7255 -2.7813 -0.6278
 6908TIP3   OH242138   4.788   6.323  13.324  0.5875  0.4457 -0.4540
 6908TIP3    H142139   4.743   6.382  13.264 -1.4579  0.7825  1.3573
 6908TIP3    H242140   4.745   6.238  13.309 -1.3099  0.9486  1.8789
 6909TIP3   OH242141   6.454   1.986  16.787  0.2083 -0.2188 -0.6635
 6909TIP3    H142142   6.381   1.950  16.738  0.6520 -0.5837 -1.0584
 6909TIP3    H242143   6.470   2.072  16.747  0.8428 -0.6907 -1.4498
 6910TIP3   OH242144   0.816   1.014   2.691 -0.4698  0.9451 -0.0090
 6910TIP3    H142145   0.752   0.973   2.749  0.6308 -0.6512  0.1162
 6910TIP3    H242146   0.809   0.966   2.609 -1.4477  2.6687 -0.9671
 6911TIP3   OH242147   1.433   3.526  12.291 -0.3955  0.4243  0.8344
 6911TIP3    H142148   1.409   3.560  12.377 -0.1325  0.4895  0.8814
 6911TIP3    H242149   1.380   3.447  12.280 -0.4576  0.4394  1.0394
 6912TIP3   OH242150   1.691   3.082  16.108  0.3156 -0.0070 -0.2691
 6912TIP3    H142151   1.694   3.003  16.054  0.1933 -0.2723  0.1141
 6912TIP3    H242152   1.732   3.056  16.190 -1.9097 -0.3594  0.7637
 6913TIP3   OH242153   0.330   1.489   2.010  0.2126 -0.4805  0.1055
 6913TIP3    H142154   0.362   1.515   1.923 -0.8441 -0.8829 -0.4065
 6913TIP3    H242155   0.404   1.506   2.068  0.5295  0.9194 -0.6806
 6914TIP3   OH242156   3.447   0.072  15.027 -0.5833 -0.1130 -0.1064
 6914TIP3    H142157   3.448   0.039  14.937  0.4785 -2.3267  0.6790
 6914TIP3    H242158   3.535   0.108  15.040 -0.6670  0.0145  0.1107
 6915TIP3   OH242159   5.378   2.806   0.444  0.5536  0.0301 -0.1052
 6915TIP3    H142160   5.409   2.762   0.523 -0.1689  0.5155  0.4492
 6915TIP3    H242161   5.391   2.741   0.374  0.5752 -0.6352  0.5144
 6916TIP3   OH242162   6.277   2.674  14.483  0.1454  0.3360  0.8160
 6916TIP3    H142163   6.328   2.620  14.424 -2.9079 -1.4008 -0.3360
 6916TIP3    H242164   6.304   2.648  14.571  0.1730 -1.6127  0.2311
 6917TIP3   OH242165   3.593   4.955   2.710 -0.7305 -0.6118  0.4948
 6917TIP3    H142166   3.518   4.997   2.669 -0.4253  1.0903  1.5772
 6917TIP3    H242167   3.619   4.886   2.649 -1.8762  0.1390 -0.8824
 6918TIP3   OH242168   1.092   1.676  13.968 -0.1382 -0.1742 -0.3955
 6918TIP3    H142169   1.139   1.730  14.033  1.6739 -1.2439 -0.7718
 6918TIP3    H242170   1.124   1.587  13.984 -2.1643 -0.9565 -0.6022
 6919TIP3   OH242171   0.396   4.911   5.901 -0.2485  0.2119 -0.2097
 6919TIP3    H142172   0.312   4.942   5.867  0.4944 -0.7336 -3.0897
 6919TIP3    H242173   0.385   4.817   5.913  0.1662  0.2035  0.1306
 6920TIP3   OH242174   5.089   0.852  15.669 -0.1979 -0.3374 -0.0607
 6920TIP3    H142175   5.057   0.839  15.580 -0.0070 -0.5472 -0.1005
 6920TIP3    H242176   5.113   0.945  15.673 -0.0400 -0.3682 -0.2829
 6921TIP3   OH242177   5.398   3.896   5.346 -0.3600 -0.1408  0.4788
 6921TIP3    H142178   5.373   3.808   5.317  1.7556  0.2929 -2.8654
 6921TIP3    H242179   5.318   3.948   5.336 -0.6871 -0.8937 -0.9379
 6922TIP3   OH242180   0.961   5.498  13.024 -0.3660 -0.3276 -0.3069
 6922TIP3    H142181   0.874   5.458  13.030  0.0116 -0.8971  2.0720
 6922TIP3    H242182   1.021   5.426  13.043  0.4372  0.7735  1.4766
 6923TIP3   OH242183   3.545   2.572  13.526 -0.2690  0.9301 -0.4746
 6923TIP3    H142184   3.493   2.505  13.482 -0.3106  0.2535  0.6019
 6923TIP3    H242185   3.520   2.566  13.618  3.0869 -0.7178  0.4151
 6924TIP3   OH242186   3.163   0.572  16.658 -0.4401  0.1304 -0.4767
 6924TIP3    H142187   3.186   0.650  16.708  0.1464 -0.0597 -0.4385
 6924TIP3    H242188   3.189   0.593  16.568  0.5542 -0.3447 -0.3152
 6925TIP3   OH242189   2.195   0.503  16.402  0.1365  0.3790  0.0732
 6925TIP3    H142190   2.132   0.542  16.462 -0.7496  1.0673 -1.2844
 6925TIP3    H242191   2.148   0.496  16.318  1.6922  0.4693 -0.8321
 6926TIP3   OH242192   0.298   1.250   2.907  0.0630 -0.0777  0.2815
 6926TIP3    H142193   0.213   1.286   2.882 -0.2920  1.1332  3.0470
 6926TIP3    H242194   0.346   1.324   2.944  1.7778 -1.0796  0.1424
 6927TIP3   OH242195   5.342   6.490   2.059 -0.0716 -0.6222 -0.2988
 6927TIP3    H142196   5.388   6.454   2.135  0.6862  0.1440 -0.3948
 6927TIP3    H242197   5.407   6.488   1.989 -0.4333 -0.2873 -0.6411
 6928TIP3   OH242198   6.627   5.626   1.884 -0.3676  0.4593  0.0967
 6928TIP3    H142199   6.542   5.590   1.909 -0.9829  0.9333 -1.2856
 6928TIP3    H242200   6.614   5.659   1.795  1.5868 -0.5186 -0.5600
 6929TIP3   OH242201   2.872   1.097   2.126 -0.1532 -0.1578  0.7796
 6929TIP3    H142202   2.819   1.066   2.053  1.4680  0.7857 -0.8650
 6929TIP3    H242203   2.957   1.118   2.086  0.3258  1.6937  2.6839
 6930TIP3   OH242204   5.190   0.598  12.931  0.0078  0.1375  0.5938
 6930TIP3    H142205   5.275   0.556  12.924 -0.0247  0.1057  0.3880
 6930TIP3    H242206   5.136   0.536  12.980 -0.4101 -0.6360 -0.8056
 6931TIP3   OH242207   3.390   3.371   1.940  0.0551  0.5678 -0.2122
 6931TIP3    H142208   3.484   3.369   1.923  0.0307  0.4768 -0.3420
 6931TIP3    H242209   3.352   3.321   1.868 -0.1522  1.1938 -0.5394
 6932TIP3   OH242210   3.107   1.801  11.819  0.2730  0.1887 -0.5971
 6932TIP3    H142211   3.026   1.767  11.782 -0.3014 -0.5222  1.2386
 6932TIP3    H242212   3.151   1.843  11.746 -1.6991  0.4945 -1.6451
 6933TIP3   OH242213   2.252   4.033  11.513  0.2380  0.3376  0.3429
 6933TIP3    H142214   2.300   4.098  11.462 -0.1119  0.6087  0.3539
 6933TIP3    H242215   2.171   4.077  11.537 -0.4819 -0.4705 -0.5584
 6934TIP3   OH242216   6.026   4.916   0.953  0.0969 -0.4025  0.0430
 6934TIP3    H142217   6.081   4.861   1.009 -0.1501 -2.1850 -1.4073
 6934TIP3    H242218   6.088   4.971   0.905  0.6206 -2.0240 -1.1863
 6935TIP3   OH242219   2.826   3.401   2.276  0.1227  0.2980  0.1452
 6935TIP3    H142220   2.749   3.382   2.329  0.5208 -0.9672  0.2859
 6935TIP3    H242221   2.832   3.328   2.214  0.3151  1.1809 -0.9003
 6936TIP3   OH242222   4.096   2.212   6.068 -0.3708  0.2972 -0.4199
 6936TIP3    H142223   4.043   2.155   6.012  0.4125 -0.3573 -0.4979
 6936TIP3    H242224   4.183   2.172   6.068  0.1011  1.3107 -0.2015
 6937TIP3   OH242225   5.288   3.296  16.218  0.1548  0.2595  0.0189
 6937TIP3    H142226   5.364   3.346  16.249 -0.6546  2.1553 -0.9433
 6937TIP3    H242227   5.217   3.323  16.276 -0.2360  0.0280 -0.3542
 6938TIP3   OH242228   1.180   0.948  11.937  0.1430  0.4871 -0.6619
 6938TIP3    H142229   1.182   1.041  11.913  1.8158  0.6515  0.0022
 6938TIP3    H242230   1.096   0.936  11.981  0.3312  1.9422  0.1531
 6939TIP3   OH242231   6.172   6.020  16.545  0.1845 -0.6784  0.5833
 6939TIP3    H142232   6.079   6.031  16.528  0.5292 -0.3216 -1.1102
 6939TIP3    H242233   6.205   6.108  16.560  0.6792 -0.5507 -1.1471
 6940TIP3   OH242234   4.438   6.216  15.733 -0.3070 -0.0805 -0.1206
 6940TIP3    H142235   4.449   6.153  15.805 -2.7259  0.3640  0.6747
 6940TIP3    H242236   4.474   6.298  15.768  0.1698 -0.3118 -0.0709
 6941TIP3   OH242237   6.199   5.747   2.085  0.1444  0.4798  0.6427
 6941TIP3    H142238   6.188   5.706   2.171  0.9564  1.8199  1.4033
 6941TIP3    H242239   6.247   5.828   2.103 -0.9839  1.5178 -0.8828
 6942TIP3   OH242240   4.509   3.102  13.571  0.0568  0.0714  0.4036
 6942TIP3    H142241   4.564   3.084  13.647 -1.3279 -1.3786  1.1152
 6942TIP3    H242242   4.568   3.096  13.496  0.9912 -0.8740  1.1942
 6943TIP3   OH242243   3.965   3.650  14.515 -0.1745 -0.3821 -0.3143
 6943TIP3    H142244   4.033   3.677  14.576 -0.8360  0.8278 -0.1036
 6943TIP3    H242245   3.933   3.731  14.476 -1.7589 -0.8838 -0.1306
 6944TIP3   OH242246   5.016   4.341  14.768  0.1555 -0.0962 -0.0028
 6944TIP3    H142247   4.961   4.269  14.798 -0.7560  0.8215  0.5834
 6944TIP3    H242248   5.030   4.395  14.845  1.6836 -0.1689 -0.2085
 6945TIP3   OH242249   5.867   6.666  16.003  1.0001  0.0847 -0.7418
 6945TIP3    H142250   5.876   6.697  15.913 -0.1223 -0.4604 -1.0554
 6945TIP3    H242251   5.773   6.646  16.012  1.0009  0.6947  0.7268
 6946TIP3   OH242252   4.702   3.477   0.079  0.0979  0.3011  0.3237
 6946TIP3    H142253   4.622   3.449   0.032  0.5872  2.1066 -1.6511
 6946TIP3    H242254   4.671   3.501   0.166 -1.4297  0.3454 -0.2062
 6947TIP3   OH242255   3.795   1.755  12.206 -0.2960  0.0378  0.1282
 6947TIP3    H142256   3.874   1.765  12.153  0.7829 -0.0617  1.6672
 6947TIP3    H242257   3.806   1.818  12.277 -0.6921 -1.3055  1.4126
 6948TIP3   OH242258   6.402   4.525  14.245 -0.1037 -0.2523 -0.1796
 6948TIP3    H142259   6.474   4.462  14.243 -1.1405 -1.5610  1.9885
 6948TIP3    H242260   6.409   4.568  14.330  0.0254  1.9538 -1.2525
 6949TIP3   OH242261   0.505   1.909   4.348  0.1019 -0.4590 -0.0136
 6949TIP3    H142262   0.487   1.872   4.261  0.3241  0.6896 -0.5548
 6949TIP3    H242263   0.600   1.908   4.355  0.1445  0.7383 -0.3571
 6950TIP3   OH242264   5.223   2.671  12.837  0.7172  0.2532 -0.2102
 6950TIP3    H142265   5.221   2.736  12.768  0.5573 -1.8130 -2.2052
 6950TIP3    H242266   5.314   2.641  12.841  0.9021  0.9295  1.0494
 6951TIP3   OH242267   4.015   2.297  10.780 -0.4257  0.0118 -0.1962
 6951TIP3    H142268   4.012   2.265  10.689 -1.6616 -0.4794  0.0103
 6951TIP3    H242269   4.075   2.236  10.824  1.1487  0.9836 -0.9493
 6952TIP3   OH242270   0.801   0.738  12.035 -0.2547 -0.2894  0.2666
 6952TIP3    H142271   0.738   0.807  12.054  0.1016 -0.0302  0.5178
 6952TIP3    H242272   0.776   0.706  11.948 -0.7198 -0.1765  0.3545
 6953TIP3   OH242273   5.767   6.472   2.222  0.6792 -0.2068  0.5805
 6953TIP3    H142274   5.814   6.417   2.285 -0.5983 -1.3997  0.5028
 6953TIP3    H242275   5.720   6.535   2.276  1.6936  0.4709  0.6931
 6954TIP3   OH242276   0.153   2.244  16.775 -0.0593 -0.3205 -0.1949
 6954TIP3    H142277   0.226   2.223  16.717 -1.3395 -0.5468 -1.7529
 6954TIP3    H242278   0.173   2.331  16.809  0.5549 -0.0663 -1.2085
 6955TIP3   OH242279   0.454   4.104   0.010 -0.2612 -0.1188 -0.1470
 6955TIP3    H142280   0.496   4.142  -0.068 -0.1665 -1.1499 -0.6046
 6955TIP3    H242281   0.393   4.039  -0.025 -0.5868 -0.2311  0.6213
 6956TIP3   OH242282   3.628   6.352  13.509 -0.3513  0.2952  0.0619
 6956TIP3    H142283   3.557   6.405  13.473 -0.4509 -0.1127 -0.3510
 6956TIP3    H242284   3.584   6.276  13.546 -0.2196  0.5601  0.7725
 6957TIP3   OH242285   6.448   4.536   2.648  0.9340  0.1619  0.2154
 6957TIP3    H142286   6.432   4.442   2.634  0.6863  0.3610 -0.8289
 6957TIP3    H242287   6.361   4.576   2.644  1.1513  0.5786 -0.4252
 6958TIP3   OH242288   1.299   0.203  10.561 -0.4233 -0.0125  0.1991
 6958TIP3    H142289   1.353   0.173  10.488 -1.4752 -1.4214 -0.0276
 6958TIP3    H242290   1.353   0.187  10.639 -1.3642 -3.6182  0.1850
 6959TIP3   OH242291   5.539   6.409   3.262 -0.3168  0.4049  0.4318
 6959TIP3    H142292   5.485   6.433   3.187  1.3504  1.0118 -0.5958
 6959TIP3    H242293   5.591   6.488   3.279 -0.6206  0.2470  2.1849
 6960TIP3   OH242294   4.388   2.476   3.674  0.0706  0.7533  0.1885
 6960TIP3    H142295   4.386   2.544   3.606 -0.7033  1.0134  0.4616
 6960TIP3    H242296   4.481   2.458   3.688  0.2517  1.1517 -0.4914
 6961TIP3   OH242297   0.148   5.409   5.614 -0.0439  0.0600  0.4525
 6961TIP3    H142298   0.119   5.330   5.568 -1.2343  0.7320  0.0191
 6961TIP3    H242299   0.151   5.384   5.706 -1.6014 -0.1618  0.4514
 6962TIP3   OH242300   3.585   0.878  11.821  0.1421  0.6863 -0.3267
 6962TIP3    H142301   3.520   0.861  11.753 -0.1216  0.6743 -0.0694
 6962TIP3    H242302   3.659   0.821  11.798  0.9491  2.2880 -1.8519
 6963TIP3   OH242303   5.083   2.311  13.118  0.0467 -0.4857 -0.0622
 6963TIP3    H142304   5.064   2.402  13.093  0.2279 -0.1927  0.8145
 6963TIP3    H242305   5.014   2.289  13.181  0.6865 -0.5445  0.6290
 6964TIP3   OH242306   4.441   2.206  12.879  0.1375 -0.3295  0.3377
 6964TIP3    H142307   4.476   2.153  12.952  0.5283  1.2900  1.3415
 6964TIP3    H242308   4.515   2.218  12.820  0.3561  0.0867  0.6941
 6965TIP3   OH242309   0.700   1.674   0.877  0.3377  0.3505  0.3814
 6965TIP3    H142310   0.720   1.664   0.970  0.1645 -0.6816  0.3152
 6965TIP3    H242311   0.630   1.739   0.874 -0.2898 -0.2859  1.0455
 6966TIP3   OH242312   2.551   5.392  15.139  0.0960  0.1796  0.2850
 6966TIP3    H142313   2.641   5.418  15.119  0.1429  0.6279  1.0813
 6966TIP3    H242314   2.543   5.404  15.233 -0.6658 -0.2826  0.2800
 6967TIP3   OH242315   1.117   3.297  11.685  0.5674  0.2893 -0.0077
 6967TIP3    H142316   1.093   3.248  11.606 -0.1245  1.0367 -0.2640
 6967TIP3    H242317   1.167   3.234  11.737 -1.9869 -1.3435  0.5723
 6968TIP3   OH242318   4.763   4.508   4.725 -0.9236 -0.1552  0.4814
 6968TIP3    H142319   4.697   4.446   4.695  0.1773 -0.9465 -0.3438
 6968TIP3    H242320   4.743   4.522   4.818 -3.2387  0.8846 -0.1520
 6969TIP3   OH242321   3.364   6.213  16.708 -0.2675 -0.2001 -0.5445
 6969TIP3    H142322   3.414   6.147  16.756 -0.6816 -0.5935 -0.6607
 6969TIP3    H242323   3.413   6.294  16.722 -0.7735 -0.1675  1.1430
 6970TIP3   OH242324   2.092   2.565   0.765 -0.2924 -0.5845 -0.3625
 6970TIP3    H142325   2.002   2.598   0.768 -0.0383 -0.0686  3.5612
 6970TIP3    H242326   2.146   2.644   0.758 -0.0876 -0.8662 -2.2178
 6971TIP3   OH242327   1.099   2.811   3.433 -0.3234 -0.5431  0.1560
 6971TIP3    H142328   1.093   2.892   3.382 -1.1660 -0.7513 -0.0739
 6971TIP3    H242329   1.085   2.741   3.369  0.3049 -0.8762  0.3723
 6972TIP3   OH242330   5.164   4.741   1.593  0.0874  0.0914 -0.4797
 6972TIP3    H142331   5.259   4.728   1.596  0.0255 -0.2492  0.1934
 6972TIP3    H242332   5.129   4.658   1.560 -0.0300 -0.0943  0.0928
 6973TIP3   OH242333   1.248   2.708   5.736 -0.2994 -0.1671  0.3322
 6973TIP3    H142334   1.233   2.792   5.780  0.4404  1.1203 -1.7697
 6973TIP3    H242335   1.240   2.643   5.805  2.6712  1.8949  2.7763
 6974TIP3   OH242336   5.289   0.332  11.256  0.7041  0.0359 -0.3579
 6974TIP3    H142337   5.245   0.270  11.199  0.3758 -0.3023  0.2541
 6974TIP3    H242338   5.242   0.325  11.339  1.3291  0.3408  0.0234
 6975TIP3   OH242339   6.746   5.443  12.410  0.8590  0.3809  0.4771
 6975TIP3    H142340   6.702   5.524  12.385  1.0110  0.0492 -0.8612
 6975TIP3    H242341   6.676   5.383  12.433  0.6331  0.0376 -1.0943
 6976TIP3   OH242342   0.265   1.100   3.836 -0.3741  1.2438 -0.4250
 6976TIP3    H142343   0.302   1.187   3.849  0.6622  0.8029 -0.3716
 6976TIP3    H242344   0.310   1.045   3.900 -0.9288  0.6461 -0.5418
 6977TIP3   OH242345   3.261   5.935   4.154 -0.4820 -0.0796  0.0374
 6977TIP3    H142346   3.308   5.873   4.210 -0.1820 -0.2582 -0.4097
 6977TIP3    H242347   3.204   5.881   4.100 -0.3677  0.0473 -0.2131
 6978TIP3   OH242348   2.255   1.980  13.218 -0.6587 -0.2176 -0.2930
 6978TIP3    H142349   2.178   2.033  13.237  0.1997  1.0680 -0.2920
 6978TIP3    H242350   2.285   2.012  13.133  1.5459  1.3672  1.0240
 6979TIP3   OH242351   1.625   0.433  11.909  0.7035 -0.0564  0.1175
 6979TIP3    H142352   1.583   0.390  11.835 -1.7955  1.0780  0.8147
 6979TIP3    H242353   1.692   0.490  11.869  0.1960 -0.3547 -1.1767
 6980TIP3   OH242354   2.294   5.716  14.293 -0.1750  0.5325 -0.2015
 6980TIP3    H142355   2.230   5.778  14.328  0.2242  0.9640 -0.2243
 6980TIP3    H242356   2.316   5.660  14.367 -0.0019  0.8757  0.0100
 6981TIP3   OH242357   1.016   5.683   4.955  0.1964  0.6221  0.3580
 6981TIP3    H142358   0.995   5.764   4.907  1.7867  0.9125  0.1252
 6981TIP3    H242359   0.979   5.613   4.901  1.4368  0.9906 -1.0141
 6982TIP3   OH242360   6.681   0.299   2.998  0.3917  0.1545  0.1159
 6982TIP3    H142361   6.700   0.218   2.949 -1.5577 -0.0509 -0.3483
 6982TIP3    H242362   6.647   0.359   2.932 -0.6942  0.4466  0.9280
 6983TIP3   OH242363   0.508   3.742   4.504  0.0683  0.1102 -0.0002
 6983TIP3    H142364   0.548   3.825   4.477 -0.3501 -0.3375 -2.0661
 6983TIP3    H242365   0.414   3.759   4.500 -0.0204 -0.6361 -0.9520
 6984TIP3   OH242366   0.011   5.939  15.479 -0.0125  0.3581  0.1850
 6984TIP3    H142367  -0.029   5.860  15.443  2.1792 -0.6405 -0.1646
 6984TIP3    H242368   0.101   5.937  15.445  1.0112  1.3176  2.7570
 6985TIP3   OH242369   1.198   6.554   0.862 -0.5063 -0.5029  0.4227
 6985TIP3    H142370   1.266   6.515   0.916 -0.5707  0.9472  1.5949
 6985TIP3    H242371   1.241   6.571   0.778  0.5662  0.2846  1.1107
 6986TIP3   OH242372   4.570   1.401   4.082  0.6332  0.1030 -0.3985
 6986TIP3    H142373   4.579   1.496   4.077  1.4371  0.1196  1.1344
 6986TIP3    H242374   4.660   1.369   4.085  0.3471 -0.5689  1.2763
 6987TIP3   OH242375   5.187   4.104   4.104 -0.0990 -0.4854  0.4098
 6987TIP3    H142376   5.208   4.068   4.017  0.5496  1.2565 -0.1721
 6987TIP3    H242377   5.252   4.173   4.117 -1.4986  0.6623  1.3842
 6988TIP3   OH242378   1.480   6.123  14.756  0.4446 -0.5774 -0.8461
 6988TIP3    H142379   1.537   6.104  14.831  1.1494 -0.2770 -1.2960
 6988TIP3    H242380   1.400   6.157  14.794  1.2749  0.7744 -0.2800
 6989TIP3   OH242381   3.859   0.657  15.547  0.3230  0.2104  0.3336
 6989TIP3    H142382   3.781   0.712  15.547 -0.3327 -0.7118  0.3091
 6989TIP3    H242383   3.876   0.640  15.640 -1.7940 -2.7689  0.2507
 6990TIP3   OH242384   2.801   0.496  16.016  0.0304 -0.1345  0.8171
 6990TIP3    H142385   2.724   0.482  16.070 -1.5917  3.7546 -0.2479
 6990TIP3    H242386   2.767   0.500  15.926  1.7009 -0.0729  0.1645
 6991TIP3   OH242387   4.880   0.809  10.826  0.1875 -0.0014 -0.2124
 6991TIP3    H142388   4.920   0.857  10.899 -1.2500 -0.8871  1.1863
 6991TIP3    H242389   4.940   0.823  10.753  1.3371  1.4321  0.9620
 6992TIP3   OH242390   6.129   3.410  14.787 -0.2551 -0.6347 -0.1868
 6992TIP3    H142391   6.151   3.318  14.770  1.4076 -0.5864  1.5976
 6992TIP3    H242392   6.132   3.418  14.882  1.8518  1.7867 -0.4007
 6993TIP3   OH242393   1.527   4.953  16.946  0.0703  0.7483 -0.2948
 6993TIP3    H142394   1.536   5.006  16.867 -0.3249  0.7901 -0.3087
 6993TIP3    H242395   1.529   4.863  16.915 -0.4759  0.7686 -0.3935
 6994TIP3   OH242396   0.083   0.112   0.327  0.8720 -0.1696 -0.4133
 6994TIP3    H142397   0.158   0.062   0.293  0.3533 -1.0388 -0.2936
 6994TIP3    H242398   0.014   0.100   0.262  0.3381 -0.6664  0.2277
 6995TIP3   OH242399   1.771   4.319   3.327  0.2120 -0.1734  0.4510
 6995TIP3    H142400   1.739   4.232   3.348  0.2461 -0.0204  1.1467
 6995TIP3    H242401   1.845   4.332   3.386 -1.4149  1.3653  2.1987
 6996TIP3   OH242402   5.828   0.614   5.457 -0.3735 -0.0526  0.2555
 6996TIP3    H142403   5.741   0.616   5.497 -0.1405  0.1798  0.7563
 6996TIP3    H242404   5.887   0.641   5.527  0.1303 -0.4609 -0.0085
 6997TIP3   OH242405   4.628   0.558   3.478 -1.0111 -0.6704 -0.1275
 6997TIP3    H142406   4.617   0.652   3.490 -0.4505 -0.7139  0.7672
 6997TIP3    H242407   4.543   0.521   3.500 -1.6503 -0.2536 -1.8684
 6998TIP3   OH242408   4.397   4.215   2.846  0.3388 -0.3235  0.3195
 6998TIP3    H142409   4.436   4.234   2.931  3.0078 -0.9075 -0.7313
 6998TIP3    H242410   4.468   4.174   2.795 -1.6000 -1.2509 -1.7193
 6999TIP3   OH242411   4.285   5.487   1.995  0.4224 -0.4553 -0.1937
 6999TIP3    H142412   4.243   5.424   2.054 -0.1019  0.0271 -0.0488
 6999TIP3    H242413   4.213   5.531   1.951  0.7900 -0.0606 -0.4044
 7000TIP3   OH242414   3.602   1.742   1.613 -0.3795 -0.4921  0.1075
 7000TIP3    H142415   3.614   1.669   1.553 -1.1124 -0.5004 -0.0398
 7000TIP3    H242416   3.678   1.740   1.670 -0.2785 -1.2171 -0.0551
 7001TIP3   OH242417   4.286   1.477   1.512 -0.5229  0.2718 -0.2165
 7001TIP3    H142418   4.369   1.521   1.491 -0.1534  0.2515  1.1784
 7001TIP3    H242419   4.258   1.438   1.429  0.4184  1.0256 -0.8930
 7002TIP3   OH242420   5.421   4.970  14.360  0.1900 -0.5943  0.2446
 7002TIP3    H142421   5.367   4.938  14.288 -0.8056 -0.8223  1.0852
 7002TIP3    H242422   5.389   5.059  14.376  2.5877  0.6858 -1.7269
 7003TIP3   OH242423   2.094   5.813   1.786  0.5259 -0.8661  0.1584
 7003TIP3    H142424   2.040   5.860   1.721 -1.3344 -3.0691  0.0412
 7003TIP3    H242425   2.126   5.737   1.738  2.1567 -0.6059  0.8224
 7004TIP3   OH242426   6.116   1.661   4.974  0.4000 -0.2995 -0.2806
 7004TIP3    H142427   6.049   1.716   5.014  0.2406  1.9247 -3.4064
 7004TIP3    H242428   6.067   1.590   4.932  0.4299 -1.4798  1.5986
 7005TIP3   OH242429   0.667   3.585  15.288 -0.5485  0.5704 -0.1088
 7005TIP3    H142430   0.754   3.545  15.298 -0.9814 -0.1689  0.8628
 7005TIP3    H242431   0.682   3.661  15.232  0.8669  0.9046  0.6896
 7006TIP3   OH242432   4.161   3.497   5.226 -0.0062  0.3807  0.3522
 7006TIP3    H142433   4.178   3.403   5.231 -1.1451  0.1478  0.0068
 7006TIP3    H242434   4.223   3.530   5.161 -0.7349 -0.4154 -0.7632
 7007TIP3   OH242435   4.643   0.599  14.368  0.0375 -0.2087  0.4551
 7007TIP3    H142436   4.689   0.668  14.417  2.3169 -1.4391  0.1107
 7007TIP3    H242437   4.713   0.546  14.330 -1.7025 -0.8476 -1.9430
 7008TIP3   OH242438   2.278   3.253   4.434  0.2621  0.4110 -0.1054
 7008TIP3    H142439   2.233   3.170   4.419 -1.2515  0.9416  1.3297
 7008TIP3    H242440   2.334   3.237   4.510 -1.4303  1.2011  1.3366
 7009TIP3   OH242441   4.790   2.441   5.018 -0.4348  0.2320 -0.1186
 7009TIP3    H142442   4.759   2.525   5.053 -1.8318 -0.0502 -0.6440
 7009TIP3    H242443   4.724   2.416   4.953  2.3536  0.9883 -3.3755
 7010TIP3   OH242444   2.683   2.658  16.948  0.2164 -0.1588 -0.0400
 7010TIP3    H142445   2.593   2.648  16.917  1.4910 -0.5851 -3.8287
 7010TIP3    H242446   2.709   2.745  16.918  1.0052  0.1170  1.3619
 7011TIP3   OH242447   3.929   4.968   4.439 -0.4337 -0.4985  0.4006
 7011TIP3    H142448   3.895   4.897   4.493  0.1896 -0.8945  0.2767
 7011TIP3    H242449   4.024   4.964   4.450 -0.3103 -0.4738 -0.5752
 7012TIP3   OH242450   5.196   6.156  17.137 -0.6366  0.1605 -0.0720
 7012TIP3    H142451   5.214   6.215  17.210  1.4521 -1.7441  1.0402
 7012TIP3    H242452   5.212   6.208  17.059 -2.0025  1.9727  0.8351
 7013TIP3   OH242453   3.316   3.200   2.260  0.2489  0.2527  0.1717
 7013TIP3    H142454   3.400   3.207   2.215 -0.0801  0.9125 -0.3542
 7013TIP3    H242455   3.274   3.123   2.221 -0.9114  1.9988 -2.1652
 7014TIP3   OH242456   3.472   2.926   5.655 -1.1377  0.8610  0.1216
 7014TIP3    H142457   3.449   2.859   5.719 -0.3364  2.3432  2.0128
 7014TIP3    H242458   3.390   2.975   5.643 -1.3321  0.4800 -0.1189
 7015TIP3   OH242459   3.400   1.912  11.273 -0.2504  0.1615 -0.4679
 7015TIP3    H142460   3.333   1.845  11.258 -1.1078  1.0405 -0.5903
 7015TIP3    H242461   3.479   1.876  11.233 -1.1065 -0.0758 -1.9763
 7016TIP3   OH242462   0.327   2.011   3.277 -0.0375  0.2782  0.7284
 7016TIP3    H142463   0.419   1.992   3.295 -0.3559 -1.2482  0.7352
 7016TIP3    H242464   0.330   2.061   3.195  0.9668  2.4566  2.0397
 7017TIP3   OH242465   3.269   2.718  15.068 -0.4792  0.2185  0.1509
 7017TIP3    H142466   3.264   2.667  14.987 -0.1323  0.8455 -0.2747
 7017TIP3    H242467   3.263   2.809  15.039  0.8246  0.4967  0.7243
 7018TIP3   OH242468   2.115   2.524  16.685  0.2156 -0.3724 -0.3480
 7018TIP3    H142469   2.041   2.582  16.699 -0.7398 -1.0493 -2.3296
 7018TIP3    H242470   2.157   2.517  16.770 -2.0378 -0.0071  0.8397
 7019TIP3   OH242471   4.797   4.043   4.306 -0.0651  0.2841 -0.3364
 7019TIP3    H142472   4.809   4.079   4.394  1.8274  1.2353 -0.9552
 7019TIP3    H242473   4.849   3.963   4.306 -0.6696 -0.1120 -0.3671
 7020TIP3   OH242474   5.384   3.977  15.959 -0.1914 -0.6796 -0.1949
 7020TIP3    H142475   5.471   3.990  15.998  0.8952 -2.6108 -1.8496
 7020TIP3    H242476   5.375   3.882  15.953 -1.6419 -0.4605 -1.7772
 7021TIP3   OH242477   4.554   3.517   1.629  0.2237  0.2907  0.3558
 7021TIP3    H142478   4.603   3.587   1.671 -0.7560  0.9602  0.3932
 7021TIP3    H242479   4.508   3.474   1.701 -0.6043  0.7566  0.1093
 7022TIP3   OH242480   5.664   4.666   3.686 -0.3352  0.2153 -0.4031
 7022TIP3    H142481   5.599   4.736   3.679  1.0584  1.4440 -1.3099
 7022TIP3    H242482   5.681   4.640   3.596  1.3965  0.8266 -0.2723
 7023TIP3   OH242483   4.413   1.983  10.842  0.0692 -0.1955  0.2138
 7023TIP3    H142484   4.493   2.013  10.798 -0.2513  0.2433 -0.0669
 7023TIP3    H242485   4.411   1.889  10.826 -0.5865  0.1171 -1.5754
 7024TIP3   OH242486   1.872   0.088  16.512 -0.0453  0.1507 -0.0884
 7024TIP3    H142487   1.911   0.009  16.475  0.5743  0.3507  0.1336
 7024TIP3    H242488   1.910   0.160  16.463 -0.4472  0.3291 -0.1428
 7025TIP3   OH242489   5.542   4.673  11.805  0.1323 -0.2804 -0.4911
 7025TIP3    H142490   5.564   4.675  11.712 -2.3543 -0.8599 -1.1446
 7025TIP3    H242491   5.485   4.749  11.818 -2.4348 -2.1819 -0.2720
 7026TIP3   OH242492   3.923   5.694  13.534 -0.6175 -0.4682 -0.3266
 7026TIP3    H142493   3.986   5.760  13.504  0.1583 -0.5045  1.1723
 7026TIP3    H242494   3.963   5.610  13.509 -0.1763 -0.4829  0.4287
 7027TIP3   OH242495   0.000   5.659  11.824 -0.1753 -0.1086  0.0377
 7027TIP3    H142496   0.060   5.585  11.836  0.5205  0.6083  0.9503
 7027TIP3    H242497  -0.073   5.641  11.883 -0.2564 -0.3296 -0.1292
 7028TIP3   OH242498   1.538   4.095  11.223 -0.6780 -0.2804 -0.2344
 7028TIP3    H142499   1.598   4.020  11.224 -0.6008 -0.2417 -1.2229
 7028TIP3    H242500   1.566   4.146  11.147 -1.2063  0.3659  0.0060
 7029TIP3   OH242501   3.370   5.773   1.910  0.3358  0.4478  0.3631
 7029TIP3    H142502   3.368   5.701   1.973  0.3021 -0.2388 -0.4265
 7029TIP3    H242503   3.343   5.734   1.827  1.5956  1.0751 -0.3533
 7030TIP3   OH242504   1.965   2.036  13.898  0.5407  0.1613 -0.5917
 7030TIP3    H142505   1.929   2.046  13.986  3.5667  0.3118  0.6933
 7030TIP3    H242506   1.925   1.956  13.865 -1.3650  0.6169  0.5370
 7031TIP3   OH242507   0.435   5.053  16.308 -0.1174 -0.4463 -0.6944
 7031TIP3    H142508   0.479   5.033  16.225 -0.9594 -1.9650 -0.7974
 7031TIP3    H242509   0.427   4.968  16.352 -1.3414  0.0721  0.1134
 7032TIP3   OH242510   5.025   3.542   6.499 -0.7776  0.6308  0.5761
 7032TIP3    H142511   5.058   3.456   6.471 -2.4285 -0.1128  0.8298
 7032TIP3    H242512   5.025   3.594   6.419  0.4794  0.4876  0.4668
 7033TIP3   OH242513   6.269   6.050  14.568 -0.6335  0.0671 -0.2852
 7033TIP3    H142514   6.177   6.045  14.594 -0.2786 -1.8380  0.6268
 7033TIP3    H242515   6.311   6.098  14.639 -0.4283 -1.4846  0.6534
 7034TIP3   OH242516   2.062   4.849  16.985 -0.1227  0.4598  0.5424
 7034TIP3    H142517   2.099   4.761  16.981 -0.8223  0.1870 -0.0754
 7034TIP3    H242518   1.984   4.839  17.039 -1.2629  0.3067 -1.1022
 7035TIP3   OH242519   4.465   6.035   2.414  0.0216  0.5303  0.1635
 7035TIP3    H142520   4.372   6.056   2.419 -0.2851 -0.9174  0.9577
 7035TIP3    H242521   4.487   6.045   2.321 -0.8424  1.2301  0.0337
 7036TIP3   OH242522   2.630   2.383  13.911  0.0612 -0.2214 -0.1081
 7036TIP3    H142523   2.564   2.314  13.915 -1.0064  0.7971  0.2073
 7036TIP3    H242524   2.624   2.427  13.996  1.5985 -0.5215  0.1714
 7037TIP3   OH242525   2.518   2.901   2.902 -0.2777  0.1968 -0.2114
 7037TIP3    H142526   2.511   2.823   2.847  2.0046 -0.0408 -0.1992
 7037TIP3    H242527   2.510   2.868   2.992 -2.2381  0.3700 -0.2952
 7038TIP3   OH242528   1.115   0.280  10.992  0.6573 -0.2011  0.1932
 7038TIP3    H142529   1.201   0.295  11.031 -0.7772  1.6530  2.8835
 7038TIP3    H242530   1.086   0.366  10.963  0.7917 -1.2387 -3.2061
 7039TIP3   OH242531   3.953   2.468   4.629  0.4053  0.1600 -0.1440
 7039TIP3    H142532   3.944   2.398   4.565  2.3497  0.7619 -1.1105
 7039TIP3    H242533   3.876   2.523   4.615  2.2277  1.8881 -3.9924
 7040TIP3   OH242534   2.116   6.583   1.318 -0.2578  0.5128 -0.0627
 7040TIP3    H142535   2.069   6.512   1.274 -0.4335  1.8421 -2.0861
 7040TIP3    H242536   2.050   6.626   1.372 -0.5302  0.1304 -0.0884
 7041TIP3   OH242537   1.590   5.114   3.902 -0.4264  0.1905  0.3136
 7041TIP3    H142538   1.518   5.072   3.855  0.4257 -2.1956  1.0656
 7041TIP3    H242539   1.661   5.051   3.898  1.1985  1.9339  0.7732
 7042TIP3   OH242540   2.200   0.200   2.091 -0.8398 -0.3565  0.0573
 7042TIP3    H142541   2.210   0.271   2.027 -1.2973 -0.9029 -0.6401
 7042TIP3    H242542   2.209   0.120   2.039  2.1698 -0.8343  1.2305
 7043TIP3   OH242543   4.734   4.341   2.630  0.0872  0.1014 -0.0450
 7043TIP3    H142544   4.768   4.304   2.549  2.2705 -0.4032  1.0625
 7043TIP3    H242545   4.767   4.283   2.699 -0.5823  1.3027  1.3220
 7044TIP3   OH242546   2.965   0.977  11.729  0.4103  0.3598  0.0783
 7044TIP3    H142547   3.015   0.977  11.648  2.0485 -0.1525  1.0788
 7044TIP3    H242548   3.029   0.997  11.797 -0.4721 -1.6309  1.5332
 7045TIP3   OH242549   5.647   1.897   2.014  0.6477  0.1708  0.1983
 7045TIP3    H142550   5.741   1.895   2.034  0.8045  0.1321 -0.5350
 7045TIP3    H242551   5.606   1.861   2.093  1.3117 -0.7309  0.1423
 7046TIP3   OH242552   0.212   5.653   2.923 -0.4699 -0.5348  0.1519
 7046TIP3    H142553   0.302   5.653   2.891 -0.5496 -0.9589 -0.0706
 7046TIP3    H242554   0.220   5.667   3.017 -0.1545 -1.0239  0.1980
 7047TIP3   OH242555   3.309   1.658  15.909  1.0553  0.2301  0.3785
 7047TIP3    H142556   3.282   1.749  15.898 -1.7799 -0.9170 -3.0302
 7047TIP3    H242557   3.241   1.619  15.963 -0.2192 -0.9048 -1.9930
 7048TIP3   OH242558   5.121   1.385   4.205 -0.2428  0.3317 -0.0806
 7048TIP3    H142559   5.156   1.404   4.292  0.2958  0.2228 -0.2719
 7048TIP3    H242560   5.079   1.300   4.214  0.6217 -0.1077 -0.1499
 7049TIP3   OH242561   2.472   0.043  12.214  0.3821 -0.5691  0.7295
 7049TIP3    H142562   2.431   0.059  12.129  0.6627 -1.4158  0.4247
 7049TIP3    H242563   2.565   0.035  12.194  0.5507  0.1260  1.2451
 7050TIP3   OH242564   3.580   0.483  16.788 -0.1496  0.2806 -0.3841
 7050TIP3    H142565   3.603   0.576  16.797  0.5563 -0.1123  2.1817
 7050TIP3    H242566   3.485   0.480  16.802  0.0140  0.4748  0.8212
 7051TIP3   OH242567   2.885   4.854  10.442  0.1159 -0.1242 -0.0226
 7051TIP3    H142568   2.823   4.791  10.477 -0.3719  1.6433  2.4344
 7051TIP3    H242569   2.969   4.809  10.444 -0.3277 -0.9085  1.1110
 7052TIP3   OH242570   0.365   4.848   2.789 -0.1012 -0.0919  0.2004
 7052TIP3    H142571   0.373   4.845   2.694  1.6222 -0.3147  0.3429
 7052TIP3    H242572   0.272   4.832   2.806 -0.2526 -0.9833 -1.3980
 7053TIP3   OH242573   3.783   6.542   0.710 -0.6225 -0.1890  0.2741
 7053TIP3    H142574   3.736   6.616   0.671  0.1420  0.2587  0.2002
 7053TIP3    H242575   3.752   6.466   0.661  1.8492  0.5886 -2.6555
 7054TIP3   OH242576   1.919   1.626   6.536  0.5527  0.0220 -0.1070
 7054TIP3    H142577   1.924   1.700   6.597  1.8819 -1.0964  1.1816
 7054TIP3    H242578   1.922   1.548   6.592 -2.1034 -1.0322 -1.3510
 7055TIP3   OH242579   3.543   3.728   1.975  0.2034 -0.2485 -0.3435
 7055TIP3    H142580   3.453   3.722   2.006  0.5755  0.6490  0.9367
 7055TIP3    H242581   3.536   3.773   1.890 -0.4960  0.4353  0.0650
 7056TIP3   OH242582   1.695   0.251  15.104  0.2980 -0.8982  0.3911
 7056TIP3    H142583   1.690   0.187  15.175  1.7687  1.0733  2.3437
 7056TIP3    H242584   1.772   0.224  15.054 -0.4186 -1.9754 -0.1493
 7057TIP3   OH242585   1.259   2.522   1.036  0.8297 -0.4825  0.0621
 7057TIP3    H142586   1.271   2.589   1.104  1.5556 -0.1282 -0.4123
 7057TIP3    H242587   1.288   2.564   0.955 -0.1107 -0.8789 -0.4854
 7058TIP3   OH242588   5.979   1.055  12.121 -0.2309 -0.2633 -0.1307
 7058TIP3    H142589   5.956   1.070  12.029 -0.1776  0.3814 -0.0439
 7058TIP3    H242590   5.895   1.048  12.166 -0.2619  0.4543 -0.0702
 7059TIP3   OH242591   3.817   2.849   5.733 -0.0021  0.3137 -0.0529
 7059TIP3    H142592   3.838   2.843   5.826  1.0729  0.2573 -0.2844
 7059TIP3    H242593   3.888   2.901   5.696 -1.4455  1.9800 -0.5343
 7060TIP3   OH242594   0.331   4.503   5.003  0.0808  0.0403  0.0992
 7060TIP3    H142595   0.325   4.455   4.920  0.1883  1.0716 -0.5251
 7060TIP3    H242596   0.322   4.595   4.977 -0.3774  0.3376  1.2981
 7061TIP3   OH242597   4.541   1.829  15.739  0.1589 -0.1357  0.0107
 7061TIP3    H142598   4.539   1.752  15.684  0.5354 -0.5016  0.5039
 7061TIP3    H242599   4.501   1.898  15.686  1.6313 -0.1866 -1.1743
 7062TIP3   OH242600   4.458   3.453  12.127 -0.2637  0.3872 -0.0936
 7062TIP3    H142601   4.524   3.386  12.143 -0.2274  0.2702 -0.7070
 7062TIP3    H242602   4.407   3.418  12.054 -0.9550  0.5085  0.3281
 7063TIP3   OH242603   0.957   2.534   5.953  0.0555  0.2720 -0.2446
 7063TIP3    H142604   0.967   2.531   5.858 -0.3845  1.7947 -0.3524
 7063TIP3    H242605   0.895   2.605   5.968  0.7327  0.5674  1.2354
 7064TIP3   OH242606   5.774   1.883   1.412 -0.2501 -0.3930 -0.7018
 7064TIP3    H142607   5.839   1.937   1.367 -0.8901  0.4802 -0.6000
 7064TIP3    H242608   5.826   1.830   1.473  0.3497  0.5578 -0.3576
 7065TIP3   OH242609   2.196   1.629   1.786 -0.2899  0.3848 -0.0713
 7065TIP3    H142610   2.241   1.683   1.721  2.5889 -0.1565  1.3854
 7065TIP3    H242611   2.148   1.564   1.734  1.8261  0.0440 -1.6918
 7066TIP3   OH242612   5.005   4.595  16.529 -0.2333  0.0258 -0.0112
 7066TIP3    H142613   4.985   4.503  16.544 -0.4499  0.2407  1.0837
 7066TIP3    H242614   5.050   4.597  16.445  0.1481 -1.1309  0.1609
 7067TIP3   OH242615   5.781   1.806  16.765  0.3801 -0.0895  0.5125
 7067TIP3    H142616   5.728   1.731  16.737  0.5705 -0.0977  0.1740
 7067TIP3    H242617   5.845   1.819  16.695  0.5286  0.2130  0.6984
 7068TIP3   OH242618   2.877   6.287   0.666  0.4707  0.4065 -0.0706
 7068TIP3    H142619   2.876   6.234   0.586 -0.5558  1.0535 -0.4927
 7068TIP3    H242620   2.969   6.289   0.692  0.6411 -0.8463 -0.5395
 7069TIP3   OH242621   0.133   0.309  12.085 -0.8393  0.0627 -0.2219
 7069TIP3    H142622   0.148   0.401  12.108 -3.3656  0.8113 -1.3662
 7069TIP3    H242623   0.042   0.292  12.112 -0.8506 -1.6905 -1.2569
 7070TIP3   OH242624   0.283   1.604  14.908 -0.0343  0.2145 -0.5430
 7070TIP3    H142625   0.290   1.561  14.993 -2.5311 -0.4477 -0.6461
 7070TIP3    H242626   0.359   1.573  14.859  0.0805 -1.3528  0.5905
 7071TIP3   OH242627   0.876   4.727   1.962  0.0472  0.0229 -0.2911
 7071TIP3    H142628   0.825   4.676   1.899 -1.3601 -1.0363  1.6518
 7071TIP3    H242629   0.879   4.816   1.925  0.1054 -0.7956 -2.3067
 7072TIP3   OH242630   3.095   1.064   5.441  0.4452 -0.0573 -0.6739
 7072TIP3    H142631   3.086   0.980   5.396 -2.1504  0.8023 -1.8813
 7072TIP3    H242632   3.088   1.129   5.371 -1.8510  1.2576  0.6850
 7073TIP3   OH242633   3.909   0.611  11.272  0.0851 -0.1721  0.2539
 7073TIP3    H142634   3.865   0.526  11.264 -0.6524  0.0245  2.1108
 7073TIP3    H242635   3.933   0.634  11.182 -1.6878 -1.2896 -0.5291
 7074TIP3   OH242636   0.204   2.313   0.149 -0.3749 -0.1079 -0.0721
 7074TIP3    H142637   0.224   2.268   0.066 -1.1036 -2.2681  0.8725
 7074TIP3    H242638   0.186   2.403   0.124 -1.0709 -0.8356 -2.3519
 7075TIP3   OH242639   1.880   1.035  13.860 -0.3681  0.3686  0.5355
 7075TIP3    H142640   1.951   1.057  13.920  0.2789 -0.2660  0.0013
 7075TIP3    H242641   1.899   0.946  13.831 -1.9997 -0.2327  1.2720
 7076TIP3   OH242642   3.490   4.828  17.053  0.8005  0.0562  0.4308
 7076TIP3    H142643   3.417   4.867  17.005  0.6176  0.1581  0.7934
 7076TIP3    H242644   3.568   4.866  17.013  0.6684 -0.4027 -0.2682
 7077TIP3   OH242645   0.277   0.674  10.936 -0.1662  0.0305 -0.0878
 7077TIP3    H142646   0.240   0.586  10.946 -0.9857  0.3350 -0.4017
 7077TIP3    H242647   0.366   0.658  10.906  0.8456 -0.7608  3.1681
 7078TIP3   OH242648   5.914   3.104   5.490 -0.4705 -0.5578  0.6441
 7078TIP3    H142649   5.859   3.050   5.435 -1.4575 -1.2891  2.3051
 7078TIP3    H242650   5.994   3.118   5.439 -0.0747 -3.7949  0.3008
 7079TIP3   OH242651   3.534   2.437  14.055 -0.5855 -0.3375 -0.0281
 7079TIP3    H142652   3.627   2.431  14.034 -0.6344  0.4409 -0.4824
 7079TIP3    H242653   3.509   2.525  14.027 -0.9433  0.2726  2.1082
 7080TIP3   OH242654   1.259   0.813  16.339 -0.6700 -0.5084  0.2652
 7080TIP3    H142655   1.301   0.727  16.329 -0.6815 -0.1409 -3.8147
 7080TIP3    H242656   1.185   0.811  16.278 -0.1396  2.6895 -0.5831
 7081TIP3   OH242657   3.259   4.137  11.057 -0.3901 -0.2933 -0.3781
 7081TIP3    H142658   3.230   4.196  11.127 -0.6433 -1.9861  0.9694
 7081TIP3    H242659   3.250   4.189  10.977  0.5554  1.9040  0.8967
 7082TIP3   OH242660   4.579   1.126  12.201 -0.3183  0.3621 -0.2511
 7082TIP3    H142661   4.600   1.045  12.153 -1.7624 -0.4422  0.4273
 7082TIP3    H242662   4.504   1.163  12.154 -0.3954  0.6901  0.1273
 7083TIP3   OH242663   5.245   3.906   0.514  0.0697  0.0042  0.2144
 7083TIP3    H142664   5.256   3.998   0.489 -2.6767  0.1790 -0.4588
 7083TIP3    H242665   5.299   3.896   0.593 -1.7827  2.9279  1.9409
 7084TIP3   OH242666   1.498   4.472  11.483  0.3070  0.7409 -0.2962
 7084TIP3    H142667   1.468   4.506  11.567 -2.7402 -1.0063 -0.5955
 7084TIP3    H242668   1.532   4.384  11.503 -0.0891  0.4631 -0.8238
 7085TIP3   OH242669   3.812   5.519   3.056 -0.3225 -0.3969  0.1551
 7085TIP3    H142670   3.836   5.555   2.971 -0.1011 -1.0711 -0.0658
 7085TIP3    H242671   3.876   5.557   3.117 -0.6508  0.2969  0.0642
 7086TIP3   OH242672   5.298   5.053  12.674  0.0399 -0.1971 -0.0067
 7086TIP3    H142673   5.368   5.082  12.733 -0.5545  0.2189  0.5015
 7086TIP3    H242674   5.298   4.958  12.682  1.4860 -0.3060 -1.0903
 7087TIP3   OH242675   3.755   2.471   4.953 -0.0138  0.6652 -0.0985
 7087TIP3    H142676   3.718   2.497   4.869 -0.8287  1.4267  0.4915
 7087TIP3    H242677   3.769   2.553   5.000  2.1419  0.3884 -0.1807
 7088TIP3   OH242678   0.060   3.701  16.278 -0.5192  0.3961  0.2909
 7088TIP3    H142679   0.139   3.721  16.227  0.3334 -0.3771  1.2724
 7088TIP3    H242680  -0.013   3.724  16.220  0.4193  1.8849 -0.3369
 7089TIP3   OH242681   5.260   2.117  11.603 -0.3058  0.0740  0.1441
 7089TIP3    H142682   5.288   2.117  11.511 -0.6751  0.1990  0.0333
 7089TIP3    H242683   5.246   2.024  11.623 -0.7443  0.0902 -0.0830
 7090TIP3   OH242684   5.314   6.544   3.070 -0.3492 -0.6033  0.4961
 7090TIP3    H142685   5.271   6.520   2.988  0.7052 -0.0184 -0.2347
 7090TIP3    H242686   5.360   6.626   3.051 -0.0689 -0.4757  1.6602
 7091TIP3   OH242687   0.267   2.920   5.765 -0.0218  0.6299 -0.0977
 7091TIP3    H142688   0.235   2.967   5.842 -0.2684  1.5363 -0.7472
 7091TIP3    H242689   0.280   2.831   5.796 -1.6418  0.6090  0.5911
 7092TIP3   OH242690   1.893   1.698   2.652 -0.4895 -0.3174  0.3905
 7092TIP3    H142691   1.897   1.791   2.677 -1.5984 -0.4659  1.1680
 7092TIP3    H242692   1.822   1.694   2.588  0.1176 -0.4971 -0.2776
 7093TIP3   OH242693   0.873   2.441   0.187  0.1313  0.0326  0.2092
 7093TIP3    H142694   0.779   2.430   0.201  0.1292 -1.9163 -1.1542
 7093TIP3    H242695   0.880   2.469   0.095  0.8291  1.1424  0.5935
 7094TIP3   OH242696   0.432   6.708  13.958 -0.0782  0.0994  0.2026
 7094TIP3    H142697   0.402   6.715  14.049  0.5717 -1.9089  0.6077
 7094TIP3    H242698   0.501   6.642  13.961 -1.3517 -1.3937 -2.0596
 7095TIP3   OH242699   3.164   3.265   1.081  0.3729  0.2778  0.6050
 7095TIP3    H142700   3.206   3.346   1.053  1.3694 -0.8237 -1.2691
 7095TIP3    H242701   3.232   3.219   1.131  0.7657 -0.5724 -0.6561
 7096TIP3   OH242702   5.275   5.064  15.990  0.1782 -0.0121  0.0723
 7096TIP3    H142703   5.314   5.071  15.903 -0.3055  0.7556 -0.0842
 7096TIP3    H242704   5.187   5.032  15.973  0.2872 -0.4478  0.3281
 7097TIP3   OH242705   1.060   4.254  14.537  0.2761 -0.2176  0.1864
 7097TIP3    H142706   1.109   4.235  14.457 -0.8997 -1.9384 -0.1634
 7097TIP3    H242707   1.100   4.198  14.603 -0.3335 -0.6335  0.2095
 7098TIP3   OH242708   3.921   4.211   2.855  0.0969 -0.0928  0.1292
 7098TIP3    H142709   3.922   4.292   2.803 -0.4765 -0.3673 -0.3208
 7098TIP3    H242710   3.980   4.152   2.808  1.0635  0.3009  0.8480
 7099TIP3   OH242711   2.225   3.849  12.394  0.3931  0.2915  0.3875
 7099TIP3    H142712   2.310   3.875  12.358  0.2844  0.3491  0.1721
 7099TIP3    H242713   2.239   3.846  12.489  0.7564 -0.1300  0.3227
 7100TIP3   OH242714   1.402   5.813  13.326  0.1098 -0.0318 -0.1682
 7100TIP3    H142715   1.498   5.808  13.327  0.1253  0.2539  1.2047
 7100TIP3    H242716   1.384   5.907  13.335 -0.2992 -0.2431  1.3351
 7101TIP3   OH242717   0.145   3.995  13.253 -0.2410  0.3293 -0.1217
 7101TIP3    H142718   0.171   4.069  13.199  0.9461  0.7490  1.0060
 7101TIP3    H242719   0.168   4.021  13.342  0.3630 -1.4808  0.2667
 7102TIP3   OH242720   6.477   1.545  12.175 -0.4232  0.1782  0.2366
 7102TIP3    H142721   6.492   1.586  12.090 -1.1885  2.5574  1.2132
 7102TIP3    H242722   6.432   1.463  12.154 -0.8562  0.8649 -1.6292
 7103TIP3   OH242723   3.457   5.489   0.183 -0.3152 -0.0879  0.2091
 7103TIP3    H142724   3.384   5.455   0.236 -0.5374  0.4722  0.2615
 7103TIP3    H242725   3.519   5.523   0.248 -0.9251  1.2815  0.0830
 7104TIP3   OH242726   0.793   4.832   4.989  0.5627  0.6634  0.1628
 7104TIP3    H142727   0.781   4.908   5.046 -1.2644  0.4643  0.0833
 7104TIP3    H242728   0.742   4.763   5.031 -0.2403  0.3279 -1.3401
 7105TIP3   OH242729   6.560   3.002  11.083  0.3181 -0.2583  0.3900
 7105TIP3    H142730   6.514   3.069  11.133 -0.1528  0.8853 -1.5271
 7105TIP3    H242731   6.620   3.051  11.027  0.1649 -1.4438 -0.8394
 7106TIP3   OH242732   1.358   1.691  13.734  0.2373 -0.3832  0.4105
 7106TIP3    H142733   1.351   1.772  13.783 -0.4732 -0.0195 -0.2784
 7106TIP3    H242734   1.284   1.693  13.673  0.2898 -1.4843  0.3026
 7107TIP3   OH242735   5.690   6.712   5.313 -0.8231 -0.2917 -0.4760
 7107TIP3    H142736   5.620   6.739   5.373  0.4138  0.8464  0.4790
 7107TIP3    H242737   5.735   6.793   5.291  1.3380 -1.2465  0.3620
 7108TIP3   OH242738   3.867   4.990  15.945  0.2531 -0.4859 -0.3085
 7108TIP3    H142739   3.809   4.917  15.923 -0.4646 -0.1992  0.5760
 7108TIP3    H242740   3.834   5.063  15.893  0.2453 -0.5046 -0.3293
 7109TIP3   OH242741   5.953   1.949   5.075 -0.4806 -0.5776 -0.1030
 7109TIP3    H142742   5.896   1.898   5.018  0.7167 -1.8665 -0.1509
 7109TIP3    H242743   5.990   2.017   5.018 -0.3942 -0.9879 -0.5314
 7110TIP3   OH242744   3.834   6.141  10.965  0.7416  0.1503 -1.0095
 7110TIP3    H142745   3.852   6.181  11.050  0.9007 -1.2375 -0.3796
 7110TIP3    H242746   3.790   6.059  10.986  2.6978 -1.2366 -2.1664
 7111TIP3   OH242747   4.647   5.993  16.882 -0.3031 -0.2541  1.0402
 7111TIP3    H142748   4.679   5.906  16.862  0.8964  0.7065 -1.4628
 7111TIP3    H242749   4.705   6.025  16.951 -0.0273 -0.9934  1.1507
 7112TIP3   OH242750   5.332   6.316   6.306 -0.3935  0.5034  0.3063
 7112TIP3    H142751   5.403   6.289   6.248 -1.9752 -0.1159 -1.4012
 7112TIP3    H242752   5.345   6.410   6.318  0.3352  0.5152 -0.5309
 7113TIP3   OH242753   6.602   1.254  15.783 -0.7463 -0.4535 -0.3460
 7113TIP3    H142754   6.615   1.327  15.722  1.9200 -1.0681 -0.5948
 7113TIP3    H242755   6.620   1.292  15.869 -3.6517  0.1972  0.0361
 7114TIP3   OH242756   4.700   3.966   5.650  0.5457  0.0414 -0.1579
 7114TIP3    H142757   4.756   4.022   5.704  0.9802  0.6497 -1.2140
 7114TIP3    H242758   4.742   3.880   5.654  1.4333  0.4325 -0.7335
 7115TIP3   OH242759   4.495   0.563   1.074 -0.1482  1.1989 -0.4475
 7115TIP3    H142760   4.476   0.603   0.989  0.2243  0.0468 -1.0699
 7115TIP3    H242761   4.588   0.540   1.071 -0.3782  0.2024 -0.1230
 7116TIP3   OH242762   1.138   2.985  10.807  0.3962  0.0208 -0.4363
 7116TIP3    H142763   1.102   2.898  10.789  0.5963  0.0658 -1.0608
 7116TIP3    H242764   1.212   2.992  10.748  1.7760 -0.2904  1.2231
 7117TIP3   OH242765   2.846   5.731  14.495  0.2154 -0.3170  0.0093
 7117TIP3    H142766   2.917   5.795  14.496  0.4995 -0.6107  2.2468
 7117TIP3    H242767   2.774   5.774  14.542 -0.3818 -0.7760 -0.4786
 7118TIP3   OH242768   0.856   0.503  11.329  0.4785  0.2324 -0.1793
 7118TIP3    H142769   0.775   0.479  11.374  0.1928 -1.2636 -1.4587
 7118TIP3    H242770   0.893   0.573  11.383 -1.1751  0.2842  0.9412
 7119TIP3   OH242771   0.452   5.697  11.522 -0.2353  0.0812  0.5034
 7119TIP3    H142772   0.457   5.792  11.528 -0.6701  0.0880  0.7845
 7119TIP3    H242773   0.543   5.669  11.508 -0.3140  0.6476 -1.2425
 7120TIP3   OH242774   6.002   2.886   1.602 -0.2674  0.0078 -0.1420
 7120TIP3    H142775   6.076   2.947   1.604  0.1887 -0.4987 -1.1622
 7120TIP3    H242776   5.925   2.943   1.608  0.1457  0.7419 -1.4953
 7121TIP3   OH242777   3.449   1.297  12.845  0.0975 -0.3065 -0.2463
 7121TIP3    H142778   3.517   1.342  12.896 -0.5583 -0.4928  0.8112
 7121TIP3    H242779   3.439   1.352  12.767  1.5881 -0.3804 -0.5118
 7122TIP3   OH242780   0.700   4.784  14.638  0.3909  0.1794  0.2900
 7122TIP3    H142781   0.660   4.865  14.607 -0.9772 -0.9831 -1.0355
 7122TIP3    H242782   0.731   4.805  14.726  0.4520  2.2640 -0.2055
 7123TIP3   OH242783   3.866   4.622  16.518 -0.0163 -0.3924  0.0279
 7123TIP3    H142784   3.773   4.604  16.537 -0.2410 -1.4969 -1.9289
 7123TIP3    H242785   3.904   4.535  16.505  1.0191  0.1279 -0.4057
 7124TIP3   OH242786   2.091   6.051  13.500 -0.2848 -0.0643  0.9168
 7124TIP3    H142787   2.041   5.986  13.452  0.0320  0.9218 -0.7672
 7124TIP3    H242788   2.178   6.049  13.459  0.0763  0.5838  1.6410
 7125TIP3   OH242789   1.893   4.429  13.996 -0.0403 -0.2689 -0.0156
 7125TIP3    H142790   1.980   4.468  13.995  0.8407 -2.1619 -0.2921
 7125TIP3    H242791   1.871   4.420  14.089  0.1486 -0.0052  0.0542
 7126TIP3   OH242792   1.660   5.748   6.615 -0.5444  0.2928 -0.2223
 7126TIP3    H142793   1.609   5.808   6.561  1.3932  1.1260 -1.1835
 7126TIP3    H242794   1.651   5.783   6.704 -0.3163  1.3910 -0.6164
 7127TIP3   OH242795   5.754   3.779   1.608 -0.0612 -0.2580  0.0944
 7127TIP3    H142796   5.785   3.745   1.524  1.2632 -0.0954  0.5200
 7127TIP3    H242797   5.739   3.872   1.592  2.8628  0.3795  0.7560
 7128TIP3   OH242798   2.778   1.179   4.399  0.1548 -0.5011 -0.2784
 7128TIP3    H142799   2.816   1.110   4.344 -2.1548 -0.2604 -2.2369
 7128TIP3    H242800   2.691   1.146   4.422  0.4252  0.1877  1.8035
 7129TIP3   OH242801   5.992   0.960   5.421 -0.2147 -0.3349  0.2387
 7129TIP3    H142802   5.966   1.048   5.451  1.3649  0.6793 -1.2469
 7129TIP3    H242803   5.945   0.949   5.339  1.0676 -0.0543 -0.5503
 7130TIP3   OH242804   1.784   5.021   1.861 -0.0319  0.0829  0.3966
 7130TIP3    H142805   1.846   4.948   1.852  2.2758  1.9822  0.3330
 7130TIP3    H242806   1.705   4.990   1.818  0.2630 -3.0831  1.9752
 7131TIP3   OH242807   2.056   0.274   5.644  0.2057  0.7026  0.6665
 7131TIP3    H142808   1.965   0.247   5.630  0.6781 -0.9369  0.6275
 7131TIP3    H242809   2.098   0.197   5.682  1.5307  1.5260  0.9035
 7132TIP3   OH242810   1.901   5.143   0.334 -0.1929 -0.7427 -0.7191
 7132TIP3    H142811   1.879   5.074   0.271  0.7097 -1.5526 -0.1665
 7132TIP3    H242812   1.874   5.108   0.419 -4.1298  1.5546 -0.9354
 7133TIP3   OH242813   1.307   3.199   3.905 -0.2093 -0.0485  0.1823
 7133TIP3    H142814   1.300   3.120   3.959  1.4095 -0.4569 -0.1714
 7133TIP3    H242815   1.268   3.268   3.958 -0.9043 -0.9281  0.8306
 7134TIP3   OH242816   6.143   4.898  16.692 -0.1669 -0.3253  0.2120
 7134TIP3    H142817   6.176   4.890  16.782  0.6936 -0.8682 -0.1501
 7134TIP3    H242818   6.090   4.979  16.693 -1.1340 -0.9601  1.4880
 7135TIP3   OH242819   2.805   0.892  16.673 -0.1743  0.3019  0.8431
 7135TIP3    H142820   2.766   0.837  16.741  0.2594  1.1848  1.8149
 7135TIP3    H242821   2.833   0.830  16.605 -1.5413 -0.5008  0.9859
 7136TIP3   OH242822   5.182   0.244  11.486  0.1707  0.1288  0.6496
 7136TIP3    H142823   5.133   0.180  11.435 -1.1400 -0.7751  2.9527
 7136TIP3    H242824   5.122   0.318  11.496 -0.4606 -0.6244  2.7413
 7137TIP3   OH242825   3.642   1.765  16.195 -0.2490  0.3271  0.0935
 7137TIP3    H142826   3.563   1.794  16.241 -0.3946  2.5314 -1.4348
 7137TIP3    H242827   3.700   1.735  16.264 -2.6323 -1.9363  1.2089
 7138TIP3   OH242828   5.204   5.406  16.868 -0.7683 -0.2839 -0.0424
 7138TIP3    H142829   5.132   5.385  16.809  0.8021 -2.7098 -1.1931
 7138TIP3    H242830   5.279   5.357  16.834  1.5259  2.3197  0.9706
 7139TIP3   OH242831   0.381   3.536   6.071  0.8826 -0.2558  0.1554
 7139TIP3    H142832   0.421   3.604   6.018 -0.4139 -0.6818 -1.4259
 7139TIP3    H242833   0.364   3.578   6.156  1.1613  1.0357 -0.4207
 7140TIP3   OH242834   1.503   1.242  14.276  0.6651 -0.1085 -0.4906
 7140TIP3    H142835   1.463   1.328  14.262  0.3045 -0.5748 -2.3761
 7140TIP3    H242836   1.483   1.221  14.367 -1.3266  0.7257 -0.7127
 7141TIP3   OH242837   3.657   1.512   0.774  0.3446  0.5015 -0.3678
 7141TIP3    H142838   3.617   1.536   0.690  1.7001  0.8790 -0.9249
 7141TIP3    H242839   3.751   1.523   0.759  0.5984  0.5282  1.1963
 7142TIP3   OH242840   1.178   6.382  16.751  0.0031 -0.8074 -0.0321
 7142TIP3    H142841   1.237   6.456  16.735  0.1796 -1.0595 -0.5476
 7142TIP3    H242842   1.235   6.311  16.780  0.0889 -1.3696 -1.5305
 7143TIP3   OH242843   4.026   1.041  13.754 -0.2590  0.1958  0.0593
 7143TIP3    H142844   3.995   1.064  13.666  0.1900 -0.4197 -0.2685
 7143TIP3    H242845   4.067   0.955  13.743  0.3827  0.4061  0.7368
 7144TIP3   OH242846   2.157   5.340   1.588 -0.2973  0.2688  0.1139
 7144TIP3    H142847   2.175   5.246   1.592 -1.4938  0.0295  0.2892
 7144TIP3    H242848   2.196   5.370   1.506  0.1371 -0.3662  0.0897
 7145TIP3   OH242849   0.256   0.706  13.855  0.3550 -0.2616 -0.1353
 7145TIP3    H142850   0.214   0.641  13.912  1.4932 -2.6267 -1.8927
 7145TIP3    H242851   0.343   0.719  13.895 -0.0227  0.4766  0.4405
 7146TIP3   OH242852   6.029   4.919  14.729 -0.0732  0.3936  0.2340
 7146TIP3    H142853   5.942   4.954  14.749  0.0220  0.8408 -0.1316
 7146TIP3    H242854   6.052   4.958  14.645  0.6566  0.5966  0.5253
 7147TIP3   OH242855   4.549   0.776   4.482  0.4367 -0.4134  0.2205
 7147TIP3    H142856   4.532   0.853   4.428 -0.0885  0.4631  1.5957
 7147TIP3    H242857   4.474   0.719   4.466 -0.4501  0.4809  1.1222
 7148TIP3   OH242858   1.317   3.000   4.102 -0.2676  0.4879 -0.4113
 7148TIP3    H142859   1.394   2.971   4.151 -0.0944 -0.5561 -1.2866
 7148TIP3    H242860   1.270   3.057   4.163  0.5396  0.1261  0.5664
 7149TIP3   OH242861   1.529   5.191   0.307 -0.5638  0.0437 -0.0782
 7149TIP3    H142862   1.504   5.263   0.365 -0.3401 -0.5460  0.7589
 7149TIP3    H242863   1.447   5.163   0.266 -0.3816  2.0104 -1.8421
 7150TIP3   OH242864   2.579   4.416   5.962  0.2654  0.1706 -0.1391
 7150TIP3    H142865   2.525   4.446   5.888 -0.6833  2.1414  1.2791
 7150TIP3    H242866   2.535   4.338   5.994 -1.3578  1.3020  0.4881
 7151TIP3   OH242867   6.630   6.056  11.868 -0.0436  0.5768 -0.3617
 7151TIP3    H142868   6.687   6.078  11.795  0.6341  1.9514  0.5714
 7151TIP3    H242869   6.667   5.976  11.905  1.4404  1.5966  0.3952
 7152TIP3   OH242870   5.156   5.772  16.744 -0.5229  0.0247 -0.7403
 7152TIP3    H142871   5.245   5.737  16.747 -1.0404 -1.3191 -0.9419
 7152TIP3    H242872   5.144   5.798  16.653 -0.7867 -1.0038 -1.0071
 7153TIP3   OH242873   3.342   1.210  13.606  0.0854  0.0031  0.1080
 7153TIP3    H142874   3.414   1.168  13.653  0.2517  1.6367  1.3730
 7153TIP3    H242875   3.290   1.253  13.675 -1.9549 -0.9204 -0.8047
 7154TIP3   OH242876   5.664   3.438  12.151  0.4756  0.5733  0.3652
 7154TIP3    H142877   5.663   3.416  12.244  0.6392  0.3909  0.3247
 7154TIP3    H242878   5.750   3.409  12.121  0.1618  0.0027  0.0080
 7155TIP3   OH242879   0.428   6.065  13.650 -0.8107 -0.3314 -1.3384
 7155TIP3    H142880   0.361   6.105  13.707 -0.2155 -1.7163  0.3901
 7155TIP3    H242881   0.508   6.112  13.671 -0.3927 -1.4753 -0.3028
 7156TIP3   OH242882   4.394   6.169  15.095  0.4032  0.1398  0.0117
 7156TIP3    H142883   4.474   6.196  15.140 -0.0879  1.0393  0.3382
 7156TIP3    H242884   4.422   6.153  15.004  0.9673  0.3485  0.1483
 7157TIP3   OH242885   2.374   0.531  13.338 -0.3940 -0.5128 -0.0751
 7157TIP3    H142886   2.419   0.458  13.381  0.7989 -1.2450 -2.5068
 7157TIP3    H242887   2.331   0.491  13.262 -0.2932  1.1817 -1.0522
 7158TIP3   OH242888   4.114   4.887  11.693  0.2701  0.2084  0.8349
 7158TIP3    H142889   4.185   4.834  11.657  1.0286  1.3658  0.5630
 7158TIP3    H242890   4.112   4.864  11.786  0.9069  0.0532  0.8155
 7159TIP3   OH242891   4.589   6.758   5.402  0.2448 -0.4460  0.3351
 7159TIP3    H142892   4.506   6.749   5.354  1.1041  1.2969 -1.5513
 7159TIP3    H242893   4.653   6.717   5.344  1.1178  0.6579  0.5191
 7160TIP3   OH242894   2.719   3.879  12.328  0.1413 -0.2808  0.0422
 7160TIP3    H142895   2.775   3.821  12.379 -1.1467 -0.3113  1.4441
 7160TIP3    H242896   2.689   3.825  12.255 -0.0097 -0.9869  0.6244
 7161TIP3   OH242897   1.188   0.012   3.138 -0.5291 -0.5486  0.1141
 7161TIP3    H142898   1.179  -0.016   3.047  2.5319  0.6595 -0.6505
 7161TIP3    H242899   1.177   0.107   3.135 -0.5128 -0.5111  1.0181
 7162TIP3   OH242900   3.011   3.796  14.001 -0.3434  0.1757 -0.1135
 7162TIP3    H142901   2.984   3.795  13.909 -0.5949 -1.0561 -0.0370
 7162TIP3    H242902   2.994   3.885  14.030  0.6103  0.8177 -1.5158
 7163TIP3   OH242903   6.595   0.672   2.899 -0.0603  0.2210  0.2223
 7163TIP3    H142904   6.681   0.714   2.900  1.1802 -2.1387 -1.6357
 7163TIP3    H242905   6.539   0.733   2.850  0.5945  1.6574  1.2451
 7164TIP3   OH242906   5.333   1.973   0.966  0.2570  0.4752  0.1885
 7164TIP3    H142907   5.264   1.973   1.032  0.2660  1.0822  0.1991
 7164TIP3    H242908   5.414   1.974   1.016  0.2817 -0.3221  0.1769
 7165TIP3   OH242909   4.449   1.224  12.628  0.4830 -0.6771 -0.2884
 7165TIP3    H142910   4.446   1.216  12.532  0.5939 -0.6496 -0.2951
 7165TIP3    H242911   4.424   1.137  12.660  2.5394 -1.3335 -0.3696
 7166TIP3   OH242912   0.156   1.481  11.410  0.1631 -0.0029  0.2223
 7166TIP3    H142913   0.186   1.516  11.494  0.2014  0.1415  0.1488
 7166TIP3    H242914   0.177   1.549  11.347 -0.8032  0.3284  0.2492
 7167TIP3   OH242915   4.955   6.592   5.635 -0.1999 -0.4192 -0.0397
 7167TIP3    H142916   4.892   6.563   5.570  0.6378 -1.6317 -0.3250
 7167TIP3    H242917   4.979   6.513   5.684 -1.1217  0.5374  2.0317
 7168TIP3   OH242918   1.956   2.365   1.276  0.5680 -0.6289 -0.0093
 7168TIP3    H142919   2.018   2.324   1.215  0.5652  2.0040 -1.8586
 7168TIP3    H242920   1.895   2.413   1.220 -0.4387  0.4983  2.0008
 7169TIP3   OH242921   4.015   4.954   6.107 -0.8054 -0.0143  0.5542
 7169TIP3    H142922   4.082   4.917   6.165  0.7109  1.3201 -0.2855
 7169TIP3    H242923   3.994   4.883   6.046  2.6561  0.6181 -1.5526
 7170TIP3   OH242924   2.340   5.947  11.358  0.1430  1.0413 -0.0657
 7170TIP3    H142925   2.342   5.890  11.436  0.3805 -0.4530 -1.1339
 7170TIP3    H242926   2.252   5.983  11.356 -1.3448 -2.4127 -1.5164
 7171TIP3   OH242927   0.087   1.038  17.136  0.2146 -0.0703  0.0228
 7171TIP3    H142928   0.060   1.060  17.226 -1.3319  1.7248 -0.8393
 7171TIP3    H242929   0.171   0.995  17.146  0.1093  0.1952  2.3503
 7172TIP3   OH242930   1.637   6.030   3.756 -0.2601 -0.3636  0.2609
 7172TIP3    H142931   1.639   5.962   3.688 -0.2235  1.2060 -1.3275
 7172TIP3    H242932   1.726   6.065   3.758 -0.9124  1.3905 -0.7371
 7173TIP3   OH242933   6.719   1.569  13.688  0.3246  0.1260  0.4232
 7173TIP3    H142934   6.634   1.574  13.645  0.5117  0.4298  0.0754
 7173TIP3    H242935   6.752   1.482  13.665 -0.1640 -0.2384  1.0916
 7174TIP3   OH242936   4.125   2.883   6.053 -0.2172  0.1396 -0.0830
 7174TIP3    H142937   4.115   2.977   6.037 -0.3272  0.0956 -0.2824
 7174TIP3    H242938   4.106   2.872   6.146  0.9510  0.4812  0.2045
 7175TIP3   OH242939   3.995   3.340   3.841 -0.0609 -0.0816  0.0431
 7175TIP3    H142940   3.957   3.261   3.880  0.0692  0.1695  0.6895
 7175TIP3    H242941   3.974   3.334   3.748 -1.0991 -0.2892  0.2845
 7176TIP3   OH242942   3.531   6.538  14.100 -0.3400  0.2171  0.1069
 7176TIP3    H142943   3.459   6.474  14.103 -0.4662  0.3616  0.1410
 7176TIP3    H242944   3.489   6.622  14.115 -0.2899  0.4026 -0.8261
 7177TIP3   OH242945   5.805   2.844  16.960  0.3032  0.3276 -0.6604
 7177TIP3    H142946   5.755   2.796  17.026  0.6636  0.1859 -0.4905
 7177TIP3    H242947   5.835   2.923  17.005  0.9470  0.0011 -0.5174
 7178TIP3   OH242948   5.819   5.053  13.052  0.1817 -0.5339 -0.1048
 7178TIP3    H142949   5.892   5.031  13.110 -0.9321 -0.1843  1.4744
 7178TIP3    H242950   5.853   5.120  12.994  0.6352  0.8347  1.7186
 7179TIP3   OH242951   4.518   0.532  13.436 -0.2266 -0.1629 -0.4834
 7179TIP3    H142952   4.503   0.541  13.342 -2.3369 -0.4565 -0.1822
 7179TIP3    H242953   4.431   0.537  13.475  0.4384 -2.0743  1.2996
 7180TIP3   OH242954   5.594   1.832   2.598 -0.4312 -0.4289  0.3699
 7180TIP3    H142955   5.614   1.859   2.509 -0.0153  0.8547  0.8317
 7180TIP3    H242956   5.664   1.872   2.651 -0.5164 -1.3940  1.2381
 7181TIP3   OH242957   3.579   2.272  15.075  0.3441 -0.1079  0.3534
 7181TIP3    H142958   3.592   2.177  15.075 -0.9989 -0.3005  0.2144
 7181TIP3    H242959   3.486   2.284  15.056  0.5962  1.2548 -0.1114
 7182TIP3   OH242960   1.354   5.315   1.151 -0.1948 -0.2251 -0.1129
 7182TIP3    H142961   1.354   5.342   1.059  0.3357 -1.2386 -0.4203
 7182TIP3    H242962   1.424   5.367   1.191  0.6500 -0.9163 -0.6458
 7183TIP3   OH242963   3.751   5.382   4.074  0.1811  0.1008 -0.4527
 7183TIP3    H142964   3.662   5.349   4.067 -0.1724  0.6342  1.3399
 7183TIP3    H242965   3.796   5.319   4.131  1.0367 -0.3249 -1.5765
 7184TIP3   OH242966   3.978   6.050   4.126 -0.2527 -0.2707 -0.0797
 7184TIP3    H142967   3.918   6.118   4.096  0.3918 -0.8124 -2.7839
 7184TIP3    H242968   3.931   5.968   4.110  0.4518 -0.6112 -0.4205
 7185TIP3   OH242969   4.882   5.962  15.345 -0.0596  0.4248 -0.0601
 7185TIP3    H142970   4.917   5.977  15.432  2.9783 -3.5941 -0.4686
 7185TIP3    H242971   4.833   5.880  15.352  0.8611 -0.3563 -2.2207
 7186TIP3   OH242972   6.676   1.078   1.364  0.2182 -0.2504  0.0561
 7186TIP3    H142973   6.731   1.006   1.394 -0.3025 -0.5374  0.3392
 7186TIP3    H242974   6.657   1.058   1.273 -0.8458 -1.0705  0.4370
 7187TIP3   OH242975   2.363   1.634   3.280 -0.2849  0.7211  0.5009
 7187TIP3    H142976   2.328   1.648   3.368  2.2531  1.7912  1.3549
 7187TIP3    H242977   2.330   1.709   3.230 -2.3638 -0.2794  0.2903
 7188TIP3   OH242978   1.797   1.651  16.655  0.6545 -0.5055  0.3939
 7188TIP3    H142979   1.723   1.703  16.625 -0.1976 -0.8566  1.8278
 7188TIP3    H242980   1.781   1.638  16.749  1.2710 -2.6606  0.2264
 7189TIP3   OH242981   5.764   2.693  15.282  0.7503  0.1950 -0.1828
 7189TIP3    H142982   5.701   2.677  15.213  0.5119 -1.8644  0.4931
 7189TIP3    H242983   5.714   2.738  15.350  0.5429  0.5142 -0.5436
 7190TIP3   OH242984   4.836   1.949   2.770 -0.4730  0.2989 -0.3709
 7190TIP3    H142985   4.760   1.991   2.810  1.1793  2.6484  0.4000
 7190TIP3    H242986   4.888   1.918   2.844  0.7911  1.4056 -0.7710
 7191TIP3   OH242987   5.931   0.449  17.122 -0.2578 -0.0408  0.0169
 7191TIP3    H142988   5.861   0.471  17.061 -0.0329  0.6196 -0.0159
 7191TIP3    H242989   5.889   0.447  17.208 -0.5588 -0.8922 -0.1518
 7192TIP3   OH242990   1.786   3.191  17.205  0.3464 -0.1283  0.2667
 7192TIP3    H142991   1.850   3.236  17.261 -0.3600  0.9343  0.2255
 7192TIP3    H242992   1.722   3.258  17.182 -0.0714 -0.8633 -0.7808
 7193TIP3   OH242993   2.685   2.883  16.649  0.0901  0.2344  0.1876
 7193TIP3    H142994   2.767   2.879  16.602 -1.2013 -1.2159 -2.0303
 7193TIP3    H242995   2.640   2.960  16.614 -0.4818 -0.3266 -0.3398
 7194TIP3   OH242996   0.248   5.743   4.562  0.5653 -0.3027 -0.3720
 7194TIP3    H142997   0.254   5.796   4.642 -2.2830 -1.5817  0.7467
 7194TIP3    H242998   0.195   5.796   4.502  0.0353 -0.6794 -0.2447
 7195TIP3   OH242999   2.781   6.031   3.004  0.4804 -0.0992  0.0962
 7195TIP3    H143000   2.770   5.953   3.058  1.4332 -0.5606 -0.3636
 7195TIP3    H243001   2.765   6.104   3.064 -4.4888 -0.6461 -0.3718
 7196TIP3   OH243002   5.692   6.544   0.092 -0.5237 -0.1857 -0.1096
 7196TIP3    H143003   5.775   6.496   0.102  1.2325  2.9602  1.1322
 7196TIP3    H243004   5.654   6.545   0.180 -1.1866 -0.3586 -0.3894
 7197TIP3   OH243005   4.247   1.653  13.092 -0.0307 -0.4985  0.5049
 7197TIP3    H143006   4.251   1.675  12.999 -1.1105  0.9014  0.7645
 7197TIP3    H243007   4.213   1.564  13.094  0.8028 -0.8455 -0.4652
 7198TIP3   OH243008   1.320   5.436  16.647  0.1562 -0.3485  0.1072
 7198TIP3    H143009   1.414   5.450  16.648  0.2958 -1.2601  0.7599
 7198TIP3    H243010   1.310   5.340  16.642 -0.7331 -0.2422 -0.4721
 7199TIP3   OH243011   4.318   2.866  15.561 -0.4631 -0.7412 -0.6773
 7199TIP3    H143012   4.260   2.941  15.547  0.5555  0.1635 -0.1621
 7199TIP3    H243013   4.268   2.791  15.530 -2.1386 -0.0636  0.2857
 7200TIP3   OH243014   3.077   2.939  16.953 -0.2975 -0.4769 -0.2868
 7200TIP3    H143015   3.107   2.981  16.873  1.1888  1.2744  1.1254
 7200TIP3    H243016   2.982   2.948  16.951 -0.2020  0.4126 -1.3891
 7201TIP3   OH243017   4.317   1.292   2.459  0.1036 -0.3664 -0.3513
 7201TIP3    H143018   4.374   1.354   2.414 -0.0941  0.6363  0.7509
 7201TIP3    H243019   4.255   1.347   2.506 -0.1475 -1.4093  0.5527
 7202TIP3   OH243020   6.059   3.198  11.731  0.8305  0.0301  0.0059
 7202TIP3    H143021   6.012   3.275  11.763  1.2514 -0.0397  0.8236
 7202TIP3    H243022   5.992   3.141  11.694  0.5263  0.8196 -0.6720
 7203TIP3   OH243023   1.992   1.504  12.271 -0.3086  0.3831 -0.1029
 7203TIP3    H143024   1.931   1.493  12.197 -1.4920  0.0665  0.9103
 7203TIP3    H243025   1.975   1.429  12.328  0.9983  0.3265  0.2255
 7204TIP3   OH243026   1.981   5.654   2.557  0.0288 -0.2459 -0.3890
 7204TIP3    H143027   1.941   5.673   2.473  0.1141 -2.6090 -0.9776
 7204TIP3    H243028   2.072   5.634   2.536 -0.2130 -1.9360  0.1229
 7205TIP3   OH243029   4.198   1.206  15.442  0.4801 -0.1833  0.1405
 7205TIP3    H143030   4.266   1.228  15.506 -0.6313 -0.0473  1.2883
 7205TIP3    H243031   4.117   1.206  15.492 -0.4161 -0.0209 -1.2858
 7206TIP3   OH243032   1.035   4.922   1.238  0.0919 -0.2849 -0.1620
 7206TIP3    H143033   0.952   4.968   1.248 -0.5671 -1.4501 -0.1159
 7206TIP3    H243034   1.076   4.962   1.161 -0.6032  0.1537 -0.3090
 7207TIP3   OH243035   6.587   4.866  14.855  0.0126  1.1178  0.0983
 7207TIP3    H143036   6.638   4.792  14.889 -1.3286 -0.8791 -2.0242
 7207TIP3    H243037   6.516   4.877  14.919  0.8614  1.3230  1.0167
 7208TIP3   OH243038   1.270   2.398   5.548  1.0516  0.1511  0.0208
 7208TIP3    H143039   1.319   2.315   5.552  2.2199  0.8745  1.4655
 7208TIP3    H243040   1.304   2.442   5.470 -0.6785 -1.3739 -1.6338
 7209TIP3   OH243041   0.119   0.188  13.822 -0.1213  0.3454 -0.4583
 7209TIP3    H143042   0.028   0.210  13.801 -0.2989  0.1878  0.1475
 7209TIP3    H243043   0.154   0.150  13.741  0.4192  3.5342 -1.8062
 7210TIP3   OH243044   2.184   4.393   6.560 -0.1502 -0.2224 -0.2013
 7210TIP3    H143045   2.262   4.352   6.598  0.2197  0.1897 -0.5094
 7210TIP3    H243046   2.144   4.323   6.508 -1.6884 -1.3432  2.3970
 7211TIP3   OH243047   6.437   3.751   4.588  0.2039  0.1788  0.1131
 7211TIP3    H143048   6.342   3.744   4.595  0.2861 -0.4434  0.6695
 7211TIP3    H243049   6.451   3.814   4.518 -0.6199 -0.8057 -0.9663
 7212TIP3   OH243050   2.908   1.336  14.255 -0.0460  0.3559 -0.8957
 7212TIP3    H143051   2.966   1.369  14.324  0.6454  1.5468 -2.0217
 7212TIP3    H243052   2.840   1.402  14.248 -0.3874 -0.0082 -1.0164
 7213TIP3   OH243053   5.339   4.979   4.435 -0.1324  0.4788 -0.4973
 7213TIP3    H143054   5.419   4.929   4.448 -0.3851  0.4299  0.9188
 7213TIP3    H243055   5.350   5.057   4.489 -1.1287  0.3618 -0.1154
 7214TIP3   OH243056   4.539   1.309  13.538 -0.0128 -0.1919 -0.0210
 7214TIP3    H143057   4.451   1.334  13.565 -0.1032 -0.1019 -0.3982
 7214TIP3    H243058   4.528   1.223  13.497  0.2281 -0.6393  0.8575
 7215TIP3   OH243059   5.837   1.542  12.276  0.4420 -0.5133 -0.0380
 7215TIP3    H143060   5.752   1.498  12.268 -0.4343  1.2235 -0.9516
 7215TIP3    H243061   5.873   1.541  12.187  1.3335 -1.1587  0.3280
 7216TIP3   OH243062   4.428   1.977   4.976  0.0979 -0.1477 -0.4176
 7216TIP3    H143063   4.333   1.979   4.987  0.1206 -1.9307  0.3447
 7216TIP3    H243064   4.455   2.069   4.974 -1.7136  0.3755 -1.3750
 7217TIP3   OH243065   4.011   6.607  17.151  0.1284 -0.0051 -0.1872
 7217TIP3    H143066   3.985   6.612  17.243  2.2611 -0.1177  0.4517
 7217TIP3    H243067   3.994   6.516  17.127  0.5687 -0.2587  0.4250
 7218TIP3   OH243068   5.609   4.537  13.554 -0.0744  0.6396 -0.5233
 7218TIP3    H143069   5.635   4.445  13.562 -0.9513  0.2850 -1.7269
 7218TIP3    H243070   5.537   4.537  13.492  0.3162  2.2236 -1.0184
 7219TIP3   OH243071   4.065   0.895   5.500  0.3514  0.3907  0.0898
 7219TIP3    H143072   4.031   0.830   5.561 -0.3315  1.0081  0.3817
 7219TIP3    H243073   4.138   0.937   5.547 -1.0229  1.7851  1.0256
 7220TIP3   OH243074   5.382   0.372   3.428  0.0397 -0.3771 -0.3907
 7220TIP3    H143075   5.316   0.392   3.362 -1.3412 -1.8919  0.4999
 7220TIP3    H243076   5.448   0.321   3.381 -0.4944 -0.6971 -0.7951
 7221TIP3   OH243077   0.067   2.621   2.355 -0.0831 -0.2244  0.2826
 7221TIP3    H143078   0.016   2.698   2.330  0.1100 -0.4962 -0.9688
 7221TIP3    H243079   0.003   2.550   2.360 -0.3001  0.0539  1.6727
 7222TIP3   OH243080   1.682   3.983   3.420 -0.4213 -0.1381  0.1315
 7222TIP3    H143081   1.732   4.004   3.498  0.1449 -1.7603  0.2276
 7222TIP3    H243082   1.626   3.909   3.446  0.3040 -1.1707 -1.1795
 7223TIP3   OH243083   2.663   0.853   5.256  0.3017 -0.0667  0.0057
 7223TIP3    H143084   2.588   0.794   5.257  0.6224 -0.5150  2.4951
 7223TIP3    H243085   2.630   0.933   5.216 -0.9858 -0.9010 -0.6392
 7224TIP3   OH243086   5.053   4.902  15.045 -0.3594  0.0092 -0.1865
 7224TIP3    H143087   5.003   4.855  15.112 -2.0079  2.5515  0.4337
 7224TIP3    H243088   5.049   4.994  15.072  3.1149  0.5042 -1.1546
 7225TIP3   OH243089   5.055   0.757  12.135  0.4690 -0.1200  0.1350
 7225TIP3    H143090   5.131   0.808  12.105  1.6230 -0.7655  1.8636
 7225TIP3    H243091   5.061   0.675  12.088 -0.0441  0.4327 -0.8952
 7226TIP3   OH243092   2.185   2.891   3.252 -0.5028 -0.3178 -0.7747
 7226TIP3    H143093   2.099   2.932   3.262 -0.3494 -0.6117  2.2001
 7226TIP3    H243094   2.244   2.963   3.232 -1.2584  0.0427 -1.7060
 7227TIP3   OH243095   3.531   1.132   1.834 -0.1504 -0.3914 -0.1183
 7227TIP3    H143096   3.447   1.088   1.820 -0.6873  0.8215 -0.8293
 7227TIP3    H243097   3.522   1.216   1.788  1.4410 -0.2347 -0.1743
 7228TIP3   OH243098   4.552   0.420   6.478 -0.5065 -0.3096 -0.1756
 7228TIP3    H143099   4.599   0.497   6.509 -1.3597  0.2926 -0.3544
 7228TIP3    H243100   4.620   0.361   6.446  0.1397  0.4520 -0.2173
 7229TIP3   OH243101   1.461   5.946   4.926 -0.1747  0.3586 -0.3587
 7229TIP3    H143102   1.527   6.015   4.923  0.9167 -0.7037 -1.6727
 7229TIP3    H243103   1.511   5.864   4.921 -1.4971 -0.5056  0.2359
 7230TIP3   OH243104   5.276   6.506   5.932  0.3731 -0.3061 -0.1337
 7230TIP3    H143105   5.362   6.543   5.953  0.7589 -1.2362 -0.0443
 7230TIP3    H243106   5.288   6.467   5.845  0.6650 -2.3317  0.7864
 7231TIP3   OH243107   2.361   4.890   3.997 -0.5570  0.2497  0.7004
 7231TIP3    H143108   2.445   4.903   4.041  0.5534 -0.7392 -1.1062
 7231TIP3    H243109   2.351   4.968   3.942  0.3511 -0.7409 -0.9121
 7232TIP3   OH243110   5.503   1.299   0.226  0.2536  0.1280 -0.0452
 7232TIP3    H143111   5.444   1.246   0.279  0.2032 -0.9574 -1.1681
 7232TIP3    H243112   5.461   1.385   0.223 -0.4397 -0.1837  0.5068
 7233TIP3   OH243113   0.610   0.625  15.153 -0.2507 -1.0259  0.6778
 7233TIP3    H143114   0.530   0.594  15.197 -0.4213  1.1773  1.9673
 7233TIP3    H243115   0.662   0.663  15.223  0.6966  0.0801 -0.6192
 7234TIP3   OH243116   5.472   4.998   3.232  0.2733 -0.4445 -0.4315
 7234TIP3    H143117   5.403   5.064   3.238  1.3111  0.8582 -2.2949
 7234TIP3    H243118   5.424   4.915   3.225 -1.0991  0.3496 -0.8087
 7235TIP3   OH243119   3.644   0.557   5.341 -0.1418  0.5132 -0.3990
 7235TIP3    H143120   3.730   0.599   5.338 -0.2035  0.6087 -0.8824
 7235TIP3    H243121   3.650   0.487   5.276 -0.7128  1.0575 -1.0359
 7236TIP3   OH243122   6.044   4.913   0.001  0.4202 -0.1855 -0.2534
 7236TIP3    H143123   6.099   4.992   0.001  0.7925 -0.4148  1.3259
 7236TIP3    H243124   6.101   4.844   0.035 -0.4063 -0.7441  0.0351
 7237TIP3   OH243125   5.735   3.845   3.390  0.2350 -0.4368  0.0272
 7237TIP3    H143126   5.678   3.862   3.465 -0.4960 -0.0098 -0.6135
 7237TIP3    H243127   5.824   3.859   3.424 -0.1484  0.9162  0.5134
 7238TIP3   OH243128   5.051   0.215  13.775 -0.0481  0.1392  0.4425
 7238TIP3    H143129   5.119   0.265  13.820 -0.4961  0.2581  0.9933
 7238TIP3    H243130   4.993   0.281  13.737  1.9217  0.1012 -2.8423
 7239TIP3   OH243131   4.724   5.866   4.440  0.1954  0.2131  0.4962
 7239TIP3    H143132   4.723   5.935   4.506  0.4503 -0.0078  0.7317
 7239TIP3    H243133   4.777   5.901   4.368 -0.9902  0.8868 -0.0626
 7240TIP3   OH243134   6.294   5.061  14.598 -0.6063  0.0942  0.2392
 7240TIP3    H143135   6.220   5.077  14.540 -0.6987 -1.7794 -0.1848
 7240TIP3    H243136   6.293   4.967  14.614  0.7514  0.2640  1.5001
 7241TIP3   OH243137   5.908   4.771   5.213  0.1677  0.3479 -0.1977
 7241TIP3    H143138   5.956   4.700   5.257 -0.5021  0.5357  0.8372
 7241TIP3    H243139   5.977   4.825   5.174  0.8224  0.7973  1.5584
 7242TIP3   OH243140   6.327   3.358  15.326 -0.3441  0.3992 -0.1281
 7242TIP3    H143141   6.354   3.332  15.239  3.2718  2.8549  0.1365
 7242TIP3    H243142   6.375   3.301  15.385 -2.0215 -0.5940  0.3206
 7243TIP3   OH243143   4.382   5.519  16.130  0.2795 -0.4004 -0.0730
 7243TIP3    H143144   4.377   5.609  16.162 -0.5688 -0.4766  0.0390
 7243TIP3    H243145   4.314   5.473  16.179  0.1761 -0.9197 -0.7002
 7244TIP3   OH243146   0.588   4.596   4.834 -0.3576  0.4201  0.1421
 7244TIP3    H143147   0.600   4.517   4.781 -0.1263  1.0408 -0.7521
 7244TIP3    H243148   0.509   4.637   4.797 -0.2684  0.7877  0.3578
 7245TIP3   OH243149   0.598   5.491  13.319 -0.0483 -0.2465 -0.2168
 7245TIP3    H143150   0.680   5.479  13.368 -1.0941 -2.0764  1.1419
 7245TIP3    H243151   0.561   5.572  13.355  0.2339 -0.4372  0.5203
 7246TIP3   OH243152   5.977   0.612  15.456  0.2583 -0.0090  0.4387
 7246TIP3    H143153   5.951   0.591  15.545  0.7115 -1.1818  0.3032
 7246TIP3    H243154   5.991   0.527  15.414 -0.2840  0.5296 -0.8488
 7247TIP3   OH243155   1.513   0.968   1.132 -0.0888  0.0495  0.0822
 7247TIP3    H143156   1.575   0.949   1.203  0.3831  1.0684 -0.0407
 7247TIP3    H243157   1.428   0.938   1.165 -0.1044  1.6866  1.6015
 7248TIP3   OH243158   3.368   3.769   4.304 -0.3513  0.2792 -0.1814
 7248TIP3    H143159   3.317   3.810   4.234 -1.4917  1.2663  1.1662
 7248TIP3    H243160   3.321   3.794   4.384  2.2326  1.1504  1.1136
 7249TIP3   OH243161   0.315   0.846   3.442 -0.6549 -0.0490 -1.1282
 7249TIP3    H143162   0.261   0.842   3.521 -0.6515 -0.2615 -1.1363
 7249TIP3    H243163   0.290   0.928   3.400 -0.2904  0.3141 -0.6450
 7250TIP3   OH243164   2.968   6.008   4.781 -0.2155  0.2631 -0.3492
 7250TIP3    H143165   2.961   6.014   4.686  0.6424  1.0908 -0.3631
 7250TIP3    H243166   3.004   6.092   4.808  1.9502 -0.8801  0.4615
 7251TIP3   OH243167   2.429   2.498  15.605  0.1033 -0.4699  0.4572
 7251TIP3    H143168   2.391   2.431  15.661  0.8370 -2.9083 -1.8608
 7251TIP3    H243169   2.522   2.499  15.627  0.3364 -1.2064 -0.4599
 7252TIP3   OH243170   2.658   1.344  10.878 -0.2555  0.6186 -0.0937
 7252TIP3    H143171   2.581   1.354  10.823  0.3330  0.8866 -0.8813
 7252TIP3    H243172   2.728   1.386  10.828  0.1092  1.6315  1.2282
 7253TIP3   OH243173   2.850   1.291  15.615  0.1658 -0.0987 -0.5180
 7253TIP3    H143174   2.830   1.229  15.685 -0.9925 -1.1340 -1.7415
 7253TIP3    H243175   2.898   1.240  15.551  2.5337  1.1947  0.1378
 7254TIP3   OH243176   2.803   6.777   1.704  0.4623  0.1117 -0.0559
 7254TIP3    H143177   2.885   6.803   1.746  0.7242 -0.5893 -0.1292
 7254TIP3    H243178   2.830   6.742   1.619  0.1362 -0.6804  0.1637
 7255TIP3   OH243179   3.933   1.753   1.546 -0.3815  0.2917  0.6723
 7255TIP3    H143180   3.885   1.773   1.627  2.0761 -0.1620  2.3112
 7255TIP3    H243181   3.910   1.662   1.527  3.4209 -1.5852  4.2022
 7256TIP3   OH243182   6.151   0.400   5.030 -0.0817  0.3191 -0.5614
 7256TIP3    H143183   6.137   0.310   5.058 -0.1747  0.4610 -0.1396
 7256TIP3    H243184   6.116   0.453   5.102  0.2055  0.6887 -0.6918
 7257TIP3   OH243185   1.736   0.850  13.398 -0.2714 -0.1688  0.2788
 7257TIP3    H143186   1.791   0.919  13.435  0.4326 -1.5117  1.7865
 7257TIP3    H243187   1.766   0.841  13.307  0.8213  0.2934  0.5937
 7258TIP3   OH243188   5.656   1.133  13.760  0.5728  0.1716  0.4692
 7258TIP3    H143189   5.721   1.200  13.778 -0.5573  1.0987  1.1947
 7258TIP3    H243190   5.583   1.153  13.819 -0.5743 -0.5465 -0.6614
 7259TIP3   OH243191   4.157   0.712   1.602 -0.6795  0.6386 -0.0385
 7259TIP3    H143192   4.212   0.633   1.604 -0.8372  0.5597  1.4487
 7259TIP3    H243193   4.217   0.782   1.577 -0.4469  0.1431 -0.9439
 7260TIP3   OH243194   3.798   2.230  13.361 -0.3100  0.7373 -0.1973
 7260TIP3    H143195   3.764   2.288  13.293  0.0060 -0.6922 -1.6249
 7260TIP3    H243196   3.721   2.206  13.412 -1.1172 -0.6473 -1.9982
 7261TIP3   OH243197   0.196   0.438   2.955 -0.2575  0.4099  0.1608
 7261TIP3    H143198   0.123   0.482   2.911  0.5244  0.3120 -1.2635
 7261TIP3    H243199   0.272   0.459   2.901  0.8427  0.8195  1.8326
 7262TIP3   OH243200   4.462   0.898  16.139  0.1576 -0.4631 -0.4480
 7262TIP3    H143201   4.406   0.929  16.068  0.7328  1.4781 -0.0841
 7262TIP3    H243202   4.419   0.819  16.170 -1.2978 -0.1137 -1.4968
 7263TIP3   OH243203   5.837   1.555   4.661 -0.0654  0.0340  0.6794
 7263TIP3    H143204   5.841   1.485   4.595 -0.0722  0.0744  0.6354
 7263TIP3    H243205   5.900   1.529   4.728  2.9205  1.9526 -1.2639
 7264TIP3   OH243206   6.688   5.445  14.286  0.0421 -0.1601 -0.4169
 7264TIP3    H143207   6.665   5.432  14.194 -0.1089 -0.5590 -0.3238
 7264TIP3    H243208   6.607   5.426  14.334  0.2209 -0.3152 -0.1764
 7265TIP3   OH243209   0.797   1.494  16.970 -0.0458  0.0227 -0.1832
 7265TIP3    H143210   0.811   1.418  17.025 -0.0637 -0.3247 -0.6542
 7265TIP3    H243211   0.883   1.511  16.931 -0.2201 -0.2250 -0.6754
 7266TIP3   OH243212   3.592   4.341   0.750 -0.4277 -0.5708 -0.0271
 7266TIP3    H143213   3.683   4.370   0.754 -0.0263 -1.8002 -0.0213
 7266TIP3    H243214   3.561   4.371   0.665  0.7477 -2.3384 -1.0886
 7267TIP3   OH243215   4.629   4.467   4.969 -0.4764 -0.0808  0.0348
 7267TIP3    H143216   4.598   4.380   4.945 -0.3249 -0.3429  0.7924
 7267TIP3    H243217   4.650   4.461   5.062  0.1199  0.5942 -0.0465
 7268TIP3   OH243218   3.853   5.671   4.480  0.4905 -0.2721 -0.1000
 7268TIP3    H143219   3.779   5.729   4.500 -0.9519 -1.5477 -1.5646
 7268TIP3    H243220   3.885   5.643   4.566 -0.0320  1.1315  0.5719
 7269TIP3   OH243221   1.974   1.151  11.822  0.3292  0.0310 -0.5752
 7269TIP3    H143222   2.043   1.154  11.756  0.0813 -2.3747 -0.9857
 7269TIP3    H243223   1.896   1.121  11.775  0.1507 -1.7274  0.7819
 7270TIP3   OH243224   6.761   1.599  13.958  0.2917 -0.5881 -0.2721
 7270TIP3    H143225   6.736   1.572  13.869  1.0427 -1.8798 -0.1053
 7270TIP3    H243226   6.816   1.528  13.990 -0.2888 -0.2995  1.3879
 7271TIP3   OH243227   1.193   3.999   1.270  0.1595 -0.5595 -0.1778
 7271TIP3    H143228   1.101   4.013   1.249 -0.1956 -1.7864  0.4915
 7271TIP3    H243229   1.242   4.050   1.205 -0.9958  0.3348 -0.3442
 7272TIP3   OH243230   6.088   1.286   0.135  0.3052 -0.0471 -0.6017
 7272TIP3    H143231   6.091   1.379   0.159  1.0900 -0.3824  0.6068
 7272TIP3    H243232   6.015   1.281   0.072  0.9689  1.5774 -1.5535
 7273TIP3   OH243233   5.160   2.564   3.816  0.0952  0.1645  0.3908
 7273TIP3    H143234   5.136   2.635   3.757  0.3934 -1.1999 -1.3909
 7273TIP3    H243235   5.197   2.609   3.893 -2.5214  2.0183  0.6123
 7274TIP3   OH243236   2.153   1.751   2.583 -0.8802 -0.2468 -0.4366
 7274TIP3    H143237   2.194   1.676   2.626 -0.0690  0.4562  0.0215
 7274TIP3    H243238   2.059   1.738   2.597 -0.7605 -1.3192 -0.6053
 7275TIP3   OH243239   2.077   4.953   4.085  0.1619 -0.0094  0.7036
 7275TIP3    H143240   2.164   4.914   4.088 -0.1629 -0.8159  0.0616
 7275TIP3    H243241   2.091   5.045   4.104  1.1149 -0.1947  0.9353
 7276TIP3   OH243242   2.980   4.279   2.243  0.4016  0.2520 -0.8047
 7276TIP3    H143243   2.912   4.271   2.310  2.0774  1.0318  1.0415
 7276TIP3    H243244   2.966   4.204   2.185 -1.3256 -0.2108  0.1818
 7277TIP3   OH243245   4.039   3.474  14.107  0.3132  0.5147  0.3042
 7277TIP3    H143246   3.990   3.497  14.186 -0.7739  0.1428 -0.2508
 7277TIP3    H243247   3.974   3.434  14.049  0.8489  1.8006 -1.2287
 7278TIP3   OH243248   0.641   1.146  17.186 -0.0466  0.0656 -0.7013
 7278TIP3    H143249   0.605   1.219  17.237 -0.5618 -0.2246 -0.6389
 7278TIP3    H243250   0.610   1.068  17.233 -1.9693 -0.2344 -2.4067
 7279TIP3   OH243251   2.265   6.075   0.209 -0.0161  0.3403 -0.7203
 7279TIP3    H143252   2.222   6.137   0.149 -2.0864 -0.1838  0.1678
 7279TIP3    H243253   2.259   5.991   0.165 -1.3261 -0.0043  0.0862
 7280TIP3   OH243254   2.616   3.913  14.970  0.3391 -0.6437 -0.1572
 7280TIP3    H143255   2.567   3.911  14.888  0.3934  0.0801 -0.2105
 7280TIP3    H243256   2.701   3.874  14.948  1.3112  1.8996 -1.1027
 7281TIP3   OH243257   0.899   2.990   1.004  0.4507 -0.1129 -0.6453
 7281TIP3    H143258   0.993   2.986   1.020  0.3840 -0.9536 -0.4576
 7281TIP3    H243259   0.859   2.978   1.090  0.1475 -1.2048 -0.9305
 7282TIP3   OH243260   2.916   5.181   5.825  0.8207  1.0056  0.3328
 7282TIP3    H143261   2.874   5.095   5.828  0.7966  0.7591 -3.9806
 7282TIP3    H243262   2.860   5.237   5.877 -1.5424 -0.6842 -0.3002
 7283TIP3   OH243263   6.149   3.487  13.916  0.1258 -0.0906 -0.1550
 7283TIP3    H143264   6.096   3.527  13.985  0.4181 -0.2991  0.1913
 7283TIP3    H243265   6.126   3.536  13.837  0.0040  0.3405  0.1423
 7284TIP3   OH243266   6.587   0.433  13.369  0.1576 -0.7617 -0.9311
 7284TIP3    H143267   6.584   0.516  13.416 -0.7866 -1.2390 -0.1271
 7284TIP3    H243268   6.680   0.412  13.363  0.3931  0.2404 -0.9497
 7285TIP3   OH243269   3.569   6.492   1.749 -0.2025 -0.4301 -0.3671
 7285TIP3    H143270   3.528   6.448   1.674 -0.0532 -1.3373  0.0703
 7285TIP3    H243271   3.638   6.432   1.777  1.6428  1.2149 -1.2644
 7286TIP3   OH243272   5.915   3.009  12.416 -0.4028  0.3034 -0.1849
 7286TIP3    H143273   5.994   3.025  12.468 -0.7324 -0.8790  0.7213
 7286TIP3    H243274   5.853   2.971  12.479 -1.0439 -0.5137 -1.2981
 7287TIP3   OH243275   1.262   2.682  14.464  0.0704  0.2039  0.4415
 7287TIP3    H143276   1.286   2.622  14.534  0.7598 -0.7496 -0.5913
 7287TIP3    H243277   1.166   2.685  14.467 -0.0188 -1.5799  0.0003
 7288TIP3   OH243278   5.381   6.582   6.261 -0.2363  0.7973  0.1709
 7288TIP3    H143279   5.468   6.622   6.268  0.3377 -0.0990 -1.4759
 7288TIP3    H243280   5.333   6.639   6.202 -0.5393  0.9118  0.5272
 7289TIP3   OH243281   6.741   5.691   4.735  0.4764  0.6360  0.0324
 7289TIP3    H143282   6.765   5.737   4.816  1.0936 -0.0094  0.2192
 7289TIP3    H243283   6.824   5.665   4.697  0.1517  0.2490 -0.4130
 7290TIP3   OH243284   6.377   2.961  13.047 -0.3133 -0.5164  0.7669
 7290TIP3    H143285   6.422   2.882  13.016 -1.7448 -0.8017 -0.6595
 7290TIP3    H243286   6.400   2.967  13.140  1.0853 -1.7239  0.5213
 7291TIP3   OH243287   0.239   2.061   4.762 -0.1252 -0.3889 -0.4476
 7291TIP3    H143288   0.308   2.041   4.825 -0.9345 -0.5642  0.3788
 7291TIP3    H243289   0.199   1.976   4.743 -0.0187 -0.3101 -1.0529
 7292TIP3   OH243290   1.932   1.637  15.953  0.2465  0.2339 -0.3317
 7292TIP3    H143291   1.898   1.565  15.900  0.2644  1.5828 -2.2385
 7292TIP3    H243292   2.003   1.598  16.004 -2.7891 -2.1876  2.2805
 7293TIP3   OH243293   0.185   0.890   3.664  0.0343 -0.4936  0.1365
 7293TIP3    H143294   0.092   0.875   3.683 -0.2697  1.6321  0.4638
 7293TIP3    H243295   0.206   0.972   3.709  1.6929 -0.1899 -1.1266
 7294TIP3   OH243296   5.008   5.515   4.011 -0.1929 -0.2439 -0.1245
 7294TIP3    H143297   5.023   5.421   4.010 -1.5088 -0.4797  1.0513
 7294TIP3    H243298   5.021   5.541   4.102  1.5527  0.9626 -0.6947
 7295TIP3   OH243299   6.126   3.771   1.172  0.1462  0.2362 -0.4063
 7295TIP3    H143300   6.202   3.722   1.204 -0.1046 -0.9766 -1.6190
 7295TIP3    H243301   6.089   3.812   1.250  1.8351  0.5499  0.2491
 7296TIP3   OH243302   6.432   2.326   1.285 -0.3114 -0.6198  0.0767
 7296TIP3    H143303   6.490   2.266   1.238  2.2419 -0.1378  2.4993
 7296TIP3    H243304   6.424   2.288   1.372  0.8069  2.1523  1.4413
 7297TIP3   OH243305   0.939   5.946  11.241  0.3055  0.2590 -0.2870
 7297TIP3    H143306   0.897   5.862  11.224  2.2911 -0.4227 -2.0117
 7297TIP3    H243307   0.968   5.940  11.332  1.3712 -1.3497 -0.7129
 7298TIP3   OH243308   1.385   3.367   0.729 -0.0439 -0.0429  0.3441
 7298TIP3    H143309   1.468   3.350   0.686  0.4405 -1.8576  1.9825
 7298TIP3    H243310   1.350   3.444   0.682  1.0781 -1.1236 -2.3769
 7299TIP3   OH243311   5.793   4.406   5.356  0.2930  0.2358  0.0165
 7299TIP3    H143312   5.757   4.317   5.366  0.1970  0.4265  1.5352
 7299TIP3    H243313   5.848   4.401   5.278 -0.9800 -0.7452 -0.8431
 7300TIP3   OH243314   4.095   1.539   2.893  0.0441 -0.9210 -0.2198
 7300TIP3    H143315   4.086   1.505   2.981 -0.9677 -2.3942 -0.8710
 7300TIP3    H243316   4.006   1.559   2.866  0.6080  2.3003  0.1411
 7301TIP3   OH243317   1.462   6.351   4.247  0.4875 -0.1049 -0.3138
 7301TIP3    H143318   1.495   6.328   4.334  2.3862 -0.5526 -1.1182
 7301TIP3    H243319   1.450   6.446   4.251  0.1719 -0.1730  0.5604
 7302TIP3   OH243320   4.933   5.548  16.975 -0.6989 -0.2484  0.0502
 7302TIP3    H143321   4.928   5.501  17.058  0.1248 -0.6837 -0.1405
 7302TIP3    H243322   5.020   5.589  16.976 -0.6041 -0.4210 -0.6843
 7303TIP3   OH243323   3.785   2.197   3.751 -0.3267  0.0124  0.6296
 7303TIP3    H143324   3.786   2.280   3.797  1.8046 -1.0348  2.5605
 7303TIP3    H243325   3.876   2.182   3.726 -0.4753 -2.3022  1.3606
 7304TIP3   OH243326   0.133   0.956   6.641 -0.1714 -0.2753  0.3322
 7304TIP3    H143327   0.093   0.874   6.669 -0.8767 -0.3254 -0.8176
 7304TIP3    H243328   0.197   0.929   6.575 -1.5539  0.2519 -1.2316
 7305TIP3   OH243329   4.143   2.875   3.736 -0.0521  0.0936  0.0808
 7305TIP3    H143330   4.238   2.884   3.747 -0.1524  1.3631  0.0357
 7305TIP3    H243331   4.114   2.963   3.712 -1.3983 -0.0332  1.1996
 7306TIP3   OH243332   6.293   4.844  12.544  0.0247  0.3757  0.2156
 7306TIP3    H143333   6.383   4.821  12.519  0.4432  0.7266  1.3592
 7306TIP3    H243334   6.304   4.905  12.617 -1.1494  0.4904  0.2976
 7307TIP3   OH243335   5.702   0.941   4.465 -0.2035 -0.0862 -0.0838
 7307TIP3    H143336   5.727   0.885   4.538 -1.0365 -0.0069  0.2724
 7307TIP3    H243337   5.779   0.995   4.448 -0.3136  0.5243  1.3306
 7308TIP3   OH243338   0.976   4.330   2.622 -0.4762  0.1141  0.6042
 7308TIP3    H143339   1.046   4.394   2.636 -0.8705  0.9050 -0.8748
 7308TIP3    H243340   0.895   4.379   2.635 -0.7881  0.0420 -0.9583
 7309TIP3   OH243341   4.504   1.745  10.755 -0.2982  0.2698 -0.8871
 7309TIP3    H143342   4.596   1.729  10.775 -0.4358  1.8737  1.2029
 7309TIP3    H243343   4.504   1.786  10.669  0.7616 -1.6596 -1.8394
 7310TIP3   OH243344   6.728   2.892  12.744  0.8709  0.4197 -0.3436
 7310TIP3    H143345   6.682   2.809  12.734 -0.3275  0.9584  0.5990
 7310TIP3    H243346   6.797   2.890  12.677  0.5785 -1.1400 -0.6009
 7311TIP3   OH243347   5.512   6.452  11.645 -0.1586 -0.2424 -0.4266
 7311TIP3    H143348   5.430   6.484  11.683 -0.0200 -0.0209 -0.3086
 7311TIP3    H243349   5.500   6.358  11.637 -0.1622 -0.2964  0.2330
 7312TIP3   OH243350   1.112   4.991  12.102  0.3700  0.0430  0.2053
 7312TIP3    H143351   1.065   5.041  12.036  0.3366  0.1135  0.2827
 7312TIP3    H243352   1.071   5.016  12.185 -0.1352 -0.6761  0.1737
 7313TIP3   OH243353   0.459   1.786   4.102  0.2270  0.2862 -0.0552
 7313TIP3    H143354   0.482   1.721   4.036 -1.9580 -1.1320  0.4902
 7313TIP3    H243355   0.378   1.826   4.070  0.1132  0.8581  0.8922
 7314TIP3   OH243356   5.851   0.474   4.570 -0.3456 -0.3853  0.2146
 7314TIP3    H143357   5.787   0.427   4.623  0.6296 -2.0444 -0.0391
 7314TIP3    H243358   5.832   0.449   4.480  0.3876 -0.5403  0.1005
 7315TIP3   OH243359   1.637   5.103   2.619  0.6173 -0.4852 -0.4218
 7315TIP3    H143360   1.688   5.023   2.610  1.4365 -0.3371  2.3283
 7315TIP3    H243361   1.692   5.161   2.671 -0.4902  1.4055 -1.2971
 7316TIP3   OH243362   2.579   4.353  13.569  0.3934 -0.1135  0.1315
 7316TIP3    H143363   2.548   4.263  13.581  1.4529 -0.1810  2.4917
 7316TIP3    H243364   2.502   4.407  13.587 -0.3239 -0.5177 -1.5673
 7317TIP3   OH243365   4.787   0.650   5.481 -0.2444 -1.0185 -0.4926
 7317TIP3    H143366   4.693   0.638   5.470  0.0040 -0.3714 -3.6210
 7317TIP3    H243367   4.827   0.584   5.425  1.1551  0.1576 -0.9045
 7318TIP3   OH243368   4.908   6.578  10.753  0.2742  0.2988  0.2754
 7318TIP3    H143369   4.998   6.566  10.725  0.9709 -0.5168  2.7746
 7318TIP3    H243370   4.900   6.673  10.767  0.6579  0.4045 -0.1997
 7319TIP3   OH243371   4.239   6.526   3.818 -0.3569  0.0638 -0.4187
 7319TIP3    H143372   4.245   6.433   3.835  0.0295 -0.0932 -1.3514
 7319TIP3    H243373   4.329   6.553   3.800 -0.6620  0.3114 -1.6288
 7320TIP3   OH243374   5.746   6.198   5.374 -0.3922  0.3344  0.2115
 7320TIP3    H143375   5.735   6.129   5.309 -0.0752 -1.5065  2.0611
 7320TIP3    H243376   5.840   6.213   5.377 -0.2135 -0.8697  1.4859
 7321TIP3   OH243377   2.948   5.937   4.022  0.6965  0.0671  0.4615
 7321TIP3    H143378   2.970   5.869   3.957 -3.4451 -0.6228 -0.3157
 7321TIP3    H243379   2.924   5.888   4.100  1.3626  0.7923  1.1326
 7322TIP3   OH243380   1.910   5.528   3.431  0.4264  0.6959  0.1861
 7322TIP3    H143381   1.898   5.623   3.435  1.3844  1.0097 -3.0063
 7322TIP3    H243382   2.000   5.515   3.460  0.0643  0.6711  1.3247
 7323TIP3   OH243383   0.148   5.403  10.093 -0.1368 -0.4596 -0.2402
 7323TIP3    H143384   0.101   5.486  10.082 -0.7937 -1.0866 -2.2673
 7323TIP3    H243385   0.082   5.336  10.076 -0.0725 -1.4821  3.0952
 7324TIP3   OH243386   4.796   4.797  15.912  0.4177  0.4976  0.0938
 7324TIP3    H143387   4.831   4.824  15.997  1.2371  1.1356 -0.4395
 7324TIP3    H243388   4.708   4.764  15.932  0.7040  0.3906  1.2214
 7325TIP3   OH243389   2.302   5.135  15.684 -0.5244  0.4069  0.1222
 7325TIP3    H143390   2.353   5.213  15.705 -1.3927  0.9718  0.1662
 7325TIP3    H243391   2.346   5.098  15.607 -1.5189  2.3203 -1.4347
 7326TIP3   OH243392   0.038   3.822  14.525 -0.4271  0.0428  0.1133
 7326TIP3    H143393   0.081   3.770  14.593  0.5028  0.3452 -0.2302
 7326TIP3    H243394   0.069   3.911  14.539 -1.8468  0.4850  0.5653
 7327TIP3   OH243395   1.230   4.019  15.059  0.3242 -0.1093  0.7082
 7327TIP3    H143396   1.154   4.015  15.117  0.5216  0.3343  0.9966
 7327TIP3    H243397   1.297   3.967  15.105  1.0663  1.7305  1.7519
 7328TIP3   OH243398   0.301   3.730  15.179 -0.0916 -0.3622 -0.0495
 7328TIP3    H143399   0.388   3.714  15.143  0.6271  1.1898  0.9361
 7328TIP3    H243400   0.272   3.811  15.136 -2.0365 -2.0907 -2.0992
 7329TIP3   OH243401   5.612   0.832   4.227 -0.6110  0.4344  0.0784
 7329TIP3    H143402   5.590   0.870   4.142 -2.8966  1.9124  1.2790
 7329TIP3    H243403   5.607   0.905   4.288  0.0876 -0.7968  1.6432
 7330TIP3   OH243404   3.120   6.528  13.368  0.2663  0.0536  0.8853
 7330TIP3    H143405   3.105   6.494  13.280  0.2060  1.7173  0.2162
 7330TIP3    H243406   3.147   6.619  13.354 -1.7806  0.9717  2.6743
 7331TIP3   OH243407   4.800   4.331  15.233  0.7052 -0.7886  0.3315
 7331TIP3    H143408   4.881   4.378  15.248 -0.0234  0.1260  1.5560
 7331TIP3    H243409   4.805   4.300  15.143  1.9575  0.1351  0.0814
 7332TIP3   OH243410   0.563   0.432   3.773 -0.2131 -0.1876  0.0920
 7332TIP3    H143411   0.615   0.512   3.760  0.4133 -0.7010 -0.6203
 7332TIP3    H243412   0.486   0.461   3.822  0.0805  0.8282 -0.0339
 7333TIP3   OH243413   4.723   1.782  14.037  0.2412  0.4949 -0.1308
 7333TIP3    H143414   4.642   1.807  14.081  0.1798  0.1672 -0.0507
 7333TIP3    H243415   4.787   1.847  14.065  0.4304 -0.2391  1.1734
 7334TIP3   OH243416   5.290   5.985   4.086  0.9703 -0.0652  0.4887
 7334TIP3    H143417   5.222   6.008   4.150  1.9532  0.4310  1.3533
 7334TIP3    H243418   5.352   5.931   4.135  2.0810  0.8751  0.1325
 7335TIP3   OH243419   1.891   6.087  16.162 -0.2503 -0.1193  0.6841
 7335TIP3    H143420   1.861   6.111  16.250  1.3792  0.2253  1.1685
 7335TIP3    H243421   1.874   6.164  16.109  0.1657  0.2289  1.0518
 7336TIP3   OH243422   1.469   4.710   4.939  0.2028  0.2766  0.0177
 7336TIP3    H143423   1.409   4.777   4.969  0.4177  0.8343 -0.7692
 7336TIP3    H243424   1.537   4.706   5.007  0.0520  0.6745  0.1930
 7337TIP3   OH243425   6.593   2.916  10.540 -0.7806 -0.6547  0.2494
 7337TIP3    H143426   6.636   2.845  10.491 -2.4728  0.2362 -2.6683
 7337TIP3    H243427   6.659   2.985  10.546 -0.5125 -0.8137 -0.7397
 7338TIP3   OH243428   1.091   4.910  14.792  1.0423 -0.0215  0.3191
 7338TIP3    H143429   1.100   5.004  14.803  0.5988 -0.0961  1.3461
 7338TIP3    H243430   1.152   4.872  14.856  1.8054 -0.4347 -0.6294
 7339TIP3   OH243431   3.550   5.500   1.692  0.9758  0.1131 -0.0668
 7339TIP3    H143432   3.460   5.466   1.684  0.8590  0.1660  0.9010
 7339TIP3    H243433   3.600   5.424   1.723  1.5294 -0.2673 -1.8564
 7340TIP3   OH243434   4.413   5.354   2.390 -0.1654  0.1702  0.3380
 7340TIP3    H143435   4.502   5.354   2.355 -0.5459 -0.8377 -0.6726
 7340TIP3    H243436   4.358   5.335   2.314 -1.2636  1.1047  0.9014
 7341TIP3   OH243437   3.033   4.826   2.325 -0.1615  0.0021  0.2954
 7341TIP3    H143438   3.001   4.785   2.245 -0.9921 -0.8609  1.0631
 7341TIP3    H243439   2.954   4.841   2.377  0.5415 -0.8943  1.6260
 7342TIP3   OH243440   1.290   3.894  14.487 -0.2226  0.0290  0.3436
 7342TIP3    H143441   1.199   3.892  14.457 -0.6115 -0.1873  1.4917
 7342TIP3    H243442   1.323   3.806  14.470 -0.4311 -0.0802  0.4979
 7343TIP3   OH243443   0.931   6.519   5.533  0.4618 -0.3036  0.3629
 7343TIP3    H143444   0.947   6.427   5.512  0.6473 -0.3440  0.6711
 7343TIP3    H243445   0.838   6.524   5.554  0.2715 -0.2578 -0.4813
 7344TIP3   OH243446   3.211   3.274  15.846 -0.6183  0.1512  0.0929
 7344TIP3    H143447   3.198   3.183  15.820 -1.7768  0.4400 -0.3907
 7344TIP3    H243448   3.284   3.272  15.907  0.1039 -0.9594 -0.7967
 7345TIP3   OH243449   3.169   1.195   2.906 -0.6055  0.3189  0.3963
 7345TIP3    H143450   3.176   1.268   2.968 -0.1732 -0.1929  0.9663
 7345TIP3    H243451   3.247   1.141   2.924 -1.5090 -0.8955  0.8093
 7346TIP3   OH243452   5.878   4.003  13.112 -0.3705 -0.3617 -0.1126
 7346TIP3    H143453   5.922   3.922  13.136 -0.4170 -1.0569 -2.2133
 7346TIP3    H243454   5.821   3.978  13.039  0.4153  1.7597 -1.5027
 7347TIP3   OH243455   2.264   4.610  14.281 -0.2691 -0.9807 -0.3402
 7347TIP3    H143456   2.191   4.665  14.253  0.4743  1.1009  1.5979
 7347TIP3    H243457   2.224   4.526  14.302 -2.0274 -0.0807  0.0567
 7348TIP3   OH243458   3.266   6.267  14.892 -0.4145  0.3361  0.0649
 7348TIP3    H143459   3.359   6.287  14.898 -0.7542  1.6376  1.1551
 7348TIP3    H243460   3.246   6.216  14.971 -0.5674 -0.2240 -0.3264
 7349TIP3   OH243461   0.149   1.081  11.986  0.2218 -0.1515 -0.3486
 7349TIP3    H143462   0.212   1.110  11.920 -0.4463 -0.4843 -1.1437
 7349TIP3    H243463   0.155   1.146  12.056 -0.1498  1.0529 -1.4108
 7350TIP3   OH243464   2.185   0.113   4.893 -0.3180 -0.4082 -0.2281
 7350TIP3    H143465   2.221   0.028   4.918 -1.5995 -0.2846  2.2266
 7350TIP3    H243466   2.253   0.153   4.839  0.1498 -3.1217 -1.7358
 7351TIP3   OH243467   1.409   4.688   4.679 -0.4111  0.0857  0.0114
 7351TIP3    H143468   1.438   4.684   4.770  0.4005  0.4622 -0.2238
 7351TIP3    H243469   1.318   4.717   4.683 -0.3795  0.0929  0.7002
 7352TIP3   OH243470   3.945   3.149  13.098  0.1525 -0.4230  0.5267
 7352TIP3    H143471   3.929   3.082  13.164  3.9014 -1.1872  0.7859
 7352TIP3    H243472   4.034   3.131  13.066 -0.8557  1.0001 -3.4640
 7353TIP3   OH243473   1.797   2.298   6.249  0.3301 -0.1598  0.0095
 7353TIP3    H143474   1.876   2.327   6.204  0.6818 -0.9128  0.1331
 7353TIP3    H243475   1.795   2.204   6.237  0.0937 -0.2967  1.0417
 7354TIP3   OH243476   2.976   0.986   3.821 -0.2987 -0.4563  0.2382
 7354TIP3    H143477   3.049   1.041   3.847 -0.5672  0.5349 -1.0458
 7354TIP3    H243478   2.964   0.925   3.894  0.2531  0.9188  1.4876
 7355TIP3   OH243479   2.590   0.662  16.532 -0.0150  0.0369  0.0684
 7355TIP3    H143480   2.683   0.676  16.514  0.0530  1.8987  1.6807
 7355TIP3    H243481   2.552   0.639  16.447  1.5757  1.2034 -0.9788
 7356TIP3   OH243482   1.717   2.335   0.426 -0.1918 -1.1877  0.2298
 7356TIP3    H143483   1.669   2.291   0.356  1.0586 -0.9328 -0.7934
 7356TIP3    H243484   1.740   2.265   0.487 -0.2280 -1.5946 -0.2229
 7357TIP3   OH243485   3.775   4.170  10.862 -0.4345 -0.2247 -0.2315
 7357TIP3    H143486   3.759   4.257  10.825  1.6315  0.6368  0.8686
 7357TIP3    H243487   3.736   4.174  10.949  0.6805 -0.0307  0.2540
 7358TIP3   OH243488   4.892   4.865   1.265 -0.1444  0.8402  0.2529
 7358TIP3    H143489   4.834   4.941   1.263 -2.8258 -1.0982  1.0064
 7358TIP3    H243490   4.857   4.811   1.336  1.2841 -1.4132 -0.7193
 7359TIP3   OH243491   4.976   0.923  15.365 -0.3138  0.2737  0.3140
 7359TIP3    H143492   5.055   0.978  15.368  0.8675 -1.4599  1.8155
 7359TIP3    H243493   4.993   0.861  15.294 -0.2769 -0.1669  0.7085
 7360TIP3   OH243494   4.589   1.832   3.573 -0.5790  0.1976  0.4568
 7360TIP3    H143495   4.506   1.854   3.615 -1.9053 -3.1654 -0.2426
 7360TIP3    H243496   4.611   1.746   3.607  0.6314 -0.6223 -2.2779
 7361TIP3   OH243497   1.770   0.168  13.008  0.6584 -0.7257  0.2572
 7361TIP3    H143498   1.713   0.151  12.933 -0.1026  1.0759  0.4017
 7361TIP3    H243499   1.830   0.236  12.977  2.3694 -2.1949  0.2945
 7362TIP3   OH243500   1.842   6.252  12.480  0.4015 -0.1500  0.6405
 7362TIP3    H143501   1.838   6.251  12.575 -0.0736  1.8608  0.6601
 7362TIP3    H243502   1.754   6.230  12.452  0.3527  0.0254  0.6604
 7363TIP3   OH243503   0.939   2.059   3.536 -0.1076  0.4492  0.3597
 7363TIP3    H143504   1.006   2.078   3.601 -0.7901  0.3919  1.0937
 7363TIP3    H243505   0.877   2.132   3.543  0.1261  0.7423 -0.6413
 7364TIP3   OH243506   1.672   3.104   1.673  0.0614 -0.5429 -0.4322
 7364TIP3    H143507   1.765   3.093   1.651  0.2823  2.0264 -0.9450
 7364TIP3    H243508   1.655   3.039   1.740  2.4569 -0.5007  0.2527
 7365TIP3   OH243509   6.232   6.611  12.017  0.4294  0.1187 -0.3097
 7365TIP3    H143510   6.265   6.694  11.983 -0.6154  0.3550 -0.7749
 7365TIP3    H243511   6.245   6.616  12.112 -1.6358  1.7400 -0.0779
 7366TIP3   OH243512   5.592   4.820   1.888 -0.1210 -0.1822  0.5481
 7366TIP3    H143513   5.641   4.740   1.905  0.2279 -0.1751 -0.3783
 7366TIP3    H243514   5.500   4.797   1.901 -0.0808 -0.9253 -0.3959
 7367TIP3   OH243515   2.135   4.978  14.079  0.0054 -0.0562 -0.1742
 7367TIP3    H143516   2.144   5.048  14.014 -1.5422  0.2106 -0.1131
 7367TIP3    H243517   2.043   4.953  14.075 -0.1958  0.2143  2.1682
 7368TIP3   OH243518   6.405   0.825   2.764 -0.4175  0.1051  0.1715
 7368TIP3    H143519   6.412   0.872   2.681  1.3422 -0.3395  0.0451
 7368TIP3    H243520   6.389   0.894   2.829 -1.0959  0.5285 -0.4476
 7369TIP3   OH243521   5.237   4.366   3.288 -0.2063 -0.2869  0.1259
 7369TIP3    H143522   5.238   4.383   3.382  0.5168  0.0631  0.0540
 7369TIP3    H243523   5.179   4.290   3.278 -0.7794  0.0644  0.7849
 7370TIP3   OH243524   4.790   5.991   1.058  0.4754 -0.2478  0.1886
 7370TIP3    H143525   4.788   5.978   0.963  1.8561 -1.0565  0.2573
 7370TIP3    H243526   4.698   6.002   1.083  0.1761  0.9098 -1.3559
 7371TIP3   OH243527   5.001   2.553  13.000 -0.0144  0.0639 -0.4183
 7371TIP3    H143528   5.039   2.542  12.913  1.0635 -1.7786  0.2698
 7371TIP3    H243529   4.907   2.539  12.986  0.1014  0.1356 -1.3350
 7372TIP3   OH243530   5.012   2.837   1.781  0.5401  0.5269  0.8525
 7372TIP3    H143531   5.106   2.844   1.795  0.4826  2.4877  0.3796
 7372TIP3    H243532   5.002   2.820   1.688  0.5105 -2.6984  1.3758
 7373TIP3   OH243533   0.650   4.393  11.639 -0.3648  0.2466  0.0531
 7373TIP3    H143534   0.672   4.313  11.591 -1.5236  1.4143 -2.5501
 7373TIP3    H243535   0.631   4.363  11.728  2.2280 -1.9534 -0.0463
 7374TIP3   OH243536   2.674   6.146  15.718 -0.1293 -0.0614 -0.3805
 7374TIP3    H143537   2.605   6.110  15.662 -0.0530 -0.0335 -0.4938
 7374TIP3    H243538   2.727   6.200  15.658  1.2522 -1.7950 -0.7410
 7375TIP3   OH243539   6.162   1.730  14.139 -0.7870 -0.3195 -0.1872
 7375TIP3    H143540   6.088   1.697  14.191  0.3989 -1.9556  0.5019
 7375TIP3    H243541   6.239   1.710  14.192  0.2714 -0.1102 -1.6334
 7376TIP3   OH243542   3.904   1.613   3.394  0.0897 -0.4163  0.1376
 7376TIP3    H143543   3.992   1.579   3.412 -0.2694 -1.4094  0.0482
 7376TIP3    H243544   3.847   1.564   3.454 -0.2738  0.9976  0.9715
 7377TIP3   OH243545   4.148   0.919   0.163 -0.2732  0.1276 -0.1374
 7377TIP3    H143546   4.055   0.939   0.171  0.0049  1.2214  0.4858
 7377TIP3    H243547   4.178   0.972   0.089  0.2790  1.3870  0.9624
 7378TIP3   OH243548   3.100   6.195  16.597  0.1485  0.4981 -0.0362
 7378TIP3    H143549   3.182   6.220  16.638 -0.3249  2.0812 -0.0245
 7378TIP3    H243550   3.088   6.258  16.526 -0.6195 -0.2528 -0.5826
 7379TIP3   OH243551   5.743   5.802  11.635 -0.2529 -0.6669  0.1521
 7379TIP3    H143552   5.669   5.743  11.621 -1.4521  0.8768 -0.2466
 7379TIP3    H243553   5.743   5.858  11.557 -0.1459  0.8904  1.2507
 7380TIP3   OH243554   4.200   0.063  13.949  0.0992 -0.0342 -0.1801
 7380TIP3    H143555   4.194   0.149  13.909  1.3498 -0.4716 -1.3198
 7380TIP3    H243556   4.192   0.002  13.877 -0.1364 -0.8766  0.5465
 7381TIP3   OH243557   2.256   5.968   0.707  0.2158  0.0674  0.3300
 7381TIP3    H143558   2.237   5.874   0.708 -0.1412  0.1403  1.7398
 7381TIP3    H243559   2.231   5.997   0.620 -1.1408 -0.8547  0.4072
 7382TIP3   OH243560   0.333   0.122  11.260  0.4927 -0.4831  0.5130
 7382TIP3    H143561   0.327   0.149  11.169  0.2418 -1.2742  0.2830
 7382TIP3    H243562   0.295   0.194  11.310  0.0636 -0.3143 -0.0553
 7383TIP3   OH243563   3.929   2.465  15.824 -0.6685  0.0830 -0.2649
 7383TIP3    H143564   3.909   2.419  15.742 -0.7512  0.3075 -0.3704
 7383TIP3    H243565   3.849   2.456  15.876 -0.1349 -1.2692  0.3556
 7384TIP3   OH243566   6.665   3.972  13.235  0.5783  0.1438 -0.1658
 7384TIP3    H143567   6.662   3.999  13.144  1.0580  0.9900  0.0685
 7384TIP3    H243568   6.759   3.966  13.255  0.4740  0.4160  0.4066
 7385TIP3   OH243569   2.584   3.448  14.458  0.5031  0.1783 -0.5230
 7385TIP3    H143570   2.552   3.477  14.374  0.2769 -0.1678 -0.5595
 7385TIP3    H243571   2.539   3.365  14.474 -1.6297  1.6284  1.2610
 7386TIP3   OH243572   3.452   3.484   0.207 -0.3489 -0.3990  0.0300
 7386TIP3    H143573   3.457   3.571   0.168 -0.0321 -1.0506 -1.4155
 7386TIP3    H243574   3.494   3.426   0.143 -1.6667 -1.8102  0.4016
 7387TIP3   OH243575   4.280   5.070  12.425 -0.1639  0.0418 -0.2753
 7387TIP3    H143576   4.284   5.164  12.444 -1.1653  0.0835 -0.2503
 7387TIP3    H243577   4.246   5.031  12.505  0.2940 -0.3534 -0.2702
 7388TIP3   OH243578   0.868   1.106   4.581  0.3535 -0.3164 -0.3040
 7388TIP3    H143579   0.933   1.135   4.644  1.3556  1.0547 -1.9234
 7388TIP3    H243580   0.909   1.033   4.535  0.7571  0.5300 -1.3070
 7389TIP3   OH243581   1.603   1.205   0.120 -0.1806 -0.4747 -0.2249
 7389TIP3    H143582   1.582   1.274   0.184 -0.6906  0.0037 -0.9039
 7389TIP3    H243583   1.592   1.123   0.169  0.3460 -0.0876  0.5644
 7390TIP3   OH243584   2.683   0.883  13.007 -0.3256 -0.5041 -0.3523
 7390TIP3    H143585   2.627   0.956  13.034 -0.4687 -0.5152 -0.6149
 7390TIP3    H243586   2.655   0.864  12.917  1.4454  0.7871 -1.2135
 7391TIP3   OH243587   4.092   3.612   6.826 -0.8549 -0.2725 -0.1159
 7391TIP3    H143588   4.070   3.649   6.911 -1.7326  1.3472 -1.0320
 7391TIP3    H243589   4.019   3.554   6.805 -0.4048 -1.0493  0.4475
 7392TIP3   OH243590   2.357   6.571   1.541  0.0585 -0.3950  0.0032
 7392TIP3    H143591   2.264   6.551   1.532  0.8051 -3.2088 -2.3446
 7392TIP3    H243592   2.379   6.619   1.461  0.4355  1.1548  1.0179
 7393TIP3   OH243593   1.611   4.170   4.280 -0.2169  0.6852  0.5876
 7393TIP3    H143594   1.613   4.144   4.188 -0.5457  0.9054  0.5165
 7393TIP3    H243595   1.570   4.095   4.325 -0.2693  0.6733  0.5206
 7394TIP3   OH243596   0.197   0.283   0.678  0.1194 -0.4109 -0.3298
 7394TIP3    H143597   0.132   0.212   0.670  0.1996 -0.4222 -0.8904
 7394TIP3    H243598   0.268   0.257   0.620  0.5672 -0.3247  0.1774
 7395TIP3   OH243599   5.900   1.348  16.011  0.4863  0.4549 -0.3260
 7395TIP3    H143600   5.980   1.296  16.000  0.1786 -0.6417  2.1849
 7395TIP3    H243601   5.932   1.436  16.030  1.1325 -0.0132  0.8400
 7396TIP3   OH243602   0.842   4.915  14.893 -0.2815 -0.6133  0.0498
 7396TIP3    H143603   0.825   4.871  14.977  0.4429  0.3994  0.7410
 7396TIP3    H243604   0.924   4.877  14.862 -1.5162 -2.3385 -1.1284
 7397TIP3   OH243605   1.679   3.347  16.001 -0.6200  0.3398 -0.3820
 7397TIP3    H143606   1.696   3.264  16.045 -1.1962  1.4957  2.1015
 7397TIP3    H243607   1.714   3.335  15.913  0.1858 -2.1820  0.2436
 7398TIP3   OH243608   2.353   5.314   4.326 -0.1980 -0.3164 -0.6347
 7398TIP3    H143609   2.422   5.270   4.375  1.0846  2.2486 -0.0989
 7398TIP3    H243610   2.384   5.315   4.236 -0.1284 -0.3127 -0.6103
 7399TIP3   OH243611   1.784   4.162   4.726  0.1407 -0.1498  0.1851
 7399TIP3    H143612   1.851   4.163   4.657 -0.3768  0.8994 -0.3108
 7399TIP3    H243613   1.726   4.090   4.703  1.7149 -1.7724  1.2165
 7400TIP3   OH243614   1.210   6.237  11.178  0.1279 -0.1834  0.0981
 7400TIP3    H143615   1.296   6.237  11.135  1.0802  1.2386  1.9478
 7400TIP3    H243616   1.230   6.247  11.271 -2.0322 -0.6093  0.6325
 7401TIP3   OH243617   4.647   4.950  10.844 -0.5595 -0.0843  0.0425
 7401TIP3    H143618   4.574   5.005  10.872 -0.8921  0.3622 -1.6190
 7401TIP3    H243619   4.713   5.011  10.813 -0.3167 -0.5635 -0.3974
 7402TIP3   OH243620   3.240   0.521   0.218 -0.0742 -0.0276  0.3472
 7402TIP3    H143621   3.204   0.439   0.183 -0.3912 -0.0681  0.7602
 7402TIP3    H243622   3.186   0.540   0.294  0.6363  0.0414  0.8383
 7403TIP3   OH243623   3.397   0.054  12.230 -0.1489  0.1866  0.1381
 7403TIP3    H143624   3.451   0.076  12.153  3.1755  1.8553  2.8210
 7403TIP3    H243625   3.420  -0.037  12.250 -0.6180 -0.0739 -0.4556
 7404TIP3   OH243626   1.709   3.056   2.089  0.5110 -0.1044  0.0711
 7404TIP3    H143627   1.629   3.091   2.050  1.3128  0.7873 -0.8144
 7404TIP3    H243628   1.716   3.098   2.174  2.4130  3.3909 -1.7019
 7405TIP3   OH243629   4.133   3.843   0.730  0.3120  0.1413  0.0567
 7405TIP3    H143630   4.118   3.933   0.701  0.2466 -0.3127 -1.3948
 7405TIP3    H243631   4.199   3.810   0.669  0.3401 -0.7852  0.5899
 7406TIP3   OH243632   5.348   4.695  14.812  0.2710 -0.3093 -1.0555
 7406TIP3    H143633   5.380   4.697  14.722 -0.8364  0.0796 -1.4467
 7406TIP3    H243634   5.254   4.706  14.804  0.3360  1.4726  0.2551
 7407TIP3   OH243635   4.842   1.334   5.394 -0.1173 -0.0893  0.2091
 7407TIP3    H143636   4.759   1.382   5.387 -1.0693 -2.0847 -3.5998
 7407TIP3    H243637   4.908   1.396   5.364 -1.1338 -0.4538 -3.0508
 7408TIP3   OH243638   4.744   3.849  15.860 -0.6434  0.3066  0.3223
 7408TIP3    H143639   4.771   3.839  15.951 -0.4098 -1.9049  0.0266
 7408TIP3    H243640   4.728   3.943  15.851  0.5943  0.7509  2.2756
 7409TIP3   OH243641   5.701   6.207   5.003  0.9764  0.4737 -0.3895
 7409TIP3    H143642   5.743   6.275   5.056  0.7919  1.3146 -1.2927
 7409TIP3    H243643   5.773   6.159   4.964  1.1104  0.6782 -0.3960
 7410TIP3   OH243644   6.451   4.797  13.224  0.0783 -0.0437 -0.3048
 7410TIP3    H143645   6.403   4.827  13.147 -1.0335  0.4073  0.5391
 7410TIP3    H243646   6.464   4.703  13.210  0.4452  0.1585 -1.3253
 7411TIP3   OH243647   3.897   2.108   5.587  0.1126  0.3461 -0.1709
 7411TIP3    H143648   3.969   2.152   5.541 -0.0755  1.0732  0.2179
 7411TIP3    H243649   3.911   2.015   5.570  1.5687  0.4223  0.5355
 7412TIP3   OH243650   0.879   5.921   0.943  0.2913  0.0333  0.4280
 7412TIP3    H143651   0.895   5.995   0.883 -0.4854 -0.2049 -0.0858
 7412TIP3    H243652   0.786   5.928   0.964  0.4465 -0.2083  1.1891
 7413TIP3   OH243653   1.591   2.349   3.534  0.5192  0.1986  0.1650
 7413TIP3    H143654   1.596   2.441   3.561 -1.3387  0.4581 -0.2961
 7413TIP3    H243655   1.682   2.323   3.519  0.9222  2.5873 -1.7934
 7414TIP3   OH243656   2.855   2.550  15.170  0.4146 -0.1095 -0.3121
 7414TIP3    H143657   2.822   2.628  15.216 -0.5464  0.1592 -1.4308
 7414TIP3    H243658   2.857   2.576  15.078  0.8063 -1.1654 -0.5976
 7415TIP3   OH243659   6.380   2.393   3.788  0.3340  0.5590  0.1055
 7415TIP3    H143660   6.406   2.300   3.789  1.6614  0.9102  0.3984
 7415TIP3    H243661   6.458   2.438   3.756 -0.1415  1.6199  0.4416
 7416TIP3   OH243662   6.052   3.755  15.831 -0.4481  0.2937 -0.4855
 7416TIP3    H143663   6.117   3.701  15.786 -0.8298 -0.5086 -0.0938
 7416TIP3    H243664   6.103   3.811  15.889 -0.0479  0.3111 -0.8468
 7417TIP3   OH243665   3.142   0.632  11.742  0.0957  0.2731 -0.1857
 7417TIP3    H143666   3.212   0.566  11.739 -0.1101  0.1014 -1.7522
 7417TIP3    H243667   3.153   0.682  11.661 -2.5285 -0.7650 -1.2581
 7418TIP3   OH243668   5.645   4.278   5.035 -0.0290  0.1530  0.4387
 7418TIP3    H143669   5.649   4.371   5.060 -1.3903  0.1285  0.8134
 7418TIP3    H243670   5.551   4.258   5.034  0.2915 -1.4711  1.3020
 7419TIP3   OH243671   0.834   2.667   4.244  0.0043 -0.2666 -0.2499
 7419TIP3    H143672   0.860   2.758   4.258 -0.3776 -0.4052  1.4237
 7419TIP3    H243673   0.865   2.646   4.156  1.0831  1.1348 -0.2095
 7420TIP3   OH243674   3.390   2.638  16.930 -0.5747  0.6199  0.0961
 7420TIP3    H143675   3.388   2.722  16.976  1.7176  1.0397 -0.4871
 7420TIP3    H243676   3.455   2.651  16.861  0.0471 -1.7430  0.2148
 7421TIP3   OH243677   1.381   0.830  12.079 -0.4883 -0.1908  0.4861
 7421TIP3    H143678   1.465   0.845  12.035  1.2022 -0.5290  3.4946
 7421TIP3    H243679   1.316   0.869  12.020  1.6889 -0.5465 -2.2277
 7422TIP3   OH243680   0.991   2.969   1.408 -0.3984 -0.8585 -0.2748
 7422TIP3    H143681   1.027   3.055   1.388 -0.9042 -0.3241  1.0654
 7422TIP3    H243682   0.922   2.956   1.342  0.3032 -0.6433 -1.0528
 7423TIP3   OH243683   2.003   1.922  12.403  0.0367  0.4148  0.3537
 7423TIP3    H143684   2.008   1.845  12.345  2.4152  0.2569  0.7160
 7423TIP3    H243685   1.966   1.991  12.348 -0.4651 -0.5179 -0.5007
 7424TIP3   OH243686   1.344   2.974   4.606  0.7609 -0.1130  0.0372
 7424TIP3    H143687   1.314   2.905   4.664  0.2488 -0.5801 -0.7818
 7424TIP3    H243688   1.423   3.008   4.648 -0.4720  0.6341  1.8373
 7425TIP3   OH243689   3.220   0.058   2.621 -0.5938 -0.1088  0.4867
 7425TIP3    H143690   3.202  -0.034   2.600 -2.4828  0.5344 -0.8607
 7425TIP3    H243691   3.299   0.055   2.674 -1.6773 -2.6767  2.0759
 7426TIP3   OH243692   3.511   6.343  11.216 -0.0575  0.1882  0.0560
 7426TIP3    H143693   3.518   6.247  11.213 -1.6960  0.0613 -0.3707
 7426TIP3    H243694   3.564   6.368  11.291  1.6556 -0.9186 -0.7612
 7427TIP3   OH243695   3.818   6.675  14.243  0.2452  0.1034  0.3986
 7427TIP3    H143696   3.913   6.681  14.233  0.2986  1.1364  1.4876
 7427TIP3    H243697   3.783   6.694  14.156  1.0550 -1.1648 -0.2178
 7428TIP3   OH243698   1.043   6.649  14.563 -0.4488  0.1697  0.6850
 7428TIP3    H143699   0.965   6.594  14.561 -0.8634  0.7342  1.2262
 7428TIP3    H243700   1.010   6.738  14.554 -0.0338  0.5578  2.7455
 7429TIP3   OH243701   4.058   2.543  12.354  0.0436 -0.1131 -0.4894
 7429TIP3    H143702   4.015   2.460  12.330 -0.2329 -0.2549  0.4851
 7429TIP3    H243703   4.057   2.543  12.450  0.3238  0.8777 -0.4896
 7430TIP3   OH243704   3.077   0.145   1.703  0.2473 -0.0253  0.3869
 7430TIP3    H143705   3.027   0.156   1.622 -0.6478  1.0025  1.0644
 7430TIP3    H243706   3.157   0.196   1.689  2.0595 -3.1403 -1.4215
 7431TIP3   OH243707   6.747   6.562  15.877 -0.7524  0.6130  0.5662
 7431TIP3    H143708   6.699   6.559  15.794  0.8210  0.6583 -0.3636
 7431TIP3    H243709   6.787   6.649  15.878  0.5745  0.0074  0.6059
 7432TIP3   OH243710   5.237   5.037  16.602  0.1598 -0.5330 -0.0414
 7432TIP3    H143711   5.187   4.957  16.618  0.2374 -0.4595  0.5944
 7432TIP3    H243712   5.210   5.066  16.515 -1.8578  0.1933  0.8012
 7433TIP3   OH243713   2.742   2.070  13.888  0.4299  0.1148  0.0460
 7433TIP3    H143714   2.675   2.123  13.933  0.0967 -1.3776  1.3396
 7433TIP3    H243715   2.696   2.033  13.813  0.5032  1.1571 -0.5273
 7434TIP3   OH243716   3.677   5.540  16.316 -0.2529 -0.6230  0.1448
 7434TIP3    H143717   3.734   5.592  16.374  0.2114 -0.7939 -0.1515
 7434TIP3    H243718   3.623   5.488  16.376  0.3175 -0.8941  0.4266
 7435TIP3   OH243719   3.820   0.446  15.995  0.3500  0.1279  0.1513
 7435TIP3    H143720   3.840   0.376  16.057  0.2827 -1.3450 -1.4447
 7435TIP3    H243721   3.724   0.448  15.991  0.3582 -0.2435 -0.3832
 7436TIP3   OH243722   2.186   2.846  16.873 -0.0152  0.3809  0.7606
 7436TIP3    H143723   2.206   2.771  16.929 -0.1838  0.6215  1.1485
 7436TIP3    H243724   2.270   2.890  16.861 -0.2117  1.1290  2.0046
 7437TIP3   OH243725   4.903   2.014   4.622  0.1927  0.4468  0.0289
 7437TIP3    H143726   4.979   1.988   4.674 -0.5268 -0.0737  0.8314
 7437TIP3    H243727   4.925   2.101   4.588  1.5780 -0.1286 -0.5973
 7438TIP3   OH243728   4.977   1.236  11.224  0.9592 -1.1003  0.0209
 7438TIP3    H143729   4.886   1.259  11.205  1.0399  0.4401  1.3602
 7438TIP3    H243730   5.027   1.273  11.152  0.6536 -0.7241  0.0007
 7439TIP3   OH243731   5.672   5.189  13.248  0.1422 -0.3752 -0.4552
 7439TIP3    H143732   5.730   5.142  13.187 -0.7914 -0.2454 -1.4681
 7439TIP3    H243733   5.588   5.143  13.241  0.0197 -0.3214  0.7062
 7440TIP3   OH243734   2.565   2.945  17.112 -0.2190 -0.0915 -0.8362
 7440TIP3    H143735   2.626   2.902  17.171  0.1325  0.4880 -0.7697
 7440TIP3    H243736   2.483   2.898  17.124 -0.3171  0.4239  0.5903
 7441TIP3   OH243737   2.143   4.640  15.565  0.0219  0.2080 -0.2386
 7441TIP3    H143738   2.055   4.667  15.592 -0.3657 -1.2875  0.0356
 7441TIP3    H243739   2.170   4.707  15.501 -1.8262 -0.0044 -1.2821
 7442TIP3   OH243740   5.517   2.158   6.203  0.2498 -0.3192  0.0104
 7442TIP3    H143741   5.507   2.202   6.287  2.4788 -1.4242  0.9213
 7442TIP3    H243742   5.583   2.209   6.156 -1.4456  0.6661 -1.3726
 7443TIP3   OH243743   4.811   4.495  12.538 -0.4043  0.5679 -0.2025
 7443TIP3    H143744   4.790   4.402  12.529  0.5592  0.2780  0.3838
 7443TIP3    H243745   4.906   4.499  12.523 -0.6139  1.6050 -1.2580
 7444TIP3   OH243746   0.744   5.764   0.216  0.8242  0.6887 -0.4329
 7444TIP3    H143747   0.661   5.806   0.241 -0.2052 -0.4013 -1.9339
 7444TIP3    H243748   0.748   5.686   0.270  0.8521  0.7163 -0.3946
 7445TIP3   OH243749   6.210   5.535   2.602  0.4294  0.0170 -0.0868
 7445TIP3    H143750   6.224   5.559   2.693  2.2572  1.6963 -0.7522
 7445TIP3    H243751   6.126   5.489   2.601  0.3496  0.0607  2.4096
 7446TIP3   OH243752   1.091   3.851   4.251 -0.0123 -0.2250  0.5133
 7446TIP3    H143753   1.107   3.797   4.329  1.0649 -2.7956 -1.3962
 7446TIP3    H243754   1.179   3.875   4.220 -0.4481  1.2250  0.3704
 7447TIP3   OH243755   3.041   2.959   0.401  0.4019 -0.6267  0.4504
 7447TIP3    H143756   3.104   2.949   0.330 -1.7031 -0.7454 -1.4646
 7447TIP3    H243757   3.051   2.880   0.454  2.7805 -0.0056  0.9870
 7448TIP3   OH243758   0.299   6.383  15.709  0.0263 -0.3545  0.6090
 7448TIP3    H143759   0.257   6.469  15.712  1.6046  0.4817 -0.8198
 7448TIP3    H243760   0.231   6.323  15.738 -1.4832  1.2184  0.4232
 7449TIP3   OH243761   1.261   6.086  11.805 -0.5419 -0.6022  0.2683
 7449TIP3    H143762   1.199   6.145  11.762  1.5266  1.8325  0.5299
 7449TIP3    H243763   1.225   6.074  11.893 -0.8609  0.4645  0.2943
 7450TIP3   OH243764   4.919   1.871   3.784 -0.9987 -0.2915  0.0911
 7450TIP3    H143765   4.825   1.886   3.774 -0.6436  2.2408  0.0511
 7450TIP3    H243766   4.947   1.836   3.700 -1.6208  0.6997 -0.5419
 7451TIP3   OH243767   2.840   2.012  16.897  0.7804  0.4173  0.3004
 7451TIP3    H143768   2.933   2.028  16.915  0.7852  0.3795  0.3097
 7451TIP3    H243769   2.834   2.013  16.801  0.8173  0.2639  0.2987
 7452TIP3   OH243770   5.922   2.697   1.427  0.3706 -0.1621 -0.1209
 7452TIP3    H143771   5.967   2.753   1.489 -0.1242  0.2198 -0.1008
 7452TIP3    H243772   5.830   2.723   1.433  0.2946 -0.2215 -0.9003
 7453TIP3   OH243773   3.928   6.611   3.368  0.9132 -0.7092 -0.0512
 7453TIP3    H143774   3.908   6.627   3.276  0.4342 -0.5132  0.0837
 7453TIP3    H243775   3.860   6.658   3.416  0.8950 -1.1786  0.3938
 7454TIP3   OH243776   0.920   0.821   3.764  0.0172 -0.1625 -0.2273
 7454TIP3    H143777   0.890   0.891   3.822  0.2337 -1.3463  1.3278
 7454TIP3    H243778   0.840   0.775   3.738 -0.1249  0.6448 -1.2466
 7455TIP3   OH243779   4.109   5.003  12.165  0.3324 -0.0275 -0.3112
 7455TIP3    H143780   4.162   5.041  12.235 -0.3787  0.4777 -0.0393
 7455TIP3    H243781   4.126   5.057  12.088  0.7207 -0.2689 -0.3942
 7456TIP3   OH243782   4.385   0.251   3.169  0.2647 -0.4592 -0.2065
 7456TIP3    H143783   4.345   0.290   3.247  0.5276  1.5455 -1.0521
 7456TIP3    H243784   4.324   0.271   3.098  1.6715  0.7244 -1.1129
 7457TIP3   OH243785   2.856   5.087  14.715  0.3954 -0.4139  0.4811
 7457TIP3    H143786   2.843   5.023  14.645  0.5170  0.8405 -0.7136
 7457TIP3    H243787   2.777   5.141  14.713  0.9014  0.3300  0.5607
 7458TIP3   OH243788   0.845   0.332   5.801 -0.7006 -0.2953 -0.8752
 7458TIP3    H143789   0.770   0.357   5.747  0.8628  2.6776 -1.8136
 7458TIP3    H243790   0.873   0.248   5.766 -2.9494 -0.9579 -1.1663
 7459TIP3   OH243791   6.148   3.395  14.319 -0.2418 -0.5382  0.3819
 7459TIP3    H143792   6.119   3.365  14.233 -0.8759 -0.7019  0.6470
 7459TIP3    H243793   6.179   3.485  14.305  0.8488 -1.0017 -0.2515
 7460TIP3   OH243794   1.181   0.533   3.091  0.0242  0.1101 -0.1617
 7460TIP3    H143795   1.229   0.547   3.172  0.3898  0.7785 -0.4965
 7460TIP3    H243796   1.248   0.516   3.025 -0.2529 -0.0701 -0.3999
 7461TIP3   OH243797   2.452   3.576   1.948  0.0315 -0.7625  0.1075
 7461TIP3    H143798   2.460   3.658   1.997  0.1339 -0.7475  0.0649
 7461TIP3    H243799   2.538   3.535   1.957  0.6644  0.1272 -1.6505
 7462TIP3   OH243800   6.352   2.542  14.742  0.0641 -0.1240  0.2366
 7462TIP3    H143801   6.301   2.478  14.791 -2.5147  3.0764  1.9290
 7462TIP3    H243802   6.407   2.584  14.807  1.2887 -0.1689 -0.7537
 7463TIP3   OH243803   5.021   0.555  12.634 -0.2246  0.2540  0.0339
 7463TIP3    H143804   5.082   0.621  12.601  0.6035 -1.0655 -1.1699
 7463TIP3    H243805   5.057   0.529  12.719  0.5308 -0.0193 -0.3609
 7464TIP3   OH243806   1.965   1.526  14.113  0.2938 -0.3394 -0.1632
 7464TIP3    H143807   1.888   1.486  14.072  1.8482 -1.4815 -2.0473
 7464TIP3    H243808   2.020   1.553  14.039  1.3275  1.2375  1.1518
 7465TIP3   OH243809   2.642   3.493  16.002 -0.3678  0.1949 -0.9306
 7465TIP3    H143810   2.634   3.588  15.993  2.1311  0.3680 -1.7873
 7465TIP3    H243811   2.698   3.466  15.929  0.4657 -1.6813  0.3461
 7466TIP3   OH243812   6.264   3.019   3.544 -0.0314  0.1611  0.4619
 7466TIP3    H143813   6.177   3.056   3.553 -0.7289 -1.6846  1.5633
 7466TIP3    H243814   6.304   3.029   3.630  0.5950  0.3748  0.1534
 7467TIP3   OH243815   1.467   2.669  10.778  0.0444 -0.1054 -0.1367
 7467TIP3    H143816   1.561   2.661  10.791 -0.2815  0.5039  2.8495
 7467TIP3    H243817   1.434   2.579  10.780  0.4382 -0.2535 -0.3347
 7468TIP3   OH243818   5.378   0.609  10.539  0.0584 -0.2001  0.0389
 7468TIP3    H143819   5.321   0.540  10.573  0.7550 -0.2273  1.1878
 7468TIP3    H243820   5.433   0.565  10.474 -1.4489 -0.1007 -1.3270
 7469TIP3   OH243821   0.318   3.654  14.562  0.3526 -0.1766 -0.0360
 7469TIP3    H143822   0.355   3.727  14.612 -1.8929 -0.0035  1.4878
 7469TIP3    H243823   0.391   3.593  14.552  1.1209  0.1583  2.8231
 7470TIP3   OH243824   1.080   6.748  17.185 -0.9346 -0.3904  0.3685
 7470TIP3    H143825   1.167   6.787  17.188 -0.5702 -1.1991  0.5800
 7470TIP3    H243826   1.031   6.790  17.255 -1.8133  2.5948 -1.9167
 7471TIP3   OH243827   0.595   0.312  13.458 -0.0983 -0.6032  0.6026
 7471TIP3    H143828   0.513   0.361  13.465 -0.0250 -0.3248 -0.2998
 7471TIP3    H243829   0.594   0.251  13.531 -0.8863 -0.2703  0.8732
 7472TIP3   OH243830   0.691   2.895   3.974 -0.4533 -0.1240  0.2995
 7472TIP3    H143831   0.661   2.974   4.018 -0.2818  0.8164 -1.2306
 7472TIP3    H243832   0.778   2.879   4.010  0.7452  2.0967 -1.4912
 7473TIP3   OH243833   3.117   0.728   1.456 -0.3175  0.1600  0.1889
 7473TIP3    H143834   3.194   0.675   1.481 -0.7196 -1.1567 -1.3030
 7473TIP3    H243835   3.154   0.801   1.407 -0.1749 -1.8347 -2.7645
 7474TIP3   OH243836   1.740   3.422   2.268 -0.4333  0.0608  0.3445
 7474TIP3    H143837   1.771   3.336   2.294  0.8360  0.5886  0.6005
 7474TIP3    H243838   1.662   3.405   2.215 -0.8239 -1.1875  1.3159
 7475TIP3   OH243839   0.892   2.950  13.701  0.4151  0.4729 -0.9825
 7475TIP3    H143840   0.975   2.915  13.735 -0.9551 -0.8919  1.1256
 7475TIP3    H243841   0.894   3.043  13.725  0.7529  0.1472  0.3109
 7476TIP3   OH243842   4.470   0.773   2.501  0.1747  0.0137 -0.3688
 7476TIP3    H143843   4.405   0.843   2.503 -0.1637 -0.3244  0.8717
 7476TIP3    H243844   4.464   0.737   2.412 -0.3515  0.8913 -0.6938
 7477TIP3   OH243845   0.619   4.809  14.223 -0.0200 -0.1977  0.1250
 7477TIP3    H143846   0.614   4.746  14.152  0.1226  1.2984 -1.2448
 7477TIP3    H243847   0.678   4.769  14.287 -2.8197 -3.0591  0.9951
 7478TIP3   OH243848   6.392   1.830  15.185  0.0752 -0.0282 -0.3114
 7478TIP3    H143849   6.379   1.838  15.280  0.4930  0.1054 -0.2666
 7478TIP3    H243850   6.361   1.914  15.150  0.3508  0.1001 -0.2490
 7479TIP3   OH243851   4.243   3.270   2.465 -0.3594 -0.4534  0.3644
 7479TIP3    H143852   4.194   3.352   2.465 -0.5039 -0.5187 -1.8296
 7479TIP3    H243853   4.264   3.254   2.557  1.4348  3.0970  0.6312
 7480TIP3   OH243854   6.320   4.194   2.867 -0.0399  0.0003 -0.0348
 7480TIP3    H143855   6.319   4.184   2.772  1.9276 -0.0906 -0.0834
 7480TIP3    H243856   6.256   4.263   2.885  0.0569  0.4937 -1.4960
 7481TIP3   OH243857   1.485   6.754  15.727  0.2252  0.7557  0.0841
 7481TIP3    H143858   1.461   6.673  15.772  0.3577  1.2704  1.0884
 7481TIP3    H243859   1.579   6.747  15.712  0.2236  0.6879  0.1057
 7482TIP3   OH243860   4.688   1.990  17.002 -0.0125 -0.5202  0.8334
 7482TIP3    H143861   4.606   2.027  17.036  1.0507 -1.7747  5.1652
 7482TIP3    H243862   4.756   2.034  17.052  1.7590 -1.8703 -0.3344
 7483TIP3   OH243863   4.953   2.719  14.138  0.0053  0.1622  0.3086
 7483TIP3    H143864   4.934   2.631  14.106  0.1240  0.5271 -0.7753
 7483TIP3    H243865   5.048   2.718  14.152 -0.2547 -0.4967  2.2063
 7484TIP3   OH243866   1.391   5.399   3.457  0.1840 -0.1058  0.1266
 7484TIP3    H143867   1.323   5.463   3.481  0.3908  1.1597 -2.5403
 7484TIP3    H243868   1.473   5.448   3.465  0.3014  0.1978 -2.4916
 7485TIP3   OH243869   3.221   3.976  16.513 -0.2708  0.2039  0.2821
 7485TIP3    H143870   3.190   3.973  16.603  0.7885  0.5079  0.6727
 7485TIP3    H243871   3.234   3.884  16.489  0.2733  0.1466  0.7524
 7486TIP3   OH243872   0.668   2.965  13.516 -0.1425  0.0061  0.0454
 7486TIP3    H143873   0.720   2.986  13.438 -0.4484 -1.8996 -0.6985
 7486TIP3    H243874   0.732   2.945  13.583  0.1010 -0.6926 -0.3937
 7487TIP3   OH243875   2.870   1.578   3.108 -0.1543 -0.4117 -0.3919
 7487TIP3    H143876   2.881   1.670   3.129  0.7420 -0.5825 -0.0794
 7487TIP3    H243877   2.777   1.562   3.119 -0.1705  0.2338  0.4868
 7488TIP3   OH243878   1.774   1.289   0.885  0.4549  0.7187 -0.6744
 7488TIP3    H143879   1.698   1.269   0.939 -0.2886 -0.5791 -2.1689
 7488TIP3    H243880   1.815   1.364   0.928  1.1807 -1.6805  2.9507
 7489TIP3   OH243881   4.202   5.976  11.526  0.3368 -0.2508  0.1937
 7489TIP3    H143882   4.122   6.006  11.569  1.0226 -0.1290  1.4306
 7489TIP3    H243883   4.176   5.899  11.477 -0.3935 -0.6236  1.1552
 7490TIP3   OH243884   4.306   1.531  13.777 -0.0724 -0.0068 -0.0468
 7490TIP3    H143885   4.311   1.627  13.780  0.2157 -0.0101 -0.4829
 7490TIP3    H243886   4.361   1.503  13.850  1.0733  0.1242 -0.8538
 7491TIP3   OH243887   4.890   4.094  17.179 -0.0532  0.7248 -0.2347
 7491TIP3    H143888   4.810   4.045  17.198 -0.0225  1.3986  1.8196
 7491TIP3    H243889   4.875   4.179  17.220  0.8753  1.6023 -1.6726
 7492TIP3   OH243890   4.583   2.060  14.779 -0.0382 -0.0645  0.1853
 7492TIP3    H143891   4.585   2.045  14.873  0.1467 -0.8969  0.0467
 7492TIP3    H243892   4.613   1.978  14.740 -2.1881 -0.4877 -0.6726
 7493TIP3   OH243893   2.046   5.126   2.455 -0.1518  0.7741  0.1524
 7493TIP3    H143894   2.086   5.107   2.370 -2.4441  2.2926 -1.3287
 7493TIP3    H243895   2.074   5.054   2.512  1.2625 -0.3632 -1.9268
 7494TIP3   OH243896   5.940   6.152  10.423  0.1262 -0.0547  0.2338
 7494TIP3    H143897   5.956   6.134  10.516 -0.7079  0.2318  0.4419
 7494TIP3    H243898   6.027   6.168  10.386  0.2658  2.3293  1.4968
 7495TIP3   OH243899   3.509   2.157  11.333 -0.0276 -0.0107  0.1421
 7495TIP3    H143900   3.527   2.183  11.243  0.1719 -2.1008 -0.4301
 7495TIP3    H243901   3.468   2.071  11.326  0.7770 -0.5786  2.0935
 7496TIP3   OH243902   3.651   1.276   3.000  0.1752 -0.2467 -0.8817
 7496TIP3    H143903   3.651   1.353   3.057 -1.4169  0.8354 -2.2760
 7496TIP3    H243904   3.725   1.290   2.941  0.4934 -0.2838 -0.4954
 7497TIP3   OH243905   3.157   2.620   4.251 -0.3190 -0.1886 -0.0539
 7497TIP3    H143906   3.162   2.588   4.160 -2.0364 -0.2768 -0.1376
 7497TIP3    H243907   3.065   2.645   4.262  0.2054  1.2049  1.2114
 7498TIP3   OH243908   0.104   1.464  11.137  0.4936 -0.3450 -0.4108
 7498TIP3    H143909   0.094   1.455  11.231 -0.0715  0.5427 -0.3766
 7498TIP3    H243910   0.198   1.458  11.121  0.5442 -1.1357  0.1298
 7499TIP3   OH243911   4.657   5.352  14.574 -0.0468  0.2071 -0.2808
 7499TIP3    H143912   4.750   5.367  14.584 -0.0365 -0.0169 -0.0252
 7499TIP3    H243913   4.648   5.313  14.487  0.1800 -0.4224 -0.0292
 7500TIP3   OH243914   4.563   0.048   3.259  0.6868  0.2622  0.6262
 7500TIP3    H143915   4.514   0.128   3.278 -1.0390 -0.3952 -0.9340
 7500TIP3    H243916   4.640   0.079   3.210 -1.0968  0.8178 -1.9491
 7501TIP3   OH243917   1.004   4.503  14.221 -0.0745 -0.1825 -0.3893
 7501TIP3    H143918   1.098   4.493  14.205 -0.1144 -0.8157 -0.2386
 7501TIP3    H243919   0.969   4.414  14.215  0.0513 -0.6362  4.0883
 7502TIP3   OH243920   1.389   1.053   0.572 -0.6501 -0.4268 -0.0634
 7502TIP3    H143921   1.393   1.090   0.661 -0.3633 -1.5854  0.4058
 7502TIP3    H243922   1.395   0.959   0.585 -0.7522 -0.6056 -1.3145
 7503TIP3   OH243923   6.186   3.363   5.788 -0.3264  0.3230 -0.6783
 7503TIP3    H143924   6.206   3.272   5.808 -3.0628  0.0854  1.1760
 7503TIP3    H243925   6.271   3.408   5.796  0.2521 -1.2593  3.0852
 7504TIP3   OH243926   1.363   1.774   5.648 -0.0387  0.0431 -0.1414
 7504TIP3    H143927   1.450   1.791   5.686  0.4484 -1.3961 -0.5939
 7504TIP3    H243928   1.316   1.856   5.661  1.3120  0.7739  0.3248
 7505TIP3   OH243929   3.229   5.333   4.749  0.1339 -0.0315 -0.0472
 7505TIP3    H143930   3.183   5.378   4.820 -0.7896  0.9973 -1.2799
 7505TIP3    H243931   3.278   5.402   4.705 -0.6176 -0.3620 -1.4301
 7506TIP3   OH243932   0.158   4.364  11.194 -0.0826 -0.3988 -0.7231
 7506TIP3    H143933   0.078   4.364  11.247 -0.2229  0.5246 -0.9251
 7506TIP3    H243934   0.132   4.323  11.111 -0.3299 -0.1829 -0.7555
 7507TIP3   OH243935   0.171   2.633   4.020  0.4593 -0.0668 -0.5905
 7507TIP3    H143936   0.222   2.574   3.963  0.2236 -1.1549  0.3141
 7507TIP3    H243937   0.170   2.589   4.105 -0.4649  0.8355 -0.1299
 7508TIP3   OH243938   0.591   5.813   4.312  0.2195 -0.0121  0.6358
 7508TIP3    H143939   0.519   5.751   4.322 -1.4570  2.0446  1.4430
 7508TIP3    H243940   0.564   5.890   4.360  3.4085  0.4626  1.7886
 7509TIP3   OH243941   2.063   6.365  15.557  0.4950  0.2686  0.3402
 7509TIP3    H143942   2.105   6.416  15.626  1.2194  1.4216 -0.9295
 7509TIP3    H243943   1.993   6.422  15.525  0.5641  0.0015 -0.2939
 7510TIP3   OH243944   2.557   5.744  12.575  0.6126 -0.0275 -0.6714
 7510TIP3    H143945   2.564   5.664  12.627 -3.5233 -0.8930 -1.3084
 7510TIP3    H243946   2.613   5.728  12.499  1.3953 -1.5092  0.1987
 7511TIP3   OH243947   4.979   5.630   4.896  0.9469  0.4519 -0.5505
 7511TIP3    H143948   4.938   5.708   4.932  0.2658  0.3341 -1.0677
 7511TIP3    H243949   4.936   5.616   4.811  0.2547 -1.1307  0.0376
 7512TIP3   OH243950   1.599   0.935  16.372  0.0320 -0.2315  0.3280
 7512TIP3    H143951   1.509   0.965  16.359 -0.2914 -0.9850  0.7741
 7512TIP3    H243952   1.612   0.868  16.306  0.1860 -0.2946  0.4242
 7513TIP3   OH243953   0.143   3.907  17.110  0.2279 -0.0337 -0.0582
 7513TIP3    H143954   0.058   3.868  17.130  0.2463 -0.6513 -1.1139
 7513TIP3    H243955   0.132   4.001  17.127 -0.1881 -0.3187  1.2951
 7514TIP3   OH243956   3.525   5.463  11.458 -0.7544 -0.9471  0.1728
 7514TIP3    H143957   3.494   5.473  11.548  3.6324  1.4817  1.5743
 7514TIP3    H243958   3.595   5.398  11.464 -1.0467 -1.4827 -1.7206
 7515TIP3   OH243959   6.520   2.828   0.496 -0.1128  0.7144  0.1798
 7515TIP3    H143960   6.580   2.768   0.452 -0.3481 -0.0722  0.9139
 7515TIP3    H243961   6.522   2.908   0.443 -1.6824 -0.7829 -2.2045
 7516TIP3   OH243962   1.281   3.605   5.952 -0.5165 -0.0671  0.2098
 7516TIP3    H143963   1.325   3.531   5.993 -2.7537 -0.3498  2.2151
 7516TIP3    H243964   1.307   3.681   6.004 -0.5592  0.1075 -0.0193
 7517TIP3   OH243965   2.384   5.492   0.616 -0.6370  0.2800 -0.1073
 7517TIP3    H143966   2.308   5.537   0.654 -1.3801 -0.3789 -0.7852
 7517TIP3    H243967   2.442   5.563   0.588 -0.5832  0.7777  1.2417
 7518TIP3   OH243968   2.272   4.097   6.239  0.3484 -0.0222 -0.1110
 7518TIP3    H143969   2.189   4.110   6.285 -0.2703 -0.3420 -1.1263
 7518TIP3    H243970   2.333   4.157   6.283 -0.7571  1.2423 -0.2641
 7519TIP3   OH243971   5.627   4.071  11.466 -0.3114  0.1884 -0.0433
 7519TIP3    H143972   5.570   3.995  11.480  0.8487 -0.4708  1.1618
 7519TIP3    H243973   5.694   4.040  11.405  0.7357 -0.0658  1.2181
 7520TIP3   OH243974   1.233   3.896   0.705  0.6042 -0.0412  0.2512
 7520TIP3    H143975   1.159   3.951   0.681  0.2262  0.5399  2.6660
 7520TIP3    H243976   1.214   3.865   0.793  3.1924  0.0564  0.9032
 7521TIP3   OH243977   2.053   4.216   2.913  0.8427  0.2358 -0.1328
 7521TIP3    H143978   1.988   4.229   2.844  1.2685  0.0928 -0.5592
 7521TIP3    H243979   2.046   4.123   2.935  0.4672  0.3545  0.2587
 7522TIP3   OH243980   2.223   5.275   5.134  0.3244  0.6101  0.0881
 7522TIP3    H143981   2.139   5.314   5.160  0.4000  2.1874 -1.9394
 7522TIP3    H243982   2.266   5.344   5.083  2.4477 -0.5374  0.3062
 7523TIP3   OH243983   6.586   5.099  16.881  0.5292 -0.7453 -0.0095
 7523TIP3    H143984   6.545   5.185  16.888  0.1712 -0.8638 -0.6067
 7523TIP3    H243985   6.627   5.098  16.795 -0.1696 -1.4711 -0.3471
 7524TIP3   OH243986   1.449   6.377  13.099  0.5423 -0.2425  0.2721
 7524TIP3    H143987   1.389   6.433  13.149  2.0831  2.2048 -0.5382
 7524TIP3    H243988   1.468   6.304  13.157  0.2263  1.2033  2.2326
 7525TIP3   OH243989   1.149   5.241  12.518 -0.0276 -0.0370 -0.3499
 7525TIP3    H143990   1.060   5.272  12.529  0.2353  0.0041  1.9408
 7525TIP3    H243991   1.200   5.320  12.500 -0.0425  0.3091  1.0730
 7526TIP3   OH243992   2.023   6.590  16.020  0.6969  0.2134  0.1037
 7526TIP3    H143993   2.018   6.685  16.015  0.0754  0.1005 -1.5326
 7526TIP3    H243994   2.029   6.572  16.114  1.1547  1.8740  0.4174
 7527TIP3   OH243995   4.280   3.394  11.641 -0.5733 -0.0459  0.5003
 7527TIP3    H143996   4.335   3.471  11.657  1.4123 -1.1972 -0.6139
 7527TIP3    H243997   4.295   3.372  11.549 -1.3693 -1.5660  0.7126
 7528TIP3   OH243998   5.400   0.572   2.239  0.7067  0.8233 -0.6345
 7528TIP3    H143999   5.452   0.492   2.244  2.7166  2.2006  1.4499
 7528TIP3    H244000   5.311   0.542   2.221  1.3326 -1.9165  0.6586
 7529TIP3   OH244001   1.459   1.449  13.901  0.1837 -0.0402 -0.3126
 7529TIP3    H144002   1.366   1.453  13.922 -0.2764 -1.8427 -1.8796
 7529TIP3    H244003   1.473   1.522  13.840  0.2446  1.4024  1.3612
 7530TIP3   OH244004   2.315   5.161   0.123 -0.0591 -0.1990 -0.2565
 7530TIP3    H144005   2.325   5.194   0.033 -0.6024  1.6652  0.3414
 7530TIP3    H244006   2.402   5.169   0.161  0.2483 -1.3155 -0.7250
 7531TIP3   OH244007   4.604   0.146  12.879  0.4896  0.4538 -0.0418
 7531TIP3    H144008   4.573   0.193  12.957  1.2182  0.5256  0.2086
 7531TIP3    H244009   4.546   0.069  12.873  0.5392  0.3543  0.6700
 7532TIP3   OH244010   0.729   4.574   3.632  0.6284 -0.2166 -0.6858
 7532TIP3    H144011   0.680   4.639   3.581 -0.1434 -0.8003 -0.7102
 7532TIP3    H244012   0.737   4.499   3.572  2.6926  0.3449 -1.1403
 7533TIP3   OH244013   4.876   5.237   5.419  0.1545  0.1889  0.0276
 7533TIP3    H144014   4.953   5.241   5.362 -0.5123 -0.6788 -0.9830
 7533TIP3    H244015   4.823   5.312   5.393 -0.7287 -0.8922 -1.4089
 7534TIP3   OH244016   4.392   1.598   5.999  0.0827  0.2224 -0.1413
 7534TIP3    H144017   4.441   1.560   6.072  1.5260  1.4352 -0.4700
 7534TIP3    H244018   4.453   1.660   5.959 -1.4968  1.2629 -0.9574
 7535TIP3   OH244019   5.736   1.017  12.870  0.4152  0.3696 -0.3774
 7535TIP3    H144020   5.643   0.995  12.858  0.6160 -0.1319 -0.9960
 7535TIP3    H244021   5.762   1.056  12.787  0.2479  2.3339  0.4597
 7536TIP3   OH244022   1.587   0.795   2.254  0.0423 -0.1631  0.5054
 7536TIP3    H144023   1.632   0.869   2.213 -2.0766 -0.0361 -1.6779
 7536TIP3    H244024   1.580   0.820   2.347  0.6997  1.7037  0.0704
 7537TIP3   OH244025   0.434   2.683  15.308  0.0660 -0.3038  0.0353
 7537TIP3    H144026   0.492   2.757  15.323 -0.1169 -0.0269 -0.6056
 7537TIP3    H244027   0.391   2.703  15.225 -1.1771 -0.3538  0.6482
 7538TIP3   OH244028   0.899   3.432  16.980  0.9512  0.2494  0.4211
 7538TIP3    H144029   0.927   3.521  16.963 -0.5445  0.5019 -0.7922
 7538TIP3    H244030   0.804   3.432  16.964  1.2318 -2.0290 -1.7187
 7539TIP3   OH244031   0.213   5.899   3.937  0.0873 -0.1533 -0.1471
 7539TIP3    H144032   0.265   5.977   3.916  0.7794 -0.8140 -0.9433
 7539TIP3    H244033   0.278   5.832   3.957 -0.4071 -1.3574 -2.4409
 7540TIP3   OH244034   1.363   5.738   5.241  0.1501 -0.8688 -1.5102
 7540TIP3    H144035   1.294   5.672   5.243 -2.7069  2.0174 -1.2358
 7540TIP3    H244036   1.334   5.806   5.302  3.3914  0.3108 -1.1501
 7541TIP3   OH244037   2.147   2.427  14.115  0.9494 -0.1654  0.7177
 7541TIP3    H144038   2.105   2.366  14.175  0.1248 -1.9584 -1.5897
 7541TIP3    H244039   2.124   2.514  14.148 -0.3948 -1.1137  2.3368
 7542TIP3   OH244040   0.260   1.867  16.059  0.0774  0.2989  0.2314
 7542TIP3    H144041   0.197   1.918  16.109  0.6143  1.1651  0.0386
 7542TIP3    H244042   0.308   1.932  16.007  0.2481 -0.4776 -0.5998
 7543TIP3   OH244043   5.237   4.547  11.266  0.5554  0.0279  0.0675
 7543TIP3    H144044   5.188   4.518  11.343  0.2445  1.4379  0.4241
 7543TIP3    H244045   5.214   4.486  11.197 -0.2461 -0.4283  0.7372
 7544TIP3   OH244046   2.526   5.195   4.495 -0.0775 -0.8207 -0.0573
 7544TIP3    H144047   2.503   5.127   4.558  2.2931 -2.0488 -0.4731
 7544TIP3    H244048   2.621   5.199   4.498 -0.1741  3.2490  0.7325
 7545TIP3   OH244049   1.443   3.459   0.203  0.1498 -0.1392 -0.0681
 7545TIP3    H144050   1.484   3.492   0.283  1.4660 -0.9984 -0.3552
 7545TIP3    H244051   1.355   3.435   0.229  0.5445 -0.3535  1.1156
 7546TIP3   OH244052   4.330   2.710  12.853 -0.0827 -0.6115 -0.0322
 7546TIP3    H144053   4.344   2.619  12.877 -1.0556 -0.8690 -0.4041
 7546TIP3    H244054   4.417   2.750  12.855 -0.0748 -0.7072  3.5304
 7547TIP3   OH244055   5.194   1.440   0.521  0.1261 -0.8345 -0.1049
 7547TIP3    H144056   5.235   1.418   0.605 -1.4933 -0.0543  0.8975
 7547TIP3    H244057   5.268   1.447   0.460  1.6209  1.5088  1.8745
 7548TIP3   OH244058   0.966   3.003   5.553 -0.7802  0.2780 -0.5754
 7548TIP3    H144059   0.948   3.046   5.469  0.9672 -1.5337 -1.9406
 7548TIP3    H244060   1.033   2.937   5.532 -1.6536 -1.4666  1.9015
 7549TIP3   OH244061   5.564   2.049  16.627 -0.0796 -0.3412  0.1201
 7549TIP3    H144062   5.578   2.092  16.543  0.9508  1.0306  0.9646
 7549TIP3    H244063   5.602   1.962  16.616  0.1035 -0.1531 -0.8147
 7550TIP3   OH244064   2.260   2.144   5.589  0.2390  0.3855  0.2715
 7550TIP3    H144065   2.234   2.233   5.568 -0.4800  0.0016 -0.5422
 7550TIP3    H244066   2.284   2.146   5.681 -2.2055  0.8826  0.9280
 7551TIP3   OH244067   1.481   1.186   5.899  0.1614  0.1650 -0.5190
 7551TIP3    H144068   1.403   1.241   5.892  0.2332  0.3555  0.2374
 7551TIP3    H244069   1.490   1.148   5.811 -0.1114  1.0435 -0.9366
 7552TIP3   OH244070   2.413   2.001  17.050  0.1827 -0.4746  0.1424
 7552TIP3    H144071   2.490   2.017  16.995  0.1090  1.6507  0.6234
 7552TIP3    H244072   2.340   2.001  16.988  0.2117  0.9418  0.0789
 7553TIP3   OH244073   2.295   5.828   4.729 -0.3278  0.5541  0.2306
 7553TIP3    H144074   2.390   5.826   4.740 -0.2360  0.0609 -0.6765
 7553TIP3    H244075   2.272   5.740   4.700 -0.9730  0.9047 -0.3231
 7554TIP3   OH244076   4.765   0.238   0.337  0.3466 -0.7485 -0.3602
 7554TIP3    H144077   4.670   0.231   0.334  0.1877  1.1771 -0.7257
 7554TIP3    H244078   4.791   0.240   0.245  0.4670  1.5610 -0.3092
 7555TIP3   OH244079   5.020   2.468   2.278  0.2925  0.6326  0.1111
 7555TIP3    H144080   4.935   2.509   2.266  0.4714  1.2153  0.8479
 7555TIP3    H244081   5.000   2.375   2.293 -0.1506  0.5935 -0.6843
 7556TIP3   OH244082   5.444   1.001   3.524  0.0291 -0.2300  0.0195
 7556TIP3    H144083   5.437   0.914   3.485 -0.5992  1.1680 -3.1908
 7556TIP3    H244084   5.354   1.025   3.547  0.1225 -0.1919  0.3471
 7557TIP3   OH244085   0.259   6.603  12.867 -0.3717  0.9873 -1.1448
 7557TIP3    H144086   0.290   6.596  12.777  1.3379 -2.2045 -0.3696
 7557TIP3    H244087   0.166   6.581  12.862  0.3967 -2.3811 -1.7646
 7558TIP3   OH244088   0.210   0.590  14.500  0.1770 -0.0208 -0.0902
 7558TIP3    H144089   0.153   0.531  14.549  0.1105  0.3742  0.3102
 7558TIP3    H244090   0.221   0.666  14.557 -0.2267  0.6123 -0.8431
 7559TIP3   OH244091   2.036   4.732  15.095 -0.6228 -0.0272 -0.1086
 7559TIP3    H144092   2.114   4.723  15.150 -0.0106 -0.4044 -1.0265
 7559TIP3    H244093   2.055   4.679  15.018 -1.8583 -0.2486 -0.2687
 7560TIP3   OH244094   1.415   4.784   1.331 -0.1456  0.1084  0.0734
 7560TIP3    H144095   1.500   4.825   1.346  1.3241 -3.0662  0.5987
 7560TIP3    H244096   1.417   4.758   1.239 -1.1512  1.2958 -0.3044
 7561TIP3   OH244097   2.062   6.399  12.384 -0.1914  0.6145  0.3043
 7561TIP3    H144098   2.031   6.487  12.407 -0.9114  0.3003  0.5337
 7561TIP3    H244099   2.005   6.340  12.433 -0.9088 -0.0456 -1.3030
 7562TIP3   OH244100   5.520   1.992  16.917  0.3047  0.0489 -0.0572
 7562TIP3    H144101   5.507   1.898  16.903  0.4553  0.1821 -1.0988
 7562TIP3    H244102   5.558   2.024  16.835 -1.3257  1.3232 -0.3340
 7563TIP3   OH244103   1.864   2.460  15.058 -0.3815 -0.8364 -0.1440
 7563TIP3    H144104   1.824   2.490  15.140 -0.9581 -1.0357 -0.3513
 7563TIP3    H244105   1.792   2.419  15.010 -0.0940 -0.5065 -0.8521
 7564TIP3   OH244106   2.046   1.915   1.427  0.3892  0.0180  0.7865
 7564TIP3    H144107   1.996   1.839   1.398 -0.3870  0.4393  1.0030
 7564TIP3    H244108   1.980   1.984   1.438  1.0608  0.6653  0.7667
 7565TIP3   OH244109   3.884   3.394   6.833  0.3037 -0.2121 -0.0100
 7565TIP3    H144110   3.898   3.368   6.924 -1.0417  0.4321  0.3875
 7565TIP3    H244111   3.789   3.385   6.820  0.6775 -1.8186 -1.8060
 7566TIP3   OH244112   2.482   4.984  10.981 -0.3395  0.5237 -0.1312
 7566TIP3    H144113   2.397   5.015  10.947 -0.7704  1.1010  1.3989
 7566TIP3    H244114   2.486   4.892  10.957 -1.7954  0.2817  0.4948
 7567TIP3   OH244115   4.886   5.251   1.212  0.1249 -0.5182  0.5703
 7567TIP3    H144116   4.934   5.197   1.149  0.9454 -0.1770  0.8974
 7567TIP3    H244117   4.916   5.220   1.298  2.1407  1.7783  0.7685
 7568TIP3   OH244118   5.907   4.396   4.706  1.3080  0.1930 -0.1481
 7568TIP3    H144119   5.946   4.323   4.657  1.7096 -1.8649  3.0921
 7568TIP3    H244120   5.813   4.378   4.704  1.3769 -0.2319  0.3446
 7569TIP3   OH244121   1.755   2.245   3.909  0.8503 -0.2415  0.0339
 7569TIP3    H144122   1.776   2.335   3.885 -0.2702 -0.2594 -1.0366
 7569TIP3    H244123   1.776   2.194   3.831 -0.5245 -0.6141 -0.0997
 7570TIP3   OH244124   5.147   6.171  12.483  0.3176  0.3464 -0.0758
 7570TIP3    H144125   5.098   6.214  12.413  0.2661 -0.0157 -0.2624
 7570TIP3    H244126   5.167   6.084  12.449 -1.9009 -0.7797  1.3111
 7571TIP3   OH244127   5.011   1.834   5.906  0.1159 -0.4526  0.1228
 7571TIP3    H144128   4.939   1.896   5.892  0.2536 -0.5183 -0.8696
 7571TIP3    H244129   5.010   1.819   6.001  0.0907  1.0792  0.3842
 7572TIP3   OH244130   2.543   2.517  12.582  0.7004 -0.0992 -0.6493
 7572TIP3    H144131   2.586   2.439  12.546  1.1165 -0.7652  1.2639
 7572TIP3    H244132   2.615   2.577  12.599  0.4802  0.2949 -1.1049
 7573TIP3   OH244133   0.028   4.641  16.258 -0.1180 -0.2781  0.2567
 7573TIP3    H144134  -0.004   4.551  16.244 -1.0011  0.0927 -0.1695
 7573TIP3    H244135   0.016   4.656  16.352  1.2308 -1.0506  0.5590
 7574TIP3   OH244136   0.833   0.112   1.466  0.1576  0.1019  0.3178
 7574TIP3    H144137   0.863   0.089   1.378  1.2774 -1.1133  1.0146
 7574TIP3    H244138   0.754   0.164   1.451  0.2020 -0.3052 -1.3989
 7575TIP3   OH244139   0.832   3.351  11.061 -0.3277 -0.3211 -0.1276
 7575TIP3    H144140   0.869   3.275  11.015 -1.4222 -0.5282 -0.6937
 7575TIP3    H244141   0.760   3.379  11.005 -0.2050  0.8668  0.3134
 7576TIP3   OH244142   1.630   5.480   1.194 -0.9161 -0.1686 -0.5528
 7576TIP3    H144143   1.717   5.480   1.234 -2.1878 -0.5405  2.4263
 7576TIP3    H244144   1.618   5.569   1.162 -0.3119  0.5300  1.1133
 7577TIP3   OH244145   4.243   3.888  16.397 -0.2072  0.2024 -0.1921
 7577TIP3    H144146   4.181   3.816  16.410 -1.6606  1.1246 -1.6551
 7577TIP3    H244147   4.299   3.859  16.325 -0.9240  0.5874 -0.9196
 7578TIP3   OH244148   1.176   4.219  12.775 -0.1794  0.3200 -0.4251
 7578TIP3    H144149   1.089   4.255  12.757 -0.5502  1.0278  2.5528
 7578TIP3    H244150   1.231   4.295  12.793  0.4349 -0.2804  0.2795
 7579TIP3   OH244151   5.433   5.576  13.343  0.2297 -0.0848  0.2909
 7579TIP3    H144152   5.417   5.588  13.437 -0.7722 -0.2306  0.1451
 7579TIP3    H244153   5.507   5.515  13.339  0.4311  0.1083  0.9890
 7580TIP3   OH244154   5.063   3.941  13.354 -0.3476  0.1386 -0.1649
 7580TIP3    H144155   5.059   3.869  13.417  0.0429 -0.6403 -1.0069
 7580TIP3    H244156   5.121   3.909  13.285 -1.9047  0.3959 -1.6296
 7581TIP3   OH244157   0.135   4.860  12.665  0.2262  0.2017  1.0425
 7581TIP3    H144158   0.147   4.774  12.705 -1.5608 -1.5370 -1.9776
 7581TIP3    H244159   0.218   4.877  12.619 -0.7780 -1.7920 -1.6379
 7582TIP3   OH244160   4.455   6.328  12.950  0.0159  0.2953  0.7403
 7582TIP3    H144161   4.395   6.255  12.936 -0.4412  0.2963  2.6069
 7582TIP3    H244162   4.444   6.383  12.872 -0.4056 -1.0745 -0.1841
 7583TIP3   OH244163   6.246   0.216  14.426 -0.2908 -0.6063  0.3727
 7583TIP3    H144164   6.283   0.128  14.432 -0.6987 -0.7469  0.8917
 7583TIP3    H244165   6.318   0.273  14.455 -0.4003 -0.8628  1.1760
 7584TIP3   OH244166   3.384   0.469  14.270  0.8387 -0.8938 -0.1016
 7584TIP3    H144167   3.305   0.476  14.323  1.4045 -0.0178  0.6454
 7584TIP3    H244168   3.449   0.522  14.316  1.6995 -1.1339 -1.0076
 7585TIP3   OH244169   0.920   0.538   3.615  0.2045  0.4639 -0.4123
 7585TIP3    H144170   0.928   0.466   3.678 -0.1881 -0.3545 -1.2686
 7585TIP3    H244171   0.854   0.596   3.652  0.1767  0.1300  0.0631
 7586TIP3   OH244172   4.601   1.150  11.175  0.6430  0.6267  0.1979
 7586TIP3    H144173   4.647   1.229  11.149  0.4450  1.2615  1.6943
 7586TIP3    H244174   4.566   1.114  11.094  0.7519  2.0663 -0.4987
 7587TIP3   OH244175   3.750   1.915  15.992 -0.1059 -0.4406  0.5365
 7587TIP3    H144176   3.700   1.867  16.058 -0.0285 -1.5313 -0.1916
 7587TIP3    H244177   3.686   1.936  15.924  0.0627 -0.3209  0.4145
 7588TIP3   OH244178   6.530   1.709   1.536 -0.1269 -0.7323 -0.3095
 7588TIP3    H144179   6.520   1.615   1.521 -0.9159 -0.5837 -0.7524
 7588TIP3    H244180   6.470   1.729   1.608  1.3472 -0.8809  0.9626
 7589TIP3   OH244181   0.091   4.461   4.306  0.0406  0.0807  0.1665
 7589TIP3    H144182   0.064   4.550   4.284 -0.9862 -0.4181 -0.6437
 7589TIP3    H244183   0.095   4.416   4.222 -2.3979 -1.4377  0.8152
 7590TIP3   OH244184   2.582   6.682  16.849 -0.2830 -0.0093 -0.1738
 7590TIP3    H144185   2.586   6.724  16.764 -1.9058 -0.6250 -0.5817
 7590TIP3    H244186   2.653   6.617  16.848 -0.9036 -0.6751 -1.4324
 7591TIP3   OH244187   2.407   5.758  15.214 -0.1868  0.0332 -0.2010
 7591TIP3    H144188   2.358   5.726  15.138  2.0404  0.1652 -1.7688
 7591TIP3    H244189   2.420   5.851  15.196 -1.4057  0.5109  1.3584
 7592TIP3   OH244190   4.590   2.725  16.370 -0.4925 -0.5561 -0.4466
 7592TIP3    H144191   4.555   2.784  16.436 -2.2561  1.3645 -3.0012
 7592TIP3    H244192   4.531   2.649  16.371 -0.8048 -0.3073 -0.1713
 7593TIP3   OH244193   1.443   6.618  15.294 -0.6176 -0.1173 -0.0859
 7593TIP3    H144194   1.450   6.666  15.212 -1.2777  0.4417  0.1772
 7593TIP3    H244195   1.479   6.678  15.360 -2.5574  0.5332  0.4298
 7594TIP3   OH244196   1.674   3.565  14.526 -0.1946  0.5674  0.4926
 7594TIP3    H144197   1.737   3.513  14.474 -0.0416  1.2595 -0.0237
 7594TIP3    H244198   1.711   3.653  14.526 -1.9490  1.3383 -1.1362
 7595TIP3   OH244199   5.354   6.045   0.850 -0.0587 -0.3074  0.0964
 7595TIP3    H144200   5.388   5.993   0.923  0.7376  0.1971  0.0832
 7595TIP3    H244201   5.343   6.133   0.886 -0.5925 -0.2814 -0.1246
 7596TIP3   OH244202   6.380   6.752   0.305 -0.7080 -0.0919  0.0130
 7596TIP3    H144203   6.361   6.808   0.381 -0.0342  0.7209 -0.4126
 7596TIP3    H244204   6.306   6.767   0.246 -0.5675  0.3023 -0.0668
 7597TIP3   OH244205   0.485   0.446  14.117 -0.5606 -0.0737  0.2881
 7597TIP3    H144206   0.580   0.432  14.120 -0.4518  0.7708  0.8592
 7597TIP3    H244207   0.454   0.384  14.051  0.6543  1.0178 -1.3654
 7598TIP3   OH244208   0.224   3.959  15.543  0.3202  0.1112  0.3440
 7598TIP3    H144209   0.145   3.953  15.489  1.1593 -2.8673 -0.6386
 7598TIP3    H244210   0.278   4.026  15.500 -0.4514  0.1231 -0.6050
 7599TIP3   OH244211   0.491   2.148  13.913  0.0644  0.1209 -0.7407
 7599TIP3    H144212   0.516   2.056  13.923 -2.6660 -0.5191  0.7101
 7599TIP3    H244213   0.555   2.184  13.851  4.1787 -1.4730  2.3322
 7600TIP3   OH244214   3.576   4.445   4.354 -0.3064 -0.0621  0.6950
 7600TIP3    H144215   3.638   4.382   4.391 -0.3194 -0.4728  0.0482
 7600TIP3    H244216   3.588   4.436   4.259 -0.8231  0.3964  0.5843
 7601TIP3   OH244217   2.728   4.615  11.287  0.5577  0.6642  0.4093
 7601TIP3    H144218   2.676   4.696  11.285 -0.5389 -0.0242  0.8092
 7601TIP3    H244219   2.783   4.621  11.209 -0.3777  1.2399 -0.2172
 7602TIP3   OH244220   0.364   3.364  16.679 -0.3909  0.3005 -0.1386
 7602TIP3    H144221   0.424   3.356  16.752 -0.1976  0.6936 -0.2537
 7602TIP3    H244222   0.392   3.296  16.617 -0.9460 -0.4487  0.4206
 7603TIP3   OH244223   4.166   6.103  16.799 -0.3513 -0.2044 -0.2294
 7603TIP3    H144224   4.141   6.061  16.717  0.7721 -0.4789 -0.4465
 7603TIP3    H244225   4.257   6.131  16.785  0.7920 -2.5738  1.7709
 7604TIP3   OH244226   1.908   1.412   1.852  0.1681  0.2850  0.1563
 7604TIP3    H144227   1.989   1.425   1.804 -0.0274 -1.1918 -0.5795
 7604TIP3    H244228   1.886   1.320   1.839 -0.5051  0.1427  2.0987
 7605TIP3   OH244229   3.571   4.977   3.822  0.2175  0.2157 -0.2119
 7605TIP3    H144230   3.536   5.055   3.777 -0.7925 -0.1893 -0.1364
 7605TIP3    H244231   3.561   4.996   3.915 -1.8867 -0.8164 -0.1976
 7606TIP3   OH244232   6.687   1.718   5.879 -0.3162 -0.2295  0.0527
 7606TIP3    H144233   6.672   1.812   5.868 -2.3986 -0.5776 -0.3319
 7606TIP3    H244234   6.669   1.700   5.971  0.6398 -0.1545  0.2542
 7607TIP3   OH244235   1.221   6.418   5.414  0.0229  0.7664 -0.7763
 7607TIP3    H144236   1.300   6.369   5.391 -1.0613 -1.6839  0.4616
 7607TIP3    H244237   1.223   6.422   5.510 -2.1595 -0.8200 -0.6335
 7608TIP3   OH244238   0.977   4.075  16.332  0.0265 -0.2557  0.0567
 7608TIP3    H144239   0.931   4.060  16.415 -1.3576 -0.3508 -0.7286
 7608TIP3    H244240   0.989   3.988  16.295  2.2766 -0.3883  1.0027
 7609TIP3   OH244241   6.387   5.473   4.713 -0.0405 -0.5081 -0.4125
 7609TIP3    H144242   6.354   5.524   4.639 -0.1017  0.3209  0.1876
 7609TIP3    H244243   6.385   5.382   4.681  0.6090 -0.0945 -1.6718
 7610TIP3   OH244244   2.800   4.911   0.641 -0.3163 -0.1164 -0.2387
 7610TIP3    H144245   2.706   4.902   0.652 -0.3760  0.9253  0.1023
 7610TIP3    H244246   2.812   4.998   0.602  0.4607 -0.4931 -0.8599
 7611TIP3   OH244247   4.934   1.887   3.024 -0.0635 -0.6059 -0.3745
 7611TIP3    H144248   5.017   1.924   3.054  0.9197 -2.2101 -1.0770
 7611TIP3    H244249   4.878   1.887   3.102  1.1976 -1.1815  0.5369
 7612TIP3   OH244250   2.009   4.246  13.814 -0.9400  0.4450 -0.0533
 7612TIP3    H144251   1.971   4.313  13.871 -0.3413  0.5457  0.2307
 7612TIP3    H244252   2.103   4.259  13.820 -0.8804  0.9120 -1.6259
 7613TIP3   OH244253   0.136   4.848   5.171 -0.2137 -0.1095 -0.4244
 7613TIP3    H144254   0.077   4.797   5.226  0.7797 -1.2017 -0.3528
 7613TIP3    H244255   0.140   4.800   5.088 -1.6384  1.4856 -1.4610
 7614TIP3   OH244256   4.775   0.529   1.106  0.1927  0.0425 -0.2673
 7614TIP3    H144257   4.822   0.612   1.119  0.0183  0.4120 -1.8981
 7614TIP3    H244258   4.794   0.478   1.185  0.9069  1.3451  0.4187
 7615TIP3   OH244259   5.413   1.003  14.743 -0.2946 -0.3507  0.0638
 7615TIP3    H144260   5.412   0.910  14.721 -1.6263 -0.7064  1.5310
 7615TIP3    H244261   5.493   1.015  14.795 -1.1395 -1.1009  1.5612
 7616TIP3   OH244262   4.975   5.493   1.674 -0.3956 -0.2452  0.4248
 7616TIP3    H144263   4.914   5.420   1.675 -0.0271 -0.5583 -0.0340
 7616TIP3    H244264   4.999   5.503   1.582 -1.6371  1.4354  0.2611
 7617TIP3   OH244265   5.027   4.853  16.634 -0.0218 -0.4151  0.2768
 7617TIP3    H144266   5.005   4.858  16.728 -1.4014 -1.6747  0.0384
 7617TIP3    H244267   5.015   4.761  16.612  1.8914 -0.4237 -0.7716
 7618TIP3   OH244268   4.072   2.966   5.340  0.6187 -0.1042 -0.4230
 7618TIP3    H144269   4.005   3.034   5.327  0.3128 -0.3297 -0.0396
 7618TIP3    H244270   4.116   2.959   5.255  0.4368  0.3464 -0.5558
 7619TIP3   OH244271   2.722   0.379   2.034 -0.8384 -0.2140 -0.3736
 7619TIP3    H144272   2.774   0.426   1.970  2.1135 -3.7444 -0.7261
 7619TIP3    H244273   2.661   0.327   1.981 -0.7528 -0.5259 -0.1648
 7620TIP3   OH244274   4.392   5.870   3.706 -0.0358 -0.0534  0.2906
 7620TIP3    H144275   4.464   5.838   3.651 -0.7847 -1.0591 -0.1123
 7620TIP3    H244276   4.353   5.941   3.656  0.3066  0.1196  0.2625
 7621TIP3   OH244277   0.618   6.729  12.617  1.0149 -0.5060 -0.0702
 7621TIP3    H144278   0.632   6.804  12.676 -0.6502 -0.1448 -0.0990
 7621TIP3    H244279   0.573   6.766  12.542  1.8748 -1.2266 -0.9486
 7622TIP3   OH244280   1.653   5.274  14.008 -0.1868  0.5406 -0.1494
 7622TIP3    H144281   1.582   5.209  14.016 -0.7617  1.0103 -1.3070
 7622TIP3    H244282   1.614   5.355  14.040  0.5654  0.3058  1.3891
 7623TIP3   OH244283   2.499   4.498   0.037  0.2797  0.1728 -0.5026
 7623TIP3    H144284   2.560   4.426   0.051  0.2741 -0.2836 -2.6523
 7623TIP3    H244285   2.549   4.563  -0.011 -1.2183 -0.7371 -3.4325
 7624TIP3   OH244286   4.786   3.215  11.667  0.5282  0.5685  0.1469
 7624TIP3    H144287   4.820   3.135  11.705  0.4639 -0.1195 -1.2125
 7624TIP3    H244288   4.862   3.272  11.659  0.3713  1.1179  2.2166
 7625TIP3   OH244289   6.444   5.555  12.825 -0.4108  0.1248  0.0919
 7625TIP3    H144290   6.405   5.575  12.910 -1.3808 -0.7997 -0.1306
 7625TIP3    H244291   6.471   5.463  12.831 -0.8103 -0.0560 -0.7193
 7626TIP3   OH244292   1.138   3.278  15.034 -0.2214 -0.1719  0.3915
 7626TIP3    H144293   1.052   3.265  15.073 -0.0785  0.5389  0.9501
 7626TIP3    H244294   1.124   3.262  14.940 -1.3834  1.8053  0.1886
 7627TIP3   OH244295   4.390   0.304  16.717  0.1425 -0.0243 -0.3363
 7627TIP3    H144296   4.351   0.262  16.794  0.8447  0.7577  0.4617
 7627TIP3    H244297   4.480   0.270  16.715 -0.9254 -2.8687 -2.9469
 7628TIP3   OH244298   6.773   1.274   4.568 -0.0910 -0.8589  0.7741
 7628TIP3    H144299   6.832   1.268   4.643 -0.6039  0.7030  1.3348
 7628TIP3    H244300   6.729   1.359   4.579 -1.4530 -1.3968 -0.3521
 7629TIP3   OH244301   2.857   6.023   4.338 -0.2830 -0.0918 -0.6143
 7629TIP3    H144302   2.941   6.066   4.326 -0.5554  0.6376  0.0248
 7629TIP3    H244303   2.811   6.036   4.255  0.0582 -0.1054 -0.8067
 7630TIP3   OH244304   2.443   5.490  13.609  0.2015  0.2934  0.2081
 7630TIP3    H144305   2.427   5.581  13.585  1.0993  0.7220  1.1677
 7630TIP3    H244306   2.434   5.442  13.528  1.0974  1.4309 -0.5833
 7631TIP3   OH244307   4.118   1.492   5.352  0.3079 -0.0049  0.1454
 7631TIP3    H144308   4.117   1.466   5.444  1.4491  0.2075  0.2241
 7631TIP3    H244309   4.182   1.434   5.311 -1.2978 -1.1239 -0.8325
 7632TIP3   OH244310   4.431   5.087  12.039 -0.1680  0.2837  0.0155
 7632TIP3    H144311   4.341   5.072  12.011 -0.4763 -0.2688  1.2708
 7632TIP3    H244312   4.472   5.131  11.965 -1.4971  0.6319 -0.5253
 7633TIP3   OH244313   2.209   2.279   5.912 -0.0926  0.0763  0.3010
 7633TIP3    H144314   2.131   2.302   5.863  0.5524 -0.8756 -1.1949
 7633TIP3    H244315   2.185   2.198   5.958  0.0168 -0.2372 -0.1887
 7634TIP3   OH244316   2.776   1.870  15.168  0.2617 -0.0531  0.2011
 7634TIP3    H144317   2.740   1.900  15.084  0.8967  0.7864  0.2175
 7634TIP3    H244318   2.740   1.782  15.180 -0.0335 -0.0782 -0.8292
 7635TIP3   OH244319   1.005   5.815  10.901  0.3484 -0.1355  0.2726
 7635TIP3    H144320   1.007   5.772  10.815 -0.9855 -2.3275  1.3077
 7635TIP3    H244321   0.912   5.829  10.919  0.7247  2.2239  0.4439
 7636TIP3   OH244322   4.620   1.433  14.808  0.4787 -0.1673 -0.3152
 7636TIP3    H144323   4.526   1.448  14.815 -0.1544 -3.1657 -1.4208
 7636TIP3    H244324   4.632   1.399  14.719  2.3073 -1.7325  0.4994
 7637TIP3   OH244325   4.396   0.714  14.312  0.4176  0.0704 -0.5315
 7637TIP3    H144326   4.338   0.656  14.362 -0.9947 -0.6421 -2.8957
 7637TIP3    H244327   4.482   0.672  14.315  0.5176  0.4024  1.8376
 7638TIP3   OH244328   1.295   2.311   2.215 -0.2373 -0.2848  0.4111
 7638TIP3    H144329   1.268   2.399   2.243 -0.8189 -0.6276  0.9212
 7638TIP3    H244330   1.390   2.313   2.220 -0.2348  0.3810  0.2376
 7639TIP3   OH244331   0.312   2.819  13.757  0.1791 -0.5180 -0.2011
 7639TIP3    H144332   0.263   2.743  13.787 -0.9935 -0.3703 -1.6597
 7639TIP3    H244333   0.404   2.796  13.769 -0.1359 -2.5093 -1.4256
 7640TIP3   OH244334   1.840   3.915  15.776  0.0909 -0.3498 -0.3662
 7640TIP3    H144335   1.905   3.876  15.835 -0.1365 -1.1993 -0.6732
 7640TIP3    H244336   1.828   4.004  15.809  3.0950  0.5920 -1.6140
 7641TIP3   OH244337   3.280   1.673  15.410  0.1915  0.0418  0.1993
 7641TIP3    H144338   3.210   1.633  15.462  1.1585  0.0529  1.5464
 7641TIP3    H244339   3.361   1.641  15.451  0.9777  1.0651 -0.5272
 7642TIP3   OH244340   2.638   4.905   4.717  0.1646  0.3296 -0.3768
 7642TIP3    H144341   2.628   4.845   4.791 -2.0630  1.8234  0.6025
 7642TIP3    H244342   2.585   4.867   4.648  0.2720  0.1872 -0.3797
 7643TIP3   OH244343   3.751   2.034   5.079  0.6917 -0.1404 -0.2138
 7643TIP3    H144344   3.820   2.011   5.140  0.6643 -0.0333 -0.1419
 7643TIP3    H244345   3.686   2.081   5.132  0.8687  0.3270 -0.4064
 7644TIP3   OH244346   6.164   2.158   3.461 -0.0104  0.4498  0.4113
 7644TIP3    H144347   6.118   2.242   3.453  0.7862  0.6080 -3.2146
 7644TIP3    H244348   6.257   2.180   3.456  0.2005 -0.6795 -0.9211
 7645TIP3   OH244349   5.164   3.972   2.120 -0.1819 -0.1663  0.1918
 7645TIP3    H144350   5.134   3.884   2.143  1.4299  0.0132  3.2633
 7645TIP3    H244351   5.245   3.958   2.071  0.1600 -0.3948  0.8218
 7646TIP3   OH244352   5.669   3.318  16.070  0.5650 -0.5407  0.0936
 7646TIP3    H144353   5.619   3.329  16.151 -2.1093 -2.3244 -1.2745
 7646TIP3    H244354   5.702   3.228  16.075  2.1307  0.0029  0.0909
 7647TIP3   OH244355   2.473   6.186  17.106 -0.1925 -0.0700 -0.2009
 7647TIP3    H144356   2.386   6.156  17.132 -0.1097 -1.0314 -0.9920
 7647TIP3    H244357   2.504   6.237  17.181 -0.5442 -1.5468  0.9890
 7648TIP3   OH244358   3.964   0.565   6.006 -0.3394 -0.0031  0.2651
 7648TIP3    H144359   3.921   0.633   5.954  2.8026  2.0966  0.2348
 7648TIP3    H244360   4.029   0.527   5.946  1.1416  0.2540  1.6486
 7649TIP3   OH244361   1.588   3.071  11.593  0.3361  0.1733 -0.1044
 7649TIP3    H144362   1.669   3.110  11.626  1.8729 -0.7823 -2.5833
 7649TIP3    H244363   1.534   3.146  11.570  0.9083  0.8295  0.6285
 7650TIP3   OH244364   4.516   0.994  16.665 -0.1471  0.1454  0.5613
 7650TIP3    H144365   4.598   0.956  16.697 -0.5612 -0.5306  0.8404
 7650TIP3    H244366   4.542   1.045  16.588 -0.0390 -3.6057 -2.0071
 7651TIP3   OH244367   5.405   1.731   1.780 -0.0750 -0.0302  0.1466
 7651TIP3    H144368   5.363   1.656   1.737 -1.7235 -1.2069  3.6631
 7651TIP3    H244369   5.494   1.702   1.797 -0.3196 -0.7292  0.2835
 7652TIP3   OH244370   0.174   0.410   5.733  0.8045  0.1178 -0.5148
 7652TIP3    H144371   0.256   0.441   5.772  0.4504  1.0800 -0.5223
 7652TIP3    H244372   0.111   0.413   5.805  0.7774 -0.6239 -0.5099
 7653TIP3   OH244373   4.918   1.250   1.439  0.3790 -0.2815 -0.1479
 7653TIP3    H144374   4.883   1.292   1.518  0.4621  0.5713 -0.5495
 7653TIP3    H244375   4.958   1.169   1.470 -0.5934 -0.5134  0.5281
 7654TIP3   OH244376   5.345   4.720   1.901 -0.3674 -0.1992 -0.6261
 7654TIP3    H144377   5.257   4.757   1.909 -0.6022 -0.9828  0.6918
 7654TIP3    H244378   5.330   4.625   1.902  0.3480 -0.3318 -2.2484
 7655TIP3   OH244379   0.826   4.043   0.395 -0.2855  0.1990  0.2074
 7655TIP3    H144380   0.768   4.053   0.471  0.5914 -1.1502  1.0825
 7655TIP3    H244381   0.880   3.967   0.417  2.3471  1.8897 -0.2492
 7656TIP3   OH244382   0.566   2.822   1.073 -0.4758  0.6305  0.3497
 7656TIP3    H144383   0.601   2.891   1.129  0.5676  0.0399  0.4452
 7656TIP3    H244384   0.591   2.741   1.117  2.1482  0.1014 -1.9633
 7657TIP3   OH244385   6.351   3.272  16.051  0.2119  0.3153  0.2875
 7657TIP3    H144386   6.299   3.334  16.102 -0.2178 -1.5626  2.2334
 7657TIP3    H244387   6.298   3.255  15.973 -1.7320 -0.8392  1.7917
 7658TIP3   OH244388   0.766   3.079  13.278  0.2683  0.5189  0.2883
 7658TIP3    H144389   0.730   3.090  13.190 -1.2625 -1.4614  0.6251
 7658TIP3    H244390   0.860   3.064  13.264 -0.1327 -0.8160 -1.1026
 7659TIP3   OH244391   3.282   3.473  12.704  0.0696  0.2433  0.2596
 7659TIP3    H144392   3.330   3.393  12.724 -0.1041  0.4045  1.3245
 7659TIP3    H244393   3.249   3.504  12.788 -0.1732  1.2409 -0.1892
 7660TIP3   OH244394   2.004   5.820  13.387 -0.6023  0.0780 -0.1333
 7660TIP3    H144395   1.983   5.827  13.294 -0.1171  0.8132 -0.1922
 7660TIP3    H244396   1.921   5.839  13.432 -1.1772 -1.6696 -0.4289
 7661TIP3   OH244397   0.073   3.594   4.556  0.0117 -0.1620 -0.1478
 7661TIP3    H144398   0.131   3.564   4.626  0.0303 -2.1207 -0.9789
 7661TIP3    H244399  -0.012   3.555   4.576 -0.3719  0.5509 -0.3703
 7662TIP3   OH244400   3.058   3.791   4.951  0.3702  0.0298  0.4138
 7662TIP3    H144401   3.071   3.736   4.874  1.5372  2.2764 -1.0464
 7662TIP3    H244402   3.134   3.848   4.953  0.2456  0.1592  3.1441
 7663TIP3   OH244403   3.061   2.879   1.202  0.1716 -0.0913 -0.0624
 7663TIP3    H144404   3.069   2.915   1.291 -2.3619 -1.9727  0.9838
 7663TIP3    H244405   3.056   2.956   1.145  0.8239  1.1387  1.4939
 7664TIP3   OH244406   2.948   3.484   0.736 -0.4605 -0.1376 -0.1856
 7664TIP3    H144407   2.937   3.416   0.670  3.3576 -2.0171  0.9281
 7664TIP3    H244408   2.945   3.437   0.819  2.4388  0.9729  0.6032
 7665TIP3   OH244409   5.198   1.319   3.894  0.6233 -0.4072 -0.1692
 7665TIP3    H144410   5.273   1.363   3.935 -1.5554  1.4596  1.9609
 7665TIP3    H244411   5.166   1.382   3.829  0.3285 -0.7979 -0.4020
 7666TIP3   OH244412   3.365   0.075   1.520  0.2083 -0.1100 -0.1624
 7666TIP3    H144413   3.439   0.014   1.521  0.1478 -0.2744 -2.6013
 7666TIP3    H244414   3.288   0.019   1.517  0.0947  0.0824 -0.7983
 7667TIP3   OH244415   3.985   1.007  12.896  0.4644 -1.1068 -0.4010
 7667TIP3    H144416   3.937   0.926  12.879 -2.0744  1.0387 -4.2857
 7667TIP3    H244417   3.936   1.049  12.966 -1.8084 -0.1940 -2.4953
 7668TIP3   OH244418   5.574   3.259   3.537 -0.2726 -0.2043  0.5817
 7668TIP3    H144419   5.600   3.329   3.477  0.7512 -1.9814 -1.1121
 7668TIP3    H244420   5.624   3.275   3.617  2.3244 -0.7354 -0.8825
 7669TIP3   OH244421   6.225   0.063  17.219 -0.1413 -0.1176 -0.2587
 7669TIP3    H144422   6.174   0.091  17.143 -0.0547  0.3840 -0.1351
 7669TIP3    H244423   6.206   0.129  17.286 -1.0925 -1.1573  0.5211
 7670TIP3   OH244424   1.310   1.502  16.390 -0.3465 -0.0527  0.0354
 7670TIP3    H144425   1.380   1.477  16.451 -0.9479  1.9506  1.6231
 7670TIP3    H244426   1.355   1.519  16.307  0.5626 -2.2801  0.0405
 7671TIP3   OH244427   4.021   5.347  15.650 -0.3801  0.4316 -0.1229
 7671TIP3    H144428   3.979   5.276  15.699  0.2568  0.9879  1.2414
 7671TIP3    H244429   3.997   5.330  15.559 -2.3323 -0.0953  0.4647
 7672TIP3   OH244430   1.280   4.753  10.539 -0.1859  0.9718  0.1017
 7672TIP3    H144431   1.283   4.845  10.563 -0.0719  1.1748 -0.6733
 7672TIP3    H244432   1.188   4.728  10.546 -0.4494  1.5645 -1.2512
 7673TIP3   OH244433   4.263   4.912   3.065 -0.1044  0.0639 -0.6577
 7673TIP3    H144434   4.301   4.824   3.061 -1.6909 -0.7273  0.9502
 7673TIP3    H244435   4.338   4.971   3.061  1.3947 -1.4704  2.9951
 7674TIP3   OH244436   1.759   1.584  12.455  0.0629  0.2587  0.3314
 7674TIP3    H144437   1.701   1.516  12.490 -0.2826  1.5079  2.2400
 7674TIP3    H244438   1.714   1.666  12.474  0.5279  1.0656 -1.8461
 7675TIP3   OH244439   0.690   1.003  15.883 -0.3171 -1.1238  0.4684
 7675TIP3    H144440   0.613   0.954  15.911 -1.0171  0.1401  0.8015
 7675TIP3    H244441   0.727   1.038  15.965  0.1459 -1.0392  0.2253
 7676TIP3   OH244442   5.252   3.813   3.088 -0.0534 -0.3676  0.3309
 7676TIP3    H144443   5.255   3.890   3.032 -0.8347 -0.1532  0.5764
 7676TIP3    H244444   5.302   3.747   3.041  2.9476  1.0911  1.3755
 7677TIP3   OH244445   0.421   4.857  10.388 -0.2709  0.1224 -0.0766
 7677TIP3    H144446   0.344   4.821  10.433  0.2427  0.2293  0.9023
 7677TIP3    H244447   0.421   4.950  10.411  1.5867 -0.3699  2.0528
 7678TIP3   OH244448   2.690   1.461  11.271 -0.6334  0.1097  0.2034
 7678TIP3    H144449   2.641   1.488  11.193 -0.5470  1.3072  0.5556
 7678TIP3    H244450   2.767   1.415  11.236 -2.8471 -3.3570 -0.3382
 7679TIP3   OH244451   0.562   1.474  14.473  0.6131  0.1528 -0.1674
 7679TIP3    H144452   0.627   1.542  14.463  0.3953  0.4818  0.6052
 7679TIP3    H244453   0.504   1.483  14.397 -0.0894  1.5680  0.5237
 7680TIP3   OH244454   4.436   4.380   5.926  0.2226  0.1941  0.0448
 7680TIP3    H144455   4.499   4.450   5.943 -3.5608  4.0190 -0.7481
 7680TIP3    H244456   4.408   4.353   6.013  0.3272  1.0335  0.3506
 7681TIP3   OH244457   4.503   6.464   5.579 -0.5282 -0.4453  0.0920
 7681TIP3    H144458   4.502   6.420   5.664 -1.2370 -1.1868 -0.2928
 7681TIP3    H244459   4.432   6.423   5.529 -0.7997  0.7079 -0.4965
 7682TIP3   OH244460   0.370   5.455   1.104 -0.9993 -0.0069  0.4962
 7682TIP3    H144461   0.336   5.416   1.184  1.0451 -1.0754  0.8731
 7682TIP3    H244462   0.444   5.509   1.133 -1.1513  0.7713 -0.5083
 7683TIP3   OH244463   5.202   4.663  15.193  0.1707 -0.4715  0.2404
 7683TIP3    H144464   5.221   4.646  15.285 -0.6369  2.6165  1.0402
 7683TIP3    H244465   5.193   4.759  15.188 -0.5973 -0.6615 -2.8815
 7684TIP3   OH244466   2.864   6.632  14.742 -0.5254 -0.5831  0.1940
 7684TIP3    H144467   2.772   6.635  14.716 -0.6226  0.0385  0.5962
 7684TIP3    H244468   2.864   6.582  14.824 -0.5909 -0.0275  0.5369
 7685TIP3   OH244469   2.825   5.343  10.474 -0.0559  0.3022  0.3376
 7685TIP3    H144470   2.917   5.364  10.460  0.3344 -0.6804  1.2902
 7685TIP3    H244471   2.807   5.271  10.413 -0.1029  0.2677  0.3912
 7686TIP3   OH244472   0.104   5.240   2.458  0.3893  0.0910 -0.6566
 7686TIP3    H144473   0.152   5.209   2.535  0.7181 -0.4928 -1.0884
 7686TIP3    H244474   0.128   5.179   2.389 -0.6435  0.0507 -0.9934
 7687TIP3   OH244475   3.123   3.130  15.173  0.0318 -0.3295  0.5900
 7687TIP3    H144476   3.162   3.214  15.151  0.1006 -0.6828 -0.6496
 7687TIP3    H244477   3.029   3.146  15.171  0.0553 -0.1384  0.9461
 7688TIP3   OH244478   1.971   5.652  17.109 -0.3961 -0.7196  0.2347
 7688TIP3    H144479   1.980   5.623  17.200 -0.0879  0.5041  0.5986
 7688TIP3    H244480   2.048   5.619  17.065 -0.1712 -0.6710  0.5919
 7689TIP3   OH244481   3.526   2.908  17.075 -0.3975 -0.6964  0.1475
 7689TIP3    H144482   3.612   2.870  17.058  0.0556  1.0154 -1.4769
 7689TIP3    H244483   3.529   2.995  17.035 -2.7329 -0.4467  0.4345
 7690TIP3   OH244484   0.188   0.069   1.003 -0.2301 -0.2538 -0.3358
 7690TIP3    H144485   0.284   0.072   1.007 -0.3006  3.1429  0.4515
 7690TIP3    H244486   0.165  -0.010   1.051  2.1542 -0.6988  0.1661
 7691TIP3   OH244487   1.723   1.084  11.685  0.2534  0.1123  0.1673
 7691TIP3    H144488   1.640   1.036  11.683 -0.2502  0.9673  0.5049
 7691TIP3    H244489   1.768   1.057  11.605 -0.2368 -0.5461  0.1064
 7692TIP3   OH244490   3.184   2.457   5.394  0.3420  0.1757 -0.0399
 7692TIP3    H144491   3.190   2.526   5.460 -0.5170 -0.1467  0.3798
 7692TIP3    H244492   3.253   2.395   5.418  0.6424  0.5220  0.0029
 7693TIP3   OH244493   0.199   5.849   2.000 -0.1471  0.4439  0.2211
 7693TIP3    H144494   0.192   5.770   1.947 -0.3725  0.5972  0.0212
 7693TIP3    H244495   0.109   5.873   2.020 -0.1098  1.0569 -0.3256
 7694TIP3   OH244496   4.884   2.108   3.574  0.1159  0.0357  0.2338
 7694TIP3    H144497   4.930   2.050   3.514  0.1787  0.6563 -0.3162
 7694TIP3    H244498   4.936   2.189   3.575 -1.5838  1.1785 -1.3058
 7695TIP3   OH244499   3.676   6.076  11.556 -0.0929  0.6025  0.0161
 7695TIP3    H144500   3.651   6.167  11.540  1.4813  0.9892 -0.2958
 7695TIP3    H244501   3.637   6.028  11.482 -1.0027  0.9922  0.2308
 7696TIP3   OH244502   3.157   0.662   6.717 -0.4042  0.6619  0.1392
 7696TIP3    H144503   3.091   0.684   6.652 -0.5688 -0.9278 -0.2441
 7696TIP3    H244504   3.108   0.634   6.794 -0.2156 -1.7623 -0.5727
 7697TIP3   OH244505   2.233   2.321  15.092  0.4431  0.5810 -0.7808
 7697TIP3    H144506   2.171   2.264  15.138 -1.3741  2.1027 -1.3222
 7697TIP3    H244507   2.304   2.262  15.067 -0.0031 -0.8831  1.2240
 7698TIP3   OH244508   5.155   2.025  16.533  0.2849 -0.2402 -0.2557
 7698TIP3    H144509   5.229   2.082  16.555 -0.5227  0.6834  0.1011
 7698TIP3    H244510   5.159   1.954  16.597 -0.2058  0.7735  0.9161
 7699TIP3   OH244511   0.984   0.699   3.002  0.1242  0.0814  0.3705
 7699TIP3    H144512   1.056   0.641   3.024  0.5273  1.2730  2.3596
 7699TIP3    H244513   1.025   0.784   2.985 -0.7370  0.6173  0.8980
 7700TIP3   OH244514   6.137   4.951   1.576 -0.3546  0.0815 -0.5586
 7700TIP3    H144515   6.210   4.977   1.520 -0.5676  2.6173  0.2757
 7700TIP3    H244516   6.124   4.858   1.557  2.7221 -0.2874 -1.0901
 7701TIP3   OH244517   1.047   6.584  13.328  0.2224 -0.4348  0.2754
 7701TIP3    H144518   1.075   6.614  13.241  0.6139 -0.4075  0.4092
 7701TIP3    H244519   0.952   6.595  13.328  0.2429 -0.2577 -0.0835
 7702TIP3   OH244520   1.686   4.267  11.531 -0.1825  0.2519 -0.1280
 7702TIP3    H144521   1.717   4.252  11.620 -2.2296 -1.2805  0.3593
 7702TIP3    H244522   1.609   4.211  11.522  0.4552 -0.2521 -3.1408
 7703TIP3   OH244523   4.754   2.283  11.440 -0.4262 -0.1816 -0.4286
 7703TIP3    H144524   4.707   2.241  11.368 -0.5038 -0.2409 -0.3423
 7703TIP3    H244525   4.846   2.261  11.424 -0.3037  0.8206 -1.2035
 7704TIP3   OH244526   6.134   5.777  13.306  0.0417  0.0925 -0.4058
 7704TIP3    H144527   6.225   5.805  13.304 -0.1453  0.7779  0.8129
 7704TIP3    H244528   6.086   5.848  13.264  0.0270 -0.1721 -0.8491
 7705TIP3   OH244529   1.928   2.098  14.389 -0.2187  0.5802 -0.1774
 7705TIP3    H144530   1.954   2.179  14.345 -2.0155  1.0265 -0.4460
 7705TIP3    H244531   1.944   2.115  14.482 -1.5198  1.6216 -0.1300
 7706TIP3   OH244532   0.545   1.578  15.809  0.0205 -0.0288 -0.2443
 7706TIP3    H144533   0.581   1.567  15.897 -0.3079  1.2415  0.0576
 7706TIP3    H244534   0.454   1.548  15.817 -0.0834  0.3210 -0.0800
 7707TIP3   OH244535   4.824   3.892   1.621  0.0939  0.7405 -0.9081
 7707TIP3    H144536   4.898   3.842   1.654 -0.8014  2.0550  3.4351
 7707TIP3    H244537   4.749   3.833   1.631 -0.2550  1.3138 -0.0185
 7708TIP3   OH244538   4.855   3.267   2.374  0.5496 -0.1947  0.7303
 7708TIP3    H144539   4.788   3.207   2.405 -0.3287  0.9522  1.0761
 7708TIP3    H244540   4.875   3.322   2.450  0.4889  0.7241  0.0887
 7709TIP3   OH244541   6.133   0.281   0.193  0.2050 -0.2524  0.2409
 7709TIP3    H144542   6.047   0.322   0.181 -0.2568 -0.0563  3.6389
 7709TIP3    H244543   6.194   0.355   0.200  0.6291 -0.3841 -1.8468
 7710TIP3   OH244544   2.726   2.252   0.789 -0.3190 -0.3252  0.8942
 7710TIP3    H144545   2.706   2.337   0.828 -1.6529  0.4013 -1.2733
 7710TIP3    H244546   2.656   2.195   0.819 -1.7340  0.4079 -0.9179
 7711TIP3   OH244547   5.211   6.472   3.942  0.4248  0.1686 -0.0388
 7711TIP3    H144548   5.134   6.529   3.949  0.7843  0.4918  1.4653
 7711TIP3    H244549   5.271   6.519   3.884 -0.6269 -0.2251 -1.4671
 7712TIP3   OH244550   5.957   2.030   4.688  0.0476  0.3685 -0.3123
 7712TIP3    H144551   6.039   2.004   4.729 -1.0144 -1.4910  0.7246
 7712TIP3    H244552   5.927   2.105   4.739  0.6803  0.5301 -0.1779
 7713TIP3   OH244553   0.249   5.048   1.734  0.1905  0.0642 -0.6307
 7713TIP3    H144554   0.197   5.104   1.677 -0.8432 -0.0001  0.2344
 7713TIP3    H244555   0.335   5.043   1.691 -1.0370 -1.3027 -3.0233
 7714TIP3   OH244556   2.409   3.666  17.025 -0.1384 -0.3622 -0.1267
 7714TIP3    H144557   2.331   3.673  16.970 -0.5086 -0.4522  0.3815
 7714TIP3    H244558   2.481   3.694  16.969 -0.8492  2.1048  0.1264
 7715TIP3   OH244559   5.763   4.405  13.171 -0.1095 -0.1171 -0.2849
 7715TIP3    H144560   5.691   4.367  13.221  0.9326  0.3863  1.6684
 7715TIP3    H244561   5.806   4.464  13.233  1.4124  0.3030 -1.7073
 7716TIP3   OH244562   2.063   6.351   4.720 -0.2263  0.0640 -0.3244
 7716TIP3    H144563   2.093   6.272   4.765 -0.5280 -0.5618 -1.2055
 7716TIP3    H244564   2.084   6.335   4.628  0.4009  1.3285 -0.4131
 7717TIP3   OH244565   0.208   4.357   1.635 -0.2509 -0.3446  0.5815
 7717TIP3    H144566   0.171   4.394   1.715 -2.0151  2.9653 -1.6254
 7717TIP3    H244567   0.140   4.370   1.569  1.0582 -3.2011 -1.4350
 7718TIP3   OH244568   4.862   3.284   4.469  0.1841  0.0350 -0.7429
 7718TIP3    H144569   4.774   3.316   4.453  0.2390 -0.3872 -1.9438
 7718TIP3    H244570   4.854   3.188   4.468  0.6722 -0.0058 -0.9443
 7719TIP3   OH244571   4.248   3.590  13.389 -0.1869  0.2535 -0.6336
 7719TIP3    H144572   4.203   3.546  13.317 -1.0175  1.9058 -1.1640
 7719TIP3    H244573   4.340   3.587  13.364 -0.1805 -1.5196 -0.4547
 7720TIP3   OH244574   3.295   5.249  14.525 -0.0757 -0.0846  0.1079
 7720TIP3    H144575   3.275   5.166  14.481  2.0932 -0.9682  0.7247
 7720TIP3    H244576   3.245   5.244  14.607 -0.3940 -0.5425 -0.1078
 7721TIP3   OH244577   0.874   5.724  16.502 -0.1605 -0.4088 -0.4887
 7721TIP3    H144578   0.818   5.647  16.503  0.6793 -1.0193 -0.3218
 7721TIP3    H244579   0.846   5.776  16.577  0.2373 -1.2449  0.2376
 7722TIP3   OH244580   5.072   3.956  15.613  0.0943  0.4372  0.3454
 7722TIP3    H144581   5.162   3.949  15.644 -0.8570 -0.8625  2.9463
 7722TIP3    H244582   5.080   3.976  15.520  3.0506  2.1329  0.9071
 7723TIP3   OH244583   6.591   3.301  17.182 -0.3032  0.1319 -0.6139
 7723TIP3    H144584   6.627   3.217  17.153  0.8978 -0.2358  1.7669
 7723TIP3    H244585   6.624   3.311  17.271 -3.1315  1.5911  0.3290
 7724TIP3   OH244586   5.072   3.158   1.246 -0.1732  0.0132 -0.0976
 7724TIP3    H144587   5.073   3.131   1.338  2.8349  0.4326  0.0486
 7724TIP3    H244588   5.149   3.115   1.208  0.3133  2.2145 -1.6742
 7725TIP3   OH244589   1.806   1.731  14.212  0.2148  0.1001 -0.4036
 7725TIP3    H144590   1.835   1.640  14.203 -2.0427 -0.9232  1.7269
 7725TIP3    H244591   1.710   1.724  14.218  0.1699  2.2973  2.6787
 7726TIP3   OH244592   2.788   0.179   5.671 -0.0048 -0.7014 -0.0882
 7726TIP3    H144593   2.837   0.243   5.620 -1.6043  2.0051  1.6612
 7726TIP3    H244594   2.855   0.117   5.702  1.9254  1.3270 -0.0414
 7727TIP3   OH244595   6.056   5.523   3.439 -0.2937 -0.1076  0.3162
 7727TIP3    H144596   6.012   5.606   3.457 -0.2671 -0.0649  0.1877
 7727TIP3    H244597   6.043   5.509   3.345  0.2650  0.0871  0.2051
 7728TIP3   OH244598   1.009   1.814   0.815 -0.3596  0.0576  0.6311
 7728TIP3    H144599   1.087   1.851   0.772  0.7349 -1.7213  1.0480
 7728TIP3    H244600   0.983   1.742   0.758 -0.5934 -0.5295  1.4799
 7729TIP3   OH244601   2.453   3.669   4.756 -0.4713 -0.5610 -0.0253
 7729TIP3    H144602   2.413   3.586   4.782 -0.0141 -0.7024  0.2194
 7729TIP3    H244603   2.439   3.728   4.830 -1.0359 -0.3337 -0.3065
 7730TIP3   OH244604   3.717   0.748   2.778  0.3211 -0.1341  0.0469
 7730TIP3    H144605   3.734   0.841   2.762  0.6007 -0.3273 -0.8217
 7730TIP3    H244606   3.755   0.731   2.864  0.6725  0.4466  0.0086
 7731TIP3   OH244607   4.182   2.993  12.420  0.5954  0.3771  0.1566
 7731TIP3    H144608   4.167   2.981  12.326  0.4292  0.9124  0.1127
 7731TIP3    H244609   4.121   3.063  12.445 -0.2122 -0.5610  0.8962
 7732TIP3   OH244610   2.445   5.473  12.536 -0.8167  0.3977 -0.1096
 7732TIP3    H144611   2.370   5.532  12.540 -1.5001 -0.5279  0.7799
 7732TIP3    H244612   2.467   5.455  12.627  0.5460  0.7235 -0.3622
 7733TIP3   OH244613   3.192   5.179   5.761  0.5559 -0.4597 -0.1946
 7733TIP3    H144614   3.192   5.190   5.666  1.8996  0.7109 -0.0898
 7733TIP3    H244615   3.101   5.192   5.788  0.3054 -0.0600 -1.2416
 7734TIP3   OH244616   4.820   5.102  12.308  0.7698  0.0597 -0.2371
 7734TIP3    H144617   4.820   5.138  12.397  1.9568 -0.5530  0.0210
 7734TIP3    H244618   4.742   5.046  12.304  0.2500  0.7518  0.1356
 7735TIP3   OH244619   4.110   2.459   3.771  0.1358 -0.1957  0.1634
 7735TIP3    H144620   4.206   2.460   3.768  0.1273  1.3621  0.0644
 7735TIP3    H244621   4.083   2.473   3.680 -0.1660  1.8587  0.5425
 7736TIP3   OH244622   5.928   1.639  16.378  0.3929  0.4309 -0.0059
 7736TIP3    H144623   5.952   1.616  16.467 -1.6682 -0.3280  0.3907
 7736TIP3    H244624   5.869   1.714  16.388 -1.6573 -1.0738 -0.5500
 7737TIP3   OH244625   0.732   5.597  14.903 -0.2071  0.8228  0.8511
 7737TIP3    H144626   0.708   5.505  14.914  1.0500  0.1543 -1.4862
 7737TIP3    H244627   0.649   5.644  14.901 -1.0729 -0.7037 -1.2623
 7738TIP3   OH244628   3.804   6.461  16.277 -0.6967 -0.0995 -0.3692
 7738TIP3    H144629   3.878   6.444  16.336 -0.5308  2.2976  0.1632
 7738TIP3    H244630   3.807   6.390  16.213  2.3633  0.2177 -0.6342
 7739TIP3   OH244631   1.601   2.846  14.649 -0.6289  0.1397 -0.5364
 7739TIP3    H144632   1.677   2.882  14.604  0.0810  0.5144  0.9487
 7739TIP3    H244633   1.589   2.759  14.609 -0.5965  0.8401 -2.0943
 7740TIP3   OH244634   5.759   5.085  10.552 -0.1712  0.5566 -0.1845
 7740TIP3    H144635   5.750   5.003  10.503  1.6653  1.2973 -1.8357
 7740TIP3    H244636   5.792   5.058  10.637 -0.9186 -0.5299 -0.2217
 7741TIP3   OH244637   4.868   4.744  11.806  0.7727  0.0140  0.2233
 7741TIP3    H144638   4.810   4.764  11.733  2.3623  0.1602 -1.0488
 7741TIP3    H244639   4.880   4.649  11.802 -0.9494 -0.2811  1.7205
 7742TIP3   OH244640   6.469   4.853   1.666  0.2370 -0.0014  0.3084
 7742TIP3    H144641   6.399   4.808   1.713 -0.3577 -0.8471 -1.3394
 7742TIP3    H244642   6.463   4.944   1.694 -0.9391 -0.2506  0.8718
 7743TIP3   OH244643   2.112   5.974   5.072  0.0589 -0.1754  0.3439
 7743TIP3    H144644   2.097   5.916   4.997  0.9170 -0.4383  0.3641
 7743TIP3    H244645   2.041   6.038   5.068  0.2225 -0.0592 -0.8236
 7744TIP3   OH244646   4.881   2.423   3.916 -0.5120  0.0940 -0.1342
 7744TIP3    H144647   4.829   2.496   3.951 -0.8081 -0.3040  0.2614
 7744TIP3    H244648   4.970   2.441   3.945 -0.6597  0.0659  0.3447
 7745TIP3   OH244649   5.841   2.671  14.776  0.0416  0.2300 -0.1323
 7745TIP3    H144650   5.796   2.735  14.721 -0.8524 -0.2399  0.0482
 7745TIP3    H244651   5.778   2.651  14.846  0.1248 -1.2082 -0.4577
 7746TIP3   OH244652   3.342   2.117   4.364 -0.3090  0.5391 -0.2403
 7746TIP3    H144653   3.322   2.054   4.295 -1.5934 -0.4872  1.0233
 7746TIP3    H244654   3.317   2.202   4.327 -3.0275 -0.2354 -0.3155
 7747TIP3   OH244655   1.876   6.308  15.988 -0.4913 -0.4608  0.4219
 7747TIP3    H144656   1.897   6.399  16.011  0.7800 -1.1975  2.3015
 7747TIP3    H244657   1.953   6.278  15.940 -0.6263 -0.7407  0.3835
 7748TIP3   OH244658   5.388   1.444  14.793 -0.8019 -0.2279 -0.6163
 7748TIP3    H144659   5.352   1.370  14.746 -2.8081  0.3720 -0.0801
 7748TIP3    H244660   5.393   1.514  14.728 -2.2874  0.1938 -0.3133
 7749TIP3   OH244661   5.504   3.612   0.750  0.1657  0.3296  0.0258
 7749TIP3    H144662   5.489   3.541   0.688  0.6013  0.3020 -0.0521
 7749TIP3    H244663   5.439   3.599   0.818  0.4470 -0.3249  0.1660
 7750TIP3   OH244664   4.747   6.531   0.271  0.3528 -0.1135 -0.5220
 7750TIP3    H144665   4.707   6.615   0.296 -0.1801 -0.2769 -0.8155
 7750TIP3    H244666   4.840   6.544   0.284  0.5833  1.5102 -3.3690
 7751TIP3   OH244667   6.213   1.480  16.607 -0.1456  0.1985 -0.9228
 7751TIP3    H144668   6.120   1.495  16.590  0.0295 -0.3074 -2.4855
 7751TIP3    H244669   6.215   1.414  16.675 -0.9297  0.2790 -0.8164
 7752TIP3   OH244670   0.298   6.658   4.793 -0.1924  0.1816 -0.3195
 7752TIP3    H144671   0.376   6.611   4.765 -0.0031  0.6402 -0.5710
 7752TIP3    H244672   0.299   6.739   4.742 -0.3721  0.5849  0.3107
 7753TIP3   OH244673   0.351   0.141   1.876  0.2565 -0.1608  0.1874
 7753TIP3    H144674   0.263   0.173   1.897  1.1228  0.8390  2.4351
 7753TIP3    H244675   0.356   0.145   1.781 -1.5448  1.3701  0.1273
 7754TIP3   OH244676   5.987   1.651  14.362  0.3493 -0.3397  0.2235
 7754TIP3    H144677   6.046   1.612  14.427 -0.6744 -2.6647 -0.1620
 7754TIP3    H244678   5.931   1.709  14.413  1.1642 -0.2433  1.0326
 7755TIP3   OH244679   0.664   2.718  15.796 -0.0352 -0.0617  0.0514
 7755TIP3    H144680   0.674   2.804  15.837 -1.6997  0.5395 -0.7644
 7755TIP3    H244681   0.727   2.718  15.724  1.0222 -0.1045  0.9741
 7756TIP3   OH244682   4.245   1.257   2.853 -0.2989  0.5307 -0.6951
 7756TIP3    H144683   4.275   1.348   2.850  0.0412  0.3954 -1.6791
 7756TIP3    H244684   4.183   1.249   2.781 -1.2173  0.2857  0.1181
 7757TIP3   OH244685   2.676   5.284   4.119  0.2366 -0.1333 -0.0663
 7757TIP3    H144686   2.713   5.201   4.150  0.5413  0.4773  1.2781
 7757TIP3    H244687   2.738   5.351   4.151  0.1265  0.5914 -1.3407
 7758TIP3   OH244688   0.347   6.639   1.954  0.2125 -0.6083  0.2548
 7758TIP3    H144689   0.350   6.735   1.949  0.1603 -0.6472 -0.7318
 7758TIP3    H244690   0.438   6.612   1.949  0.1315 -0.6722 -1.4800
 7759TIP3   OH244691   3.210   4.545  13.928  0.1448 -0.3700 -0.2637
 7759TIP3    H144692   3.298   4.575  13.950 -0.1702 -0.3830  1.0763
 7759TIP3    H244693   3.152   4.610  13.968 -0.4583 -0.5340 -0.8700
 7760TIP3   OH244694   1.599   0.076   5.746 -0.3533  0.3223  0.4948
 7760TIP3    H144695   1.519   0.035   5.712 -0.4968  0.2234  0.9477
 7760TIP3    H244696   1.628   0.017   5.816 -0.1063  0.5727  0.6024
 7761TIP3   OH244697   1.943   3.250   5.065 -0.4101  0.3102  0.0360
 7761TIP3    H144698   1.975   3.263   4.976  1.6784  1.9523  0.9795
 7761TIP3    H244699   1.946   3.155   5.078 -0.1132  0.1130 -1.4060
 7762TIP3   OH244700   2.798   0.103  12.545  0.0206  0.4894 -0.2637
 7762TIP3    H144701   2.839   0.121  12.629  1.3252 -1.0900 -0.5487
 7762TIP3    H244702   2.842   0.162  12.484  2.1177 -1.4292 -0.6280
 7763TIP3   OH244703   6.461   3.076   3.155  0.7440  0.3065  0.7111
 7763TIP3    H144704   6.379   3.031   3.135  1.5454 -1.5185  1.4538
 7763TIP3    H244705   6.490   3.111   3.070  0.2051 -0.7324  0.0903
 7764TIP3   OH244706   6.604   5.366  11.601  0.1703  0.2259 -0.2286
 7764TIP3    H144707   6.638   5.383  11.689  0.7630  1.4731 -0.6844
 7764TIP3    H244708   6.673   5.398  11.543 -0.3021 -0.4257 -1.1402
 7765TIP3   OH244709   5.449   3.008   5.560  0.7008 -1.1723  0.0393
 7765TIP3    H144710   5.366   3.016   5.607  0.7261 -1.9189  0.2135
 7765TIP3    H244711   5.433   2.940   5.494  0.1291  1.0641 -2.2070
 7766TIP3   OH244712   0.648   2.217   0.308 -0.4620 -0.0447 -0.0084
 7766TIP3    H144713   0.696   2.184   0.384  2.4864 -1.8938 -2.5583
 7766TIP3    H244714   0.590   2.144   0.283  0.9672 -0.7271 -1.4410
 7767TIP3   OH244715   2.882   1.260  16.473  0.2851 -0.1752 -0.5300
 7767TIP3    H144716   2.897   1.191  16.408  0.7934 -0.7262  0.1553
 7767TIP3    H244717   2.958   1.254  16.532  0.3712  1.0257 -0.5146
 7768TIP3   OH244718   4.455   5.746   1.293  0.4184  0.3011  0.6245
 7768TIP3    H144719   4.397   5.792   1.233  1.1929  0.0974 -0.3040
 7768TIP3    H244720   4.398   5.715   1.363 -0.2426  1.9877  0.8627
 7769TIP3   OH244721   3.458   4.232  13.584  0.4990  0.0743 -0.0240
 7769TIP3    H144722   3.367   4.220  13.558  0.5682  0.5891 -0.5165
 7769TIP3    H244723   3.501   4.150  13.557  0.5708  0.6088 -1.5812
 7770TIP3   OH244724   0.355   3.564   1.845  0.2540 -0.3192  0.2680
 7770TIP3    H144725   0.445   3.595   1.857  0.7830 -0.4456 -3.0406
 7770TIP3    H244726   0.312   3.633   1.795 -1.4145 -0.4116  1.5528
 7771TIP3   OH244727   0.983   4.536  12.213 -0.8439  0.4595  0.2621
 7771TIP3    H144728   1.061   4.583  12.184  0.2077 -1.3200  0.1584
 7771TIP3    H244729   0.999   4.445  12.189 -3.6358  0.3040 -1.1254
 7772TIP3   OH244730   4.033   6.125   5.119 -0.7715 -0.4175  0.5739
 7772TIP3    H144731   3.987   6.147   5.038 -1.1891  0.9235  1.1713
 7772TIP3    H244732   4.003   6.036   5.139 -0.6994 -0.7469 -0.7107
 7773TIP3   OH244733   1.227   2.094  16.603  0.1297  0.0525 -0.0668
 7773TIP3    H144734   1.156   2.126  16.658 -0.2259  1.0086 -1.0633
 7773TIP3    H244735   1.299   2.155  16.619  0.0124  0.3562 -0.6853
 7774TIP3   OH244736   3.540   3.163   3.172 -0.0693  0.2077 -0.1189
 7774TIP3    H144737   3.575   3.074   3.180 -1.7962 -0.3797  1.4432
 7774TIP3    H244738   3.481   3.159   3.097 -0.0752  0.0559 -0.1068
 7775TIP3   OH244739   0.315   2.083   0.807 -0.2179  0.2610  0.5324
 7775TIP3    H144740   0.265   2.113   0.883 -1.0583 -0.8227  0.4094
 7775TIP3    H244741   0.396   2.134   0.811 -0.1949  0.1321  2.2303
 7776TIP3   OH244742   2.701   0.692   1.994  0.7459  0.1530 -0.1352
 7776TIP3    H144743   2.664   0.700   2.082  0.5020  1.1131 -0.3270
 7776TIP3    H244744   2.795   0.689   2.008  0.8483  2.8546 -0.0047
 7777TIP3   OH244745   2.383   5.390  15.666 -0.2021  0.8687 -0.2436
 7777TIP3    H144746   2.347   5.430  15.587 -1.8468  0.0913  0.0833
 7777TIP3    H244747   2.341   5.436  15.738 -0.0508  0.4018  0.1479
 7778TIP3   OH244748   1.718   6.093  13.029 -0.2706  0.1385 -0.4882
 7778TIP3    H144749   1.721   6.158  13.099  0.4155  1.4829 -1.7267
 7778TIP3    H244750   1.628   6.059  13.032  0.3884 -1.5448  2.5220
 7779TIP3   OH244751   5.998   2.834   5.811  0.0460  0.7563  0.2509
 7779TIP3    H144752   5.975   2.925   5.827 -0.1013  0.7644  0.0002
 7779TIP3    H244753   6.057   2.811   5.882 -0.7016  0.7567  0.8787
 7780TIP3   OH244754   3.818   5.519   1.065  0.0539 -0.3787  0.2750
 7780TIP3    H144755   3.834   5.564   1.147  0.0689 -1.0840  0.6682
 7780TIP3    H244756   3.723   5.513   1.059  0.0673 -0.9091  0.5678
 7781TIP3   OH244757   0.613   2.148  16.030  0.7442  0.4284 -0.8473
 7781TIP3    H144758   0.623   2.207  15.956 -0.7125  2.0045  0.1882
 7781TIP3    H244759   0.543   2.186  16.082 -0.0162 -2.0554  0.0081
 7782TIP3   OH244760   4.972   2.351  16.907  0.1315  0.1206 -1.1145
 7782TIP3    H144761   4.965   2.268  16.955  0.0960  1.5255  1.4335
 7782TIP3    H244762   4.993   2.325  16.818 -1.8071 -2.7103 -0.8368
 7783TIP3   OH244763   1.971   3.510  13.268 -0.3590 -0.3496  0.3411
 7783TIP3    H144764   1.925   3.452  13.329 -0.8711  0.7082  0.9818
 7783TIP3    H244765   2.024   3.566  13.325 -0.3591  0.2307 -0.2321
 7784TIP3   OH244766   2.346   4.347   3.529 -0.6090 -0.3944  1.1236
 7784TIP3    H144767   2.323   4.392   3.447  0.2925 -0.2561  0.9391
 7784TIP3    H244768   2.264   4.342   3.577 -0.6605  1.8662  1.3465
 7785TIP3   OH244769   2.438   1.267   4.391  0.1030  0.5732 -0.2800
 7785TIP3    H144770   2.453   1.324   4.466  1.2162 -0.6224  0.4351
 7785TIP3    H244771   2.459   1.179   4.423  0.3460  0.0154 -1.9120
 7786TIP3   OH244772   1.207   5.301  14.460 -0.9465  0.2004  0.4188
 7786TIP3    H144773   1.209   5.318  14.366 -1.2642  0.3072  0.4313
 7786TIP3    H244774   1.137   5.357  14.493  0.4804  1.6610  1.0304
 7787TIP3   OH244775   4.630   4.542  13.633  0.3658 -0.2597  0.1253
 7787TIP3    H144776   4.672   4.629  13.632  1.1371 -0.6160  0.7507
 7787TIP3    H244777   4.541   4.558  13.602  1.1570  0.4142 -1.9190
 7788TIP3   OH244778   5.246   0.889  15.007  0.6809  0.1685  0.3200
 7788TIP3    H144779   5.174   0.866  15.065 -0.0962  0.2992 -0.5929
 7788TIP3    H244780   5.213   0.961  14.954  1.4336  0.1355 -0.2011
 7789TIP3   OH244781   0.345   0.202  14.417  0.1824  0.5007 -0.2030
 7789TIP3    H144782   0.430   0.232  14.449  0.8551 -1.5650  0.0154
 7789TIP3    H244783   0.295   0.184  14.497 -0.0872  0.6719 -0.3311
 7790TIP3   OH244784   1.587   2.294  17.172  0.7000  0.5746  0.7426
 7790TIP3    H144785   1.585   2.289  17.077  0.0579  0.4195  0.7637
 7790TIP3    H244786   1.660   2.354  17.191  1.8868 -0.6762  0.2184
 7791TIP3   OH244787   1.431   4.772   3.596 -0.2414 -0.2789 -0.0900
 7791TIP3    H144788   1.376   4.777   3.518 -0.2193 -0.0236 -0.0905
 7791TIP3    H244789   1.509   4.823   3.574  1.2670 -2.9712 -1.1014
 7792TIP3   OH244790   5.696   3.911  14.258 -0.3738 -0.0134  0.0087
 7792TIP3    H144791   5.643   3.870  14.190 -0.1494 -0.4998  0.1270
 7792TIP3    H244792   5.718   3.997  14.221 -0.6753 -0.0752 -0.3209
 7793TIP3   OH244793   1.200   2.688   4.406  0.0737 -0.4815 -0.3784
 7793TIP3    H144794   1.195   2.671   4.311 -0.7539  0.5423 -0.5305
 7793TIP3    H244795   1.292   2.679   4.427  0.3365 -0.2294 -1.3912
 7794TIP3   OH244796   2.966   2.962   4.832  0.3920 -0.4908  0.1690
 7794TIP3    H144797   2.919   3.012   4.765  3.5293  1.9889 -0.3207
 7794TIP3    H244798   3.007   2.890   4.785 -0.4965 -0.9569  0.1003
 7795TIP3   OH244799   6.561   6.386  11.325 -0.1908  0.3604  0.4698
 7795TIP3    H144800   6.620   6.461  11.336 -0.9096  0.7267  1.9472
 7795TIP3    H244801   6.609   6.312  11.364 -0.1516  0.3783  0.4545
 7796TIP3   OH244802   0.896   5.819   3.600 -0.2603 -0.3455  0.0812
 7796TIP3    H144803   0.908   5.725   3.588  0.8660 -0.3828  1.2645
 7796TIP3    H244804   0.983   5.851   3.626 -0.5559  1.0685 -0.6177
 7797TIP3   OH244805   3.562   4.589  12.115 -0.0508 -0.6172  0.1972
 7797TIP3    H144806   3.473   4.566  12.090 -0.1697  0.2197 -0.1886
 7797TIP3    H244807   3.608   4.505  12.124 -0.7657 -1.0309 -0.0116
 7798TIP3   OH244808   2.641   5.940  17.048  0.2083 -0.0331 -0.2653
 7798TIP3    H144809   2.686   6.019  17.077 -0.1291 -0.6808  2.1332
 7798TIP3    H244810   2.548   5.961  17.056  0.1148 -0.8284  0.9216
 7799TIP3   OH244811   1.900   4.966  15.716 -1.1050  0.0712 -0.0991
 7799TIP3    H144812   1.956   5.025  15.767 -1.2738  0.5550 -0.4704
 7799TIP3    H244813   1.811   4.985  15.746 -1.0920 -0.6544  0.4458
 7800TIP3   OH244814   5.833   5.069   5.142  0.2797  0.1639  0.0300
 7800TIP3    H144815   5.752   5.117   5.162  1.0939  2.1804 -1.3804
 7800TIP3    H244816   5.826   5.047   5.049  0.0573 -2.2523  0.5819
 7801TIP3   OH244817   2.341   2.327  14.789 -0.0815 -0.2092 -0.0243
 7801TIP3    H144818   2.260   2.353  14.833 -1.6726 -0.7146 -2.5477
 7801TIP3    H244819   2.410   2.374  14.835 -1.8337  0.3517  2.0779
 7802TIP3   OH244820   5.452   5.273   3.673 -0.1369 -0.1407  0.0650
 7802TIP3    H144821   5.454   5.193   3.725  3.0389 -0.9839 -1.2183
 7802TIP3    H244822   5.542   5.307   3.677 -0.8932  2.1344 -1.2336
 7803TIP3   OH244823   0.468   4.144  16.650 -0.1747 -0.3350 -0.5096
 7803TIP3    H144824   0.469   4.069  16.590 -0.1548 -2.5081  2.0711
 7803TIP3    H244825   0.560   4.172  16.655 -0.0974 -0.4894 -1.0883
 7804TIP3   OH244826   1.023   1.774  15.455  0.0174 -0.4703  0.2305
 7804TIP3    H144827   1.066   1.697  15.418 -0.2023 -0.5481  0.1342
 7804TIP3    H244828   1.007   1.751  15.546  0.4930 -0.3072  0.3534
 7805TIP3   OH244829   1.715   3.759  14.287 -0.3143  0.0739 -0.8924
 7805TIP3    H144830   1.808   3.764  14.310 -0.4812  0.4657 -0.2720
 7805TIP3    H244831   1.709   3.685  14.227  0.2353 -0.6487 -0.0865
 7806TIP3   OH244832   2.020   3.420  14.897  0.0309 -0.4384 -0.0460
 7806TIP3    H144833   1.970   3.497  14.923  0.7209  0.6220 -1.7286
 7806TIP3    H244834   2.042   3.376  14.979  0.8014  1.9289  1.0673
 7807TIP3   OH244835   1.251   0.548   1.187  0.2409  0.0422  0.8275
 7807TIP3    H144836   1.255   0.459   1.152  0.8891  0.4025 -0.0340
 7807TIP3    H244837   1.226   0.603   1.112 -0.9307  0.4883  1.5283
 7808TIP3   OH244838   6.558   5.425   2.132 -0.0719 -0.3366  0.0100
 7808TIP3    H144839   6.619   5.352   2.141  1.4127  0.8882  0.0705
 7808TIP3    H244840   6.587   5.490   2.196 -0.0571  1.1870 -1.5033
 7809TIP3   OH244841   2.797   0.857  13.512  1.2173 -0.5556 -0.3973
 7809TIP3    H144842   2.798   0.829  13.421 -0.6617  0.1695 -0.6543
 7809TIP3    H244843   2.712   0.899  13.524  1.6082 -0.2610  1.5735
 7810TIP3   OH244844   4.634   4.300  15.531  0.1216  0.2499 -0.0911
 7810TIP3    H144845   4.637   4.327  15.440 -0.8500  0.6788 -0.0019
 7810TIP3    H244846   4.540   4.293  15.551  0.3068  1.2256  1.1812
 7811TIP3   OH244847   2.253   5.926   2.757  0.2986  0.1783  0.1356
 7811TIP3    H144848   2.318   5.984   2.717  2.0428 -0.0696  2.5000
 7811TIP3    H244849   2.301   5.845   2.774 -1.1882 -0.7274  0.0574
 7812TIP3   OH244850   0.723   2.773  11.742  0.2456 -0.5959  0.2675
 7812TIP3    H144851   0.689   2.731  11.821  1.9138 -0.6355  0.9977
 7812TIP3    H244852   0.786   2.711  11.707  1.9603  0.7814  0.7763
 7813TIP3   OH244853   6.418   4.344  15.321  0.1413  0.5808 -0.9034
 7813TIP3    H144854   6.464   4.352  15.405  0.0523  2.1505 -0.9937
 7813TIP3    H244855   6.425   4.251  15.299  1.6584  0.4538 -0.0010
 7814TIP3   OH244856   0.119   2.712   0.720 -0.3381  0.2139  0.4792
 7814TIP3    H144857   0.065   2.644   0.679 -3.1148  2.0504  0.9565
 7814TIP3    H244858   0.092   2.712   0.812  3.2781 -1.4195  1.6212
 7815TIP3   OH244859   5.391   2.954   3.427 -0.1927  0.3828 -0.6007
 7815TIP3    H144860   5.458   2.938   3.493 -1.8942 -1.0176  0.8212
 7815TIP3    H244861   5.401   2.882   3.364  0.9016  1.2754 -1.4806
 7816TIP3   OH244862   5.727   6.613   3.289  0.1868  0.0458 -0.1078
 7816TIP3    H144863   5.716   6.628   3.383 -2.2179 -0.4214 -0.2968
 7816TIP3    H244864   5.811   6.568   3.282  0.9002  1.0283  1.7015
 7817TIP3   OH244865   5.331   2.461   5.404 -0.3189  0.0005 -0.1821
 7817TIP3    H144866   5.363   2.418   5.484  0.1578 -1.8544 -1.3356
 7817TIP3    H244867   5.251   2.413   5.382 -0.0076 -0.0241 -1.2595
 7818TIP3   OH244868   2.977   4.381  14.017  0.4579 -0.3844 -0.3977
 7818TIP3    H144869   2.949   4.347  13.931 -0.0065 -1.3266  0.1163
 7818TIP3    H244870   2.993   4.474  14.002  0.4741 -0.5661 -1.5365
 7819TIP3   OH244871   3.491   3.499   6.010 -0.0716  0.0013 -0.5734
 7819TIP3    H144872   3.422   3.555   6.045 -0.7971 -1.1313 -0.1691
 7819TIP3    H244873   3.511   3.535   5.924 -1.4184  0.1015 -0.8412
 7820TIP3   OH244874   4.699   3.575  12.607 -0.3828  0.2408  0.1892
 7820TIP3    H144875   4.707   3.602  12.515  0.0168  0.2109  0.2173
 7820TIP3    H244876   4.610   3.601  12.631 -0.4773  0.2801 -0.1979
 7821TIP3   OH244877   4.264   6.295   3.927  0.1273  0.1623  0.3094
 7821TIP3    H144878   4.237   6.205   3.949 -0.7754 -0.4107 -2.9290
 7821TIP3    H244879   4.355   6.300   3.958  0.6076 -2.2931 -0.5281
 7822TIP3   OH244880   4.877   2.698  17.235  0.7862  0.3343 -0.6994
 7822TIP3    H144881   4.949   2.661  17.185  2.3684  0.0403  1.7036
 7822TIP3    H244882   4.798   2.666  17.191  2.1096  0.0256 -2.9040
 7823TIP3   OH244883   3.085   3.856   3.566 -0.0039 -0.1447  0.0028
 7823TIP3    H144884   2.998   3.869   3.528 -0.4044  1.9508  1.5177
 7823TIP3    H244885   3.146   3.885   3.498 -0.6019  0.9095 -0.0948
 7824TIP3   OH244886   4.404   6.410  14.452  0.4732 -0.3429  0.5483
 7824TIP3    H144887   4.425   6.486  14.398  0.9607 -0.6004  0.3773
 7824TIP3    H244888   4.337   6.442  14.513  0.0734  0.0015 -0.0680
 7825TIP3   OH244889   5.523   3.438  17.231 -0.3323 -0.1133  0.0223
 7825TIP3    H144890   5.612   3.408  17.253  0.9429  2.7252 -0.9584
 7825TIP3    H244891   5.512   3.518  17.284 -1.3666  0.8507 -1.6165
 7826TIP3   OH244892   4.183   4.495   0.454 -0.4444 -0.0843 -0.4761
 7826TIP3    H144893   4.146   4.562   0.395 -1.3691  0.6459  0.9006
 7826TIP3    H244894   4.106   4.447   0.485  0.0948 -0.8338 -0.3086
 7827TIP3   OH244895   4.007   5.123  11.694 -0.8523  0.6133 -0.2489
 7827TIP3    H144896   4.042   5.178  11.623  0.7233 -1.0338 -0.7699
 7827TIP3    H244897   4.043   5.036  11.678 -1.3104 -0.0263  2.0044
 7828TIP3   OH244898   5.996   1.423   2.542 -0.4820 -0.6558  0.0463
 7828TIP3    H144899   5.907   1.442   2.572  0.0146 -0.5766  1.5463
 7828TIP3    H244900   6.046   1.500   2.568 -0.1063 -0.3766 -1.4601
 7829TIP3   OH244901   0.825   0.832  15.288 -0.1819 -0.4927 -0.0327
 7829TIP3    H144902   0.736   0.858  15.312 -0.4177 -0.5173 -0.8736
 7829TIP3    H244903   0.835   0.745  15.327  0.3589  0.5380  2.1774
 7830TIP3   OH244904   3.699   3.811  14.110 -0.4382  0.3129  0.4901
 7830TIP3    H144905   3.750   3.890  14.130 -0.9365  1.1288 -1.3061
 7830TIP3    H244906   3.730   3.786  14.023 -0.1989 -1.5645  1.1044
 7831TIP3   OH244907   6.231   3.229  13.937 -0.3486  0.6432  0.3133
 7831TIP3    H144908   6.186   3.313  13.922 -1.0713  0.1654 -0.2328
 7831TIP3    H244909   6.303   3.251  13.997 -0.9813  1.5214  0.7748
 7832TIP3   OH244910   5.558   1.081   5.376 -0.1971  0.0268 -0.5424
 7832TIP3    H144911   5.558   1.122   5.290  1.2714 -1.8849 -1.4998
 7832TIP3    H244912   5.488   1.015   5.372  0.8632 -1.0967 -0.8071
 7833TIP3   OH244913   2.687   1.130   6.643  0.2357  0.2946 -0.5244
 7833TIP3    H144914   2.651   1.048   6.676 -0.1571  0.6223 -0.1421
 7833TIP3    H244915   2.614   1.172   6.598  0.2083  0.8470  0.0380
 7834TIP3   OH244916   6.443   5.143   1.735  0.2907 -0.2681 -0.0257
 7834TIP3    H144917   6.398   5.169   1.815 -0.9544 -1.7428 -0.2188
 7834TIP3    H244918   6.446   5.222   1.682 -3.9856 -0.5241 -0.8745
 7835TIP3   OH244919   1.855   5.800   3.840  0.1189  0.0339  0.1543
 7835TIP3    H144920   1.914   5.725   3.846  0.5326  0.5108  2.7608
 7835TIP3    H244921   1.909   5.869   3.801  0.5362 -0.2404  0.2444
 7836TIP3   OH244922   5.601   2.417   5.566  0.1670  0.3880 -0.1569
 7836TIP3    H144923   5.563   2.480   5.627  0.0734  0.0597  0.1248
 7836TIP3    H244924   5.692   2.407   5.595  0.0530  0.0406  0.0840
 7837TIP3   OH244925   5.222   2.777   5.098  0.1764 -0.0207  0.6639
 7837TIP3    H144926   5.211   2.819   5.013  0.9497 -0.3541  0.3889
 7837TIP3    H244927   5.138   2.787   5.142 -0.0123  0.7442  0.1204
 7838TIP3   OH244928   3.206   0.209  11.475 -0.5330  0.5229 -0.6393
 7838TIP3    H144929   3.215   0.283  11.414 -0.9496 -0.4934 -1.9563
 7838TIP3    H244930   3.115   0.214  11.504 -0.5707  0.5164 -0.7537
 7839TIP3   OH244931   3.107   2.550  12.752  0.1421  0.2325 -0.5640
 7839TIP3    H144932   3.202   2.544  12.745  0.5014  2.9784  0.9646
 7839TIP3    H244933   3.090   2.643  12.772 -2.8739 -0.1353 -1.1008
 7840TIP3   OH244934   4.321   5.087  11.629 -0.5210 -0.2305  0.4909
 7840TIP3    H144935   4.324   5.077  11.534 -0.6330 -0.6707  0.5350
 7840TIP3    H244936   4.230   5.106  11.648 -0.8625 -1.9867  0.6907
 7841TIP3   OH244937   1.661   3.845  13.628 -0.1605  0.0978 -0.5173
 7841TIP3    H144938   1.608   3.908  13.677  1.1396  0.9436 -0.1623
 7841TIP3    H244939   1.662   3.767  13.684  0.4396  0.6949  0.3174
 7842TIP3   OH244940   0.953   5.713  11.646 -0.3877 -0.6222 -0.2509
 7842TIP3    H144941   1.026   5.651  11.633  1.3453  1.4773 -0.9118
 7842TIP3    H244942   0.926   5.700  11.737  0.1383 -2.1456 -0.3032
 7843TIP3   OH244943   4.398   6.332   6.475  0.3900  0.2497  0.0883
 7843TIP3    H144944   4.380   6.423   6.449 -1.4479 -0.1315 -0.0553
 7843TIP3    H244945   4.453   6.341   6.553  3.1709  1.4232 -1.9545
 7844TIP3   OH244946   5.664   4.138  16.592  0.7200 -0.7144 -0.1901
 7844TIP3    H144947   5.579   4.165  16.628  0.9842 -1.0224  0.6918
 7844TIP3    H244948   5.728   4.177  16.651  1.1920 -0.4710 -0.8651
 7845TIP3   OH244949   6.381   3.675   3.387  0.6214  0.4843 -0.0828
 7845TIP3    H144950   6.380   3.583   3.360  0.3440  0.2124  0.8282
 7845TIP3    H244951   6.361   3.672   3.481 -1.4485  1.6154 -0.4611
 7846TIP3   OH244952   5.064   0.461   5.761  0.0143 -0.5607 -0.1946
 7846TIP3    H144953   5.046   0.368   5.744  0.0121 -0.4613 -0.7308
 7846TIP3    H244954   4.977   0.501   5.770 -0.0060 -0.4058 -1.0580
 7847TIP3   OH244955   3.404   2.192  12.043  0.5161 -0.5996 -0.1014
 7847TIP3    H144956   3.398   2.231  11.956  0.3297 -1.0104 -0.2737
 7847TIP3    H244957   3.313   2.179  12.070  0.5135  1.8945  1.2277
 7848TIP3   OH244958   5.188   0.677   3.199  0.1423 -0.0730  0.0500
 7848TIP3    H144959   5.114   0.618   3.214  0.8742 -1.2506 -0.8328
 7848TIP3    H244960   5.148   0.763   3.187 -1.0488 -0.5953  0.1489
 7849TIP3   OH244961   1.998   0.692   0.915 -0.0045 -0.0006  0.2281
 7849TIP3    H144962   2.067   0.667   0.976  0.4562  1.1768  0.2157
 7849TIP3    H244963   2.044   0.711   0.834 -0.3544  0.6541  0.1810
 7850TIP3   OH244964   1.398   4.774   0.047 -0.3016 -0.3461 -0.2549
 7850TIP3    H144965   1.413   4.866   0.028 -1.5762 -0.4714 -2.0145
 7850TIP3    H244966   1.434   4.761   0.135 -0.2512  1.8443  0.0670
 7851TIP3   OH244967   4.989   0.695   2.912 -0.1371  0.5383  0.5080
 7851TIP3    H144968   4.961   0.623   2.855 -2.7689  1.1972  0.9036
 7851TIP3    H244969   5.000   0.655   2.998 -0.6796  0.4155  0.5241
 7852TIP3   OH244970   5.345   1.236  15.109  0.2907 -0.8912  0.0106
 7852TIP3    H144971   5.343   1.300  15.037  0.2292  0.0493  0.8377
 7852TIP3    H244972   5.288   1.165  15.079 -1.1802  0.3153 -0.1160
 7853TIP3   OH244973   4.242   4.455   3.517 -0.1680  0.3791  0.0007
 7853TIP3    H144974   4.238   4.514   3.441  3.0031 -0.3704 -0.8275
 7853TIP3    H244975   4.290   4.379   3.485 -2.9170 -2.0455  1.5052
 7854TIP3   OH244976   1.629   0.671   6.476  0.3008 -0.0349  0.6902
 7854TIP3    H144977   1.719   0.638   6.484 -0.4867 -1.6925  3.1890
 7854TIP3    H244978   1.574   0.595   6.494 -1.5981  1.2314  0.2799
 7855TIP3   OH244979   2.036   4.006   4.864 -0.2611 -0.1074  0.0563
 7855TIP3    H144980   1.944   4.005   4.837 -0.4762  2.2511  0.6018
 7855TIP3    H244981   2.034   3.983   4.956  0.0362 -3.3108 -0.6729
 7856TIP3   OH244982   2.363   5.299  12.793  0.6441 -0.5293 -0.4963
 7856TIP3    H144983   2.384   5.281  12.884 -0.1801  0.5920 -0.0766
 7856TIP3    H244984   2.268   5.314  12.792  1.0176  1.9752 -1.0964
 7857TIP3   OH244985   2.580   6.207   1.742  0.3785  0.5624 -0.4798
 7857TIP3    H144986   2.526   6.273   1.785 -0.8413 -0.4553 -0.4259
 7857TIP3    H244987   2.556   6.125   1.783  2.7255  0.1903  0.2671
 7858TIP3   OH244988   4.648   4.107   3.452  0.6584  0.3700 -0.1135
 7858TIP3    H144989   4.605   4.170   3.394  2.1654  1.4184 -0.0909
 7858TIP3    H244990   4.590   4.030   3.450 -0.2467  1.0689 -1.5589
 7859TIP3   OH244991   0.426   1.705   5.403 -0.2070  0.4709  0.1274
 7859TIP3    H144992   0.378   1.756   5.338 -1.5958  1.2895  1.7872
 7859TIP3    H244993   0.506   1.755   5.419  0.6265 -0.2299 -1.6464
 7860TIP3   OH244994   3.359   1.748  16.563 -0.3935  0.1881 -0.1156
 7860TIP3    H144995   3.452   1.766  16.554 -0.0690  0.1709  2.7696
 7860TIP3    H244996   3.324   1.823  16.610 -1.3982 -0.8421  0.8204
 7861TIP3   OH244997   6.513   1.530  13.511  0.1207 -0.1212 -0.0089
 7861TIP3    H144998   6.428   1.499  13.483 -0.2165 -0.2640  1.1329
 7861TIP3    H244999   6.516   1.622  13.484 -0.3634 -0.1377 -0.1053
 7862TIP3   OH245000   0.531   0.684   5.608  0.5523  0.5915 -0.6708
 7862TIP3    H145001   0.502   0.634   5.531  1.6619 -2.1046  0.5983
 7862TIP3    H245002   0.625   0.696   5.595  1.1597 -1.7188  1.2055
 7863TIP3   OH245003   0.566   0.646   4.806 -0.2317  0.2221  0.4288
 7863TIP3    H145004   0.598   0.727   4.845  0.2401  1.1124 -1.7629
 7863TIP3    H245005   0.638   0.615   4.751 -1.7582  0.3573 -1.7323
 7864TIP3   OH245006   4.016   4.154   5.611 -0.4264  0.7177  0.0402
 7864TIP3    H145007   3.959   4.156   5.534 -1.5312 -1.1452  0.7701
 7864TIP3    H245008   3.958   4.134   5.684  0.8314  0.9912  1.1524
 7865TIP3   OH245009   2.567   6.450  15.712 -0.0272  0.0105  0.7188
 7865TIP3    H145010   2.642   6.410  15.667 -0.6406 -0.3195 -0.0346
 7865TIP3    H245011   2.605   6.508  15.777  0.8924  0.9956 -0.6842
 7866TIP3   OH245012   4.719   3.064  13.354  0.0196  0.4545 -0.0520
 7866TIP3    H145013   4.664   2.989  13.329 -1.4044  1.3568  0.3065
 7866TIP3    H245014   4.784   3.070  13.283  0.6715 -1.5975  0.3235
 7867TIP3   OH245015   3.408   1.159   3.066  1.0778 -0.0933 -0.3694
 7867TIP3    H145016   3.495   1.184   3.036  1.3192 -0.1110  0.3048
 7867TIP3    H245017   3.410   1.174   3.161  0.5889 -0.7962 -0.2419
 7868TIP3   OH245018   1.381   1.340  11.510  0.0092 -0.4338 -0.4755
 7868TIP3    H145019   1.313   1.407  11.511  2.5070  2.2158 -0.5094
 7868TIP3    H245020   1.415   1.339  11.599  1.1390 -0.4294 -0.8955
 7869TIP3   OH245021   6.449   0.331  12.730  0.0406 -0.1294 -0.2608
 7869TIP3    H145022   6.364   0.287  12.724  1.2514 -2.5717 -0.1186
 7869TIP3    H245023   6.442   0.403  12.667 -2.2781 -0.0072  0.0741
 7870TIP3   OH245024   2.697   1.747  14.357  0.3507  0.3764 -0.2702
 7870TIP3    H145025   2.778   1.722  14.314 -0.9846  0.5871 -3.0215
 7870TIP3    H245026   2.702   1.843  14.365  1.6977  0.1395  2.4576
 7871TIP3   OH245027   3.176   0.426   4.323  0.3914 -0.4488 -0.4947
 7871TIP3    H145028   3.105   0.416   4.386  0.7548  0.9809  0.1697
 7871TIP3    H245029   3.199   0.519   4.327  1.1563 -0.5477 -1.9432
 7872TIP3   OH245030   2.663   1.574   3.930 -0.3725  0.2203  0.2246
 7872TIP3    H145031   2.569   1.564   3.941 -0.5726 -0.9973 -2.2902
 7872TIP3    H245032   2.674   1.655   3.881 -0.0788  0.6105  0.9277
 7873TIP3   OH245033   3.642   4.050  12.110 -0.3760 -0.8173 -0.0826
 7873TIP3    H145034   3.682   4.134  12.089 -1.8501  0.3514  1.6790
 7873TIP3    H245035   3.698   3.985  12.067  1.5152  0.9723 -0.3672
 7874TIP3   OH245036   6.570   1.682  11.438  0.1205  0.1279  0.0521
 7874TIP3    H145037   6.623   1.720  11.367  0.4073  0.9324  0.6880
 7874TIP3    H245038   6.490   1.734  11.438 -0.8251 -1.2951 -1.1181
 7875TIP3   OH245039   2.360   0.572   2.687 -0.0395 -0.2126 -0.2978
 7875TIP3    H145040   2.305   0.558   2.610  2.2513 -0.1465 -1.9843
 7875TIP3    H245041   2.422   0.499   2.687 -1.0026 -1.1175  2.4163
 7876TIP3   OH245042   1.683   6.525   1.218 -0.2316  0.1272  0.1006
 7876TIP3    H145043   1.714   6.435   1.205  0.5143  0.2070  1.2875
 7876TIP3    H245044   1.743   6.578   1.165  0.6939  0.1240  1.1222
 7877TIP3   OH245045   2.846   0.225   3.871 -0.5727 -0.3718 -0.3070
 7877TIP3    H145046   2.776   0.241   3.934 -1.5510 -0.2907 -1.4054
 7877TIP3    H245047   2.831   0.288   3.801 -0.7733 -1.8626 -1.6460
 7878TIP3   OH245048   1.156   1.648   0.266 -0.1401 -0.2211  0.1442
 7878TIP3    H145049   1.090   1.659   0.334 -0.4006  2.3804 -0.4585
 7878TIP3    H245050   1.212   1.726   0.275  1.6465 -1.3942 -0.6338
 7879TIP3   OH245051   5.575   2.186   3.454 -0.1114 -0.0667 -0.2772
 7879TIP3    H145052   5.498   2.155   3.502  0.1045 -1.7421 -0.9739
 7879TIP3    H245053   5.621   2.242   3.516 -1.7140  0.6936  0.2623
 7880TIP3   OH245054   4.808   1.575  11.936  0.0156  0.3447 -0.0402
 7880TIP3    H145055   4.866   1.633  11.985 -1.1255  1.5220 -0.0756
 7880TIP3    H245056   4.868   1.518  11.887  1.1470  1.0274  0.5273
 7881TIP3   OH245057   2.311   4.742   5.076 -0.4171 -0.0046 -0.2373
 7881TIP3    H145058   2.282   4.651   5.076  1.9488 -0.8079  1.1731
 7881TIP3    H245059   2.359   4.752   4.994  0.0238 -0.2884 -0.0187
 7882TIP3   OH245060   5.770   4.657  12.376 -0.2390 -0.0527 -0.0897
 7882TIP3    H145061   5.746   4.749  12.369 -2.8462 -0.8624 -2.4576
 7882TIP3    H245062   5.687   4.611  12.385  1.0453 -2.1774  1.3316
 7883TIP3   OH245063   6.239   2.227  12.800  0.2014 -0.1988 -0.0811
 7883TIP3    H145064   6.310   2.167  12.777 -0.3911 -0.6367 -0.7951
 7883TIP3    H245065   6.159   2.176  12.786 -0.2515  0.1707  1.0629
 7884TIP3   OH245066   5.866   5.972   5.679 -0.0231  0.3264 -0.1889
 7884TIP3    H145067   5.794   6.035   5.674 -0.1253  0.1128 -1.5880
 7884TIP3    H245068   5.861   5.936   5.768 -2.9682 -1.2432 -0.9250
 7885TIP3   OH245069   0.330   5.988   3.604  0.3845  0.0666  0.0669
 7885TIP3    H145070   0.259   5.932   3.574  0.6835 -0.1827 -0.1846
 7885TIP3    H245071   0.358   6.036   3.526  0.5586  0.0922  0.1439
 7886TIP3   OH245072   1.888   6.650  17.022 -0.1276  0.2482 -0.5112
 7886TIP3    H145073   1.892   6.723  17.085  0.4648 -0.0984 -0.1446
 7886TIP3    H245074   1.919   6.688  16.940  2.4886 -0.1911  0.2413
 7887TIP3   OH245075   6.725   6.277   0.059 -0.2139 -0.0311 -0.2049
 7887TIP3    H145076   6.793   6.220   0.021 -1.7670 -0.7637 -1.9623
 7887TIP3    H245077   6.662   6.289  -0.012 -1.4855  1.3499  1.1405
 7888TIP3   OH245078   0.713   4.121  11.356 -0.1276  0.5460 -0.0590
 7888TIP3    H145079   0.706   4.095  11.448  1.2251 -0.6119 -0.2626
 7888TIP3    H245080   0.807   4.130  11.341 -0.2176 -0.9944 -1.7974
 7889TIP3   OH245081   6.340   4.272  13.587  0.0330 -0.2076  0.2477
 7889TIP3    H145082   6.381   4.234  13.665 -1.1427 -0.5887  0.6937
 7889TIP3    H245083   6.364   4.213  13.516 -0.1277 -0.6833  0.5857
 7890TIP3   OH245084   0.235   4.463   0.765 -0.5385 -0.6277 -0.1356
 7890TIP3    H145085   0.292   4.531   0.729  1.4429 -2.7253 -1.0699
 7890TIP3    H245086   0.196   4.503   0.842  1.5043  1.1947  0.0081
 7891TIP3   OH245087   1.225   3.281  15.438  0.3744  0.1033  0.3728
 7891TIP3    H145088   1.221   3.216  15.507 -1.2389 -1.4449 -1.1398
 7891TIP3    H245089   1.261   3.234  15.363 -0.0285  1.1538 -0.4920
 7892TIP3   OH245090   5.849   4.119  15.726  0.0577 -0.7181  0.4973
 7892TIP3    H145091   5.911   4.098  15.656 -1.2595 -0.6988 -0.6832
 7892TIP3    H245092   5.819   4.208  15.706  0.7943 -0.1294  1.9278
 7893TIP3   OH245093   5.356   2.860  16.378 -0.0987  0.3941 -0.4368
 7893TIP3    H145094   5.393   2.918  16.312  2.1901 -0.9725 -0.4131
 7893TIP3    H245095   5.432   2.818  16.418 -1.6530 -1.9920  0.1013
 7894TIP3   OH245096   5.055   1.161  12.754 -0.0605  0.0261  0.0882
 7894TIP3    H145097   5.131   1.205  12.791  0.5819  0.3653 -1.5858
 7894TIP3    H245098   5.050   1.077  12.800  1.8602 -0.3742 -0.3767
 7895TIP3   OH245099   4.951   3.633   3.295  0.9086  0.4439  0.2861
 7895TIP3    H145100   4.871   3.669   3.334  1.2519  1.5304  0.0276
 7895TIP3    H245101   4.930   3.624   3.202  0.7744 -0.1560  0.3787
 7896TIP3   OH245102   3.984   3.249   5.660  0.1235 -0.0547 -0.1164
 7896TIP3    H145103   3.924   3.243   5.734  2.1177 -1.5012  1.4317
 7896TIP3    H245104   3.990   3.159   5.626  0.5814  0.2736 -0.9325
 7897TIP3   OH245105   4.186   5.247   0.843  0.2010  0.1582  0.2430
 7897TIP3    H145106   4.146   5.251   0.930 -2.2001 -0.9231 -0.7377
 7897TIP3    H245107   4.185   5.338   0.812 -0.2840  0.3409  0.7785
 7898TIP3   OH245108   6.650   2.393   0.872  0.1835  0.1175 -0.4814
 7898TIP3    H145109   6.595   2.348   0.807 -0.2933 -2.0367  1.3658
 7898TIP3    H245110   6.710   2.326   0.904 -0.2342  0.8855  2.0071
 7899TIP3   OH245111   1.051   1.660  14.735 -0.0659  0.0448  0.1928
 7899TIP3    H145112   1.078   1.736  14.787  0.3207 -0.7928  1.2099
 7899TIP3    H245113   1.007   1.602  14.797  0.9333 -1.2359 -0.2744
 7900TIP3   OH245114   6.288   5.620  15.792  0.0295 -0.6390  0.0246
 7900TIP3    H145115   6.195   5.605  15.811  0.2554 -1.3466  0.5618
 7900TIP3    H245116   6.293   5.615  15.696 -0.3599 -1.3250  0.0359
 7901TIP3   OH245117   0.251   4.991  12.292  0.0921  0.2683  0.1918
 7901TIP3    H145118   0.244   5.076  12.336  0.4457  0.8851 -0.9513
 7901TIP3    H245119   0.272   4.929  12.363 -0.1057  1.1323  1.0125
 7902TIP3   OH245120   0.875   1.489   2.567 -0.1037 -0.0424 -0.4524
 7902TIP3    H145121   0.796   1.523   2.526 -1.0718 -2.3573 -0.5917
 7902TIP3    H245122   0.917   1.437   2.498 -1.4616 -3.5112  1.2021
 7903TIP3   OH245123   3.355   3.348  16.992  0.6676  0.0437  0.2086
 7903TIP3    H145124   3.360   3.406  16.916 -1.4785  0.2416  0.1853
 7903TIP3    H245125   3.404   3.270  16.966 -1.9525 -0.8584 -2.3314
 7904TIP3   OH245126   6.297   4.515   2.390 -0.2443 -1.0323 -0.0156
 7904TIP3    H145127   6.280   4.420   2.390 -2.7152 -0.6521 -1.3817
 7904TIP3    H245128   6.212   4.553   2.413  0.0697  0.9142 -1.9695
 7905TIP3   OH245129   1.495   1.516  10.464  0.2328 -0.8145 -0.1727
 7905TIP3    H145130   1.576   1.469  10.484  1.1350  0.7202 -0.0705
 7905TIP3    H245131   1.461   1.542  10.549  1.2502  1.1291 -0.3278
 7906TIP3   OH245132   5.967   5.896   2.126 -0.2777 -0.1799  0.1564
 7906TIP3    H145133   6.017   5.889   2.207 -1.4877  1.5576  1.0703
 7906TIP3    H245134   6.024   5.857   2.059  1.0273 -0.9482  1.6985
 7907TIP3   OH245135   5.518   1.908   1.610 -0.1946  0.7546  0.0989
 7907TIP3    H145136   5.582   1.970   1.645  1.6839 -1.2370  0.3011
 7907TIP3    H245137   5.475   1.871   1.687  0.9733 -0.5281  0.1639
 7908TIP3   OH245138   4.509   0.177   1.533  0.1846 -0.3750 -0.0078
 7908TIP3    H145139   4.575   0.242   1.557 -1.3142  0.0013  3.4351
 7908TIP3    H245140   4.506   0.117   1.608 -1.9035 -1.5852 -1.0005
 7909TIP3   OH245141   5.461   4.186  11.823 -0.0071  0.2981 -0.1716
 7909TIP3    H145142   5.405   4.112  11.842 -0.5268  0.1096 -2.2654
 7909TIP3    H245143   5.402   4.261  11.819  0.0745  0.3263 -0.9886
 7910TIP3   OH245144   1.705   1.209   3.794  0.3942  0.5203 -0.0010
 7910TIP3    H145145   1.779   1.149   3.796 -0.4279 -0.5257 -0.5851
 7910TIP3    H245146   1.633   1.160   3.832 -0.0163  1.5193  0.5294
 7911TIP3   OH245147   6.508   2.520   1.858 -0.2972  0.2023  0.0675
 7911TIP3    H145148   6.443   2.584   1.888  1.3327  1.5474  0.7788
 7911TIP3    H245149   6.534   2.474   1.938 -0.0289 -0.0050 -0.1382
 7912TIP3   OH245150   4.334   1.183  12.367  0.2440  0.2124 -0.1692
 7912TIP3    H145151   4.261   1.122  12.364 -0.0018  0.5155 -0.3054
 7912TIP3    H245152   4.312   1.250  12.303  0.3830  0.5960  0.1846
 7913TIP3   OH245153   2.918   2.921   4.281  0.0108 -0.2181  0.4051
 7913TIP3    H145154   2.896   2.833   4.251  0.1228 -0.8724  2.1392
 7913TIP3    H245155   2.843   2.947   4.336  0.5298  0.2592  0.8999
 7914TIP3   OH245156   6.713   0.485   4.631 -0.2903  0.0577  0.3784
 7914TIP3    H145157   6.768   0.412   4.601 -0.3662  0.6388 -1.2634
 7914TIP3    H245158   6.699   0.469   4.724  1.9149 -0.5948  0.6180
 7915TIP3   OH245159   4.138   4.409  16.786  0.4985  0.6731 -0.3745
 7915TIP3    H145160   4.076   4.479  16.806 -0.9824  0.5160 -4.0522
 7915TIP3    H245161   4.087   4.328  16.792  0.8406  0.3717 -1.3191
 7916TIP3   OH245162   0.393   6.289  16.476 -0.2074  0.2639 -0.3914
 7916TIP3    H145163   0.398   6.381  16.448 -1.5405  0.2824 -0.6140
 7916TIP3    H245164   0.381   6.294  16.571 -1.4958  0.3676 -0.5488
 7917TIP3   OH245165   2.866   1.198   2.888  0.0822  0.3594  0.1100
 7917TIP3    H145166   2.940   1.162   2.840  1.1138  1.3811  0.9040
 7917TIP3    H245167   2.886   1.180   2.980 -1.3159 -0.5669  0.2447
 7918TIP3   OH245168   4.570   5.186  12.668 -0.7091  0.0442 -0.1231
 7918TIP3    H145169   4.495   5.164  12.724  0.4567  2.1228  2.4063
 7918TIP3    H245170   4.537   5.253  12.608 -0.8809  1.0330  1.0559
 7919TIP3   OH245171   3.209   2.799   0.182 -0.6549 -0.1226  0.2175
 7919TIP3    H145172   3.114   2.789   0.178 -1.0062  2.6473  0.7112
 7919TIP3    H245173   3.231   2.852   0.106  0.4805 -0.6962  0.1446
 7920TIP3   OH245174   5.076   6.582   2.023 -0.1530 -0.1768 -0.8427
 7920TIP3    H145175   5.170   6.569   2.039  0.0748  0.6181 -1.5402
 7920TIP3    H245176   5.047   6.498   1.987  0.7382  0.2449 -2.6350
 7921TIP3   OH245177   3.065   0.329  10.862 -0.1075  0.0702  0.2470
 7921TIP3    H145178   3.055   0.292  10.774 -0.4412 -0.1189  0.3652
 7921TIP3    H245179   3.036   0.259  10.920  0.5012  0.0453  0.5265
 7922TIP3   OH245180   5.891   1.247  15.368  0.6045  0.4025  0.1599
 7922TIP3    H145181   5.875   1.153  15.366 -1.8379  0.8119 -2.0379
 7922TIP3    H245182   5.804   1.286  15.361  1.6817  2.8172 -0.1675
 7923TIP3   OH245183   2.101   0.047   0.581 -0.3769 -0.0109 -0.0957
 7923TIP3    H145184   2.144   0.071   0.663 -0.5815  1.8826 -0.5222
 7923TIP3    H245185   2.173   0.026   0.522 -0.1819 -0.2572  0.2254
 7924TIP3   OH245186   2.101   1.803  12.687 -0.2229 -0.1722  0.2095
 7924TIP3    H145187   2.157   1.847  12.751 -1.9728  2.2024  0.1664
 7924TIP3    H245188   2.073   1.723  12.730 -0.1419  0.6550  1.8161
 7925TIP3   OH245189   5.579   1.503  13.701 -0.1475 -0.4480 -0.2453
 7925TIP3    H145190   5.531   1.558  13.764 -0.1183 -0.4112 -0.2560
 7925TIP3    H245191   5.516   1.437  13.674  0.0291 -0.8487  0.3082
 7926TIP3   OH245192   5.319   1.936   5.173 -0.3333  0.0265 -0.0660
 7926TIP3    H145193   5.406   1.977   5.172 -0.1271 -0.3881  0.4770
 7926TIP3    H245194   5.262   1.999   5.129 -0.1237  1.1244  1.2170
 7927TIP3   OH245195   1.484   4.692  12.061 -0.9674 -0.1206 -0.1036
 7927TIP3    H145196   1.496   4.720  12.151 -0.6835  0.1048 -0.2087
 7927TIP3    H245197   1.551   4.624  12.048 -2.3245 -1.6033  0.4658
 7928TIP3   OH245198   3.827   0.398  14.450 -0.1321  0.3498  0.4043
 7928TIP3    H145199   3.899   0.456  14.426  1.0006 -0.8033  0.9510
 7928TIP3    H245200   3.860   0.310  14.431 -1.9689 -0.1056 -0.7864
 7929TIP3   OH245201   4.273   0.040  15.326 -0.5240  0.5967  0.2513
 7929TIP3    H145202   4.207  -0.029  15.325  0.4902 -0.3987  1.0362
 7929TIP3    H245203   4.350  -0.000  15.288  0.4980  0.8626  1.9952
 7930TIP3   OH245204   2.583   4.005  17.153  0.4182 -0.2199  0.0162
 7930TIP3    H145205   2.555   4.011  17.062  1.1739 -0.8039 -0.2527
 7930TIP3    H245206   2.612   3.915  17.164 -2.1380 -0.9043  1.5518
 7931TIP3   OH245207   3.840   5.917   1.239  0.4666 -0.0311 -0.6865
 7931TIP3    H145208   3.813   5.902   1.148  1.0702  0.4102 -0.9439
 7931TIP3    H245209   3.893   5.997   1.235 -0.7418  0.8324  0.2804
 7932TIP3   OH245210   2.491   2.465  15.197 -0.0397 -0.1545  0.4958
 7932TIP3    H145211   2.533   2.519  15.264  1.1849 -2.7120  1.8443
 7932TIP3    H245212   2.399   2.462  15.222  0.5942 -1.9817  2.7505
 7933TIP3   OH245213   6.161   1.953  12.860 -0.4125 -0.3101 -0.3588
 7933TIP3    H145214   6.111   1.977  12.782 -1.8889 -0.2865  0.5802
 7933TIP3    H245215   6.201   1.868  12.837 -0.8153 -0.2967 -1.1344
 7934TIP3   OH245216   2.484   3.681  14.056 -0.0645 -0.7187 -0.3153
 7934TIP3    H145217   2.447   3.764  14.025  1.7429  0.1825 -0.1134
 7934TIP3    H245218   2.570   3.705  14.090  0.2697 -2.6152  0.1915
 7935TIP3   OH245219   5.914   4.855  15.080  0.5678 -0.1313  0.5668
 7935TIP3    H145220   5.994   4.868  15.029 -1.0564  1.4467 -1.7189
 7935TIP3    H245221   5.916   4.763  15.105  3.4709  0.0796  1.2603
 7936TIP3   OH245222   4.967   0.853   0.261 -0.1092  0.5760 -0.5666
 7936TIP3    H145223   5.032   0.813   0.203 -0.6625 -0.3362 -0.5531
 7936TIP3    H245224   4.883   0.820   0.230 -0.4912  0.9242  0.0874
 7937TIP3   OH245225   2.003   6.004  15.590 -0.1588 -0.0386 -0.2350
 7937TIP3    H145226   1.926   5.947  15.592 -1.2991  1.5143  0.5212
 7937TIP3    H245227   1.990   6.061  15.515  0.2792  0.1970 -0.1358
 7938TIP3   OH245228   5.420   0.388   0.175 -0.5366 -0.0175  0.2562
 7938TIP3    H145229   5.446   0.465   0.224  1.1118 -1.0462  1.0210
 7938TIP3    H245230   5.458   0.400   0.088  1.8123 -1.0695  1.0886
 7939TIP3   OH245231   5.513   6.418  12.165  0.1326 -0.7853 -0.6177
 7939TIP3    H145232   5.435   6.442  12.214 -0.1701 -2.4646 -0.2455
 7939TIP3    H245233   5.482   6.404  12.075  0.3548  0.4263 -0.8936
 7940TIP3   OH245234   4.088   6.146   1.439  0.1949  0.0533 -0.0704
 7940TIP3    H145235   4.136   6.065   1.425 -0.2228 -0.3609  0.8156
 7940TIP3    H245236   4.028   6.152   1.365  0.7437 -0.0548 -0.5327
 7941TIP3   OH245237   0.673   5.883  13.020  0.2902 -0.1804 -0.1510
 7941TIP3    H145238   0.725   5.804  13.004  2.8838  1.7747 -1.8852
 7941TIP3    H245239   0.594   5.871  12.967  0.8026 -1.5112 -0.6195
 7942TIP3   OH245240   3.866   5.032  13.965  0.3933  0.1759 -0.7706
 7942TIP3    H145241   3.886   4.938  13.967 -0.7442 -0.0473  0.3456
 7942TIP3    H245242   3.951   5.074  13.956  1.0049 -0.9285 -0.2877
 7943TIP3   OH245243   3.256   3.369  12.412  0.3288 -0.2180 -0.0672
 7943TIP3    H145244   3.254   3.361  12.508  1.5525  0.7750  0.0558
 7943TIP3    H245245   3.335   3.420  12.394 -0.4096  0.4263 -1.5590
 7944TIP3   OH245246   4.019   3.426  11.329 -0.5869 -0.1219 -0.3314
 7944TIP3    H145247   3.969   3.398  11.251 -1.7661  1.4716 -0.1640
 7944TIP3    H245248   4.021   3.521  11.323  0.2586 -0.0470  1.0372
 7945TIP3   OH245249   0.016   0.234   4.495  0.0896  0.3359 -0.0179
 7945TIP3    H145250   0.093   0.182   4.472  0.4731  1.2730 -0.8685
 7945TIP3    H245251  -0.037   0.235   4.415  1.3498  3.4683 -0.8904
 7946TIP3   OH245252   4.200   5.080  14.707  0.2305 -0.3666 -0.1026
 7946TIP3    H145253   4.167   5.145  14.769  1.9095  0.9896 -0.5895
 7946TIP3    H245254   4.290   5.064  14.735  0.6863 -0.4637 -1.5928
 7947TIP3   OH245255   2.015   6.442  13.318 -0.9159  0.1772  0.1237
 7947TIP3    H145256   2.061   6.384  13.380 -0.8836  0.0800  0.0105
 7947TIP3    H245257   1.933   6.463  13.362 -0.8408  0.2053  0.2513
 7948TIP3   OH245258   6.535   1.984  16.396 -0.1385  0.4889 -0.0302
 7948TIP3    H145259   6.478   2.047  16.440 -0.8808 -0.7096  0.7128
 7948TIP3    H245260   6.511   1.991  16.303  0.6119  2.1460 -0.1288
 7949TIP3   OH245261   1.210   1.658   1.626 -0.2750  0.5660 -0.0076
 7949TIP3    H145262   1.200   1.563   1.616  0.8171  0.4354  0.1209
 7949TIP3    H245263   1.243   1.688   1.542 -0.7872  0.8682 -0.1079
 7950TIP3   OH245264   0.676   4.045   3.605 -0.1528 -0.4365  0.4103
 7950TIP3    H145265   0.759   4.001   3.620 -0.2179 -0.4155  0.8493
 7950TIP3    H245266   0.696   4.138   3.614 -0.2662 -0.4421  0.7461
 7951TIP3   OH245267   3.685   3.381  15.418  0.3874  0.1763 -0.2433
 7951TIP3    H145268   3.737   3.451  15.457  1.2123 -0.5415 -0.0516
 7951TIP3    H245269   3.607   3.376  15.474  0.8432  0.1959  0.3973
 7952TIP3   OH245270   5.019   2.739  13.749  0.2792  0.5153  0.5343
 7952TIP3    H145271   5.028   2.667  13.686  0.6335  1.5101 -0.5919
 7952TIP3    H245272   5.095   2.730  13.807  2.0407  1.7508 -1.4847
 7953TIP3   OH245273   0.970   1.961  17.130  0.7230  0.1079  0.7916
 7953TIP3    H145274   0.931   1.908  17.200 -0.3705 -0.1762 -0.0054
 7953TIP3    H245275   0.947   2.051  17.151 -0.7317 -0.0923  0.1214
 7954TIP3   OH245276   0.720   5.590  11.499  0.2341 -0.0115 -0.2627
 7954TIP3    H145277   0.765   5.519  11.452 -0.6518 -0.8175  0.0759
 7954TIP3    H245278   0.790   5.638  11.543  0.9961  0.2584 -1.7297
 7955TIP3   OH245279   0.750   1.562  15.234  0.2828  0.0021  0.1517
 7955TIP3    H145280   0.824   1.606  15.192 -0.6595  1.4243 -0.0869
 7955TIP3    H245281   0.783   1.535  15.320  1.4347 -0.5032 -0.4363
 7956TIP3   OH245282   1.500   3.112  16.291 -0.4840  0.4578 -0.1504
 7956TIP3    H145283   1.509   3.200  16.256  0.4128  0.0211 -1.0406
 7956TIP3    H245284   1.519   3.054  16.217 -2.4912 -0.5051  0.0447
 7957TIP3   OH245285   6.292   0.965   3.585 -0.2069  0.6413 -0.5331
 7957TIP3    H145286   6.241   0.958   3.666  0.3507 -2.4346 -0.3929
 7957TIP3    H245287   6.285   1.057   3.561 -1.2878  1.4024  2.4222
 7958TIP3   OH245288   0.947   5.803   0.449  0.0304  0.1140  0.0925
 7958TIP3    H145289   0.870   5.764   0.490  0.1214 -1.3303 -1.0333
 7958TIP3    H245290   0.912   5.852   0.375  0.1882 -0.6238 -0.4775
 7959TIP3   OH245291   6.714   1.556   1.232  0.5129 -0.2217  0.5257
 7959TIP3    H145292   6.690   1.553   1.140  1.1581 -0.4355  0.3638
 7959TIP3    H245293   6.639   1.518   1.278  0.0251  0.2582  0.1241
 7960TIP3   OH245294   4.752   0.899  15.547 -0.4071 -0.1028 -0.0010
 7960TIP3    H145295   4.832   0.929  15.504 -0.2789 -0.3282  0.0744
 7960TIP3    H245296   4.695   0.976  15.551 -0.0796  0.1290  0.2033
 7961TIP3   OH245297   4.311   5.372   5.035  0.1549 -0.4669  0.5449
 7961TIP3    H145298   4.386   5.316   5.054 -0.6413 -1.9763 -0.6746
 7961TIP3    H245299   4.238   5.331   5.082  0.2241  1.5002  2.4840
 7962TIP3   OH245300   6.460   1.415  16.510 -0.1317 -0.3956  0.0079
 7962TIP3    H145301   6.375   1.448  16.538  1.0111  2.1356  0.5687
 7962TIP3    H245302   6.481   1.347  16.574 -1.3748 -0.5208  0.3047
 7963TIP3   OH245303   4.594   4.622  13.003 -0.6682 -0.0731 -0.0222
 7963TIP3    H145304   4.543   4.542  13.017  1.5258 -1.2410  1.6032
 7963TIP3    H245305   4.616   4.620  12.910 -1.2335 -0.9979 -0.1485
 7964TIP3   OH245306   4.187   2.537   4.844 -0.8378  0.3211 -0.4041
 7964TIP3    H145307   4.120   2.490   4.893 -0.2796 -0.4281 -0.3448
 7964TIP3    H245308   4.209   2.479   4.771  1.8081 -0.7928  1.1854
 7965TIP3   OH245309   1.461   0.253   3.140 -0.5944  0.6251 -0.0729
 7965TIP3    H145310   1.466   0.185   3.073 -4.2438  1.2127 -0.9858
 7965TIP3    H245311   1.457   0.335   3.091  0.5175  1.3176  0.9718
 7966TIP3   OH245312   4.843   4.505  11.317 -0.2865  0.0041 -0.1793
 7966TIP3    H145313   4.887   4.537  11.396  1.5018 -1.4026 -0.5909
 7966TIP3    H245314   4.852   4.410  11.321 -1.1088 -0.1418 -1.5573
 7967TIP3   OH245315   1.117   0.518  16.284  0.9300 -0.3136  0.2041
 7967TIP3    H145316   1.072   0.601  16.271  0.4879 -0.5599  0.1316
 7967TIP3    H245317   1.093   0.466  16.207  0.0156 -1.0317  0.9614
 7968TIP3   OH245318   0.936   6.507   1.070 -0.1854 -0.1191 -0.1413
 7968TIP3    H145319   0.920   6.428   1.122  2.3222  0.4518  1.5735
 7968TIP3    H245320   0.978   6.475   0.990  0.4715 -0.5787  0.3823
 7969TIP3   OH245321   0.346   5.946  14.784 -0.1188 -0.1975  0.4043
 7969TIP3    H145322   0.289   5.918  14.855  0.2225 -0.5079  0.5562
 7969TIP3    H245323   0.286   5.968  14.712 -0.4365 -0.3254  0.6307
 7970TIP3   OH245324   4.189   5.477   3.922  0.8710 -0.6672  0.2206
 7970TIP3    H145325   4.168   5.411   3.857  0.2673 -1.3153  1.0624
 7970TIP3    H245326   4.105   5.500   3.962  1.0182  0.8625 -0.3021
 7971TIP3   OH245327   5.997   5.306   0.515 -0.1939  0.2203 -0.1121
 7971TIP3    H145328   6.056   5.376   0.540  1.2974 -0.5158 -1.4286
 7971TIP3    H245329   5.952   5.339   0.437  0.1625 -0.0912 -0.4537
 7972TIP3   OH245330   3.088   0.035  12.524 -0.0792 -0.6868 -0.2521
 7972TIP3    H145331   3.133   0.116  12.548 -0.2910 -0.6609  0.0491
 7972TIP3    H245332   3.015   0.028  12.585  1.1316 -2.1860  1.0861
 7973TIP3   OH245333   0.878   0.171   2.357 -0.5041 -0.1168  0.0909
 7973TIP3    H145334   0.940   0.200   2.424  0.0503  2.8482 -1.6431
 7973TIP3    H245335   0.830   0.249   2.333 -2.8184 -1.7683 -0.8157
 7974TIP3   OH245336   3.901   1.316   2.002 -0.1593 -0.3201  0.1615
 7974TIP3    H145337   3.951   1.346   1.926  2.0620 -0.9256  1.3410
 7974TIP3    H245338   3.843   1.248   1.967 -2.2983  2.3543 -1.7552
 7975TIP3   OH245339   3.731   2.401  14.597 -0.2544 -0.2113 -0.0958
 7975TIP3    H145340   3.667   2.413  14.667  0.6322 -4.5999  1.5912
 7975TIP3    H245341   3.678   2.379  14.520 -0.9293 -0.3253  0.3998
 7976TIP3   OH245342   1.294   2.179  12.790 -0.0300 -0.3338  0.1630
 7976TIP3    H145343   1.362   2.115  12.772  1.0981  0.5599  1.1624
 7976TIP3    H245344   1.293   2.236  12.713  2.2071  1.2510  1.2757
 7977TIP3   OH245345   3.447   1.417   4.965 -0.1232  0.3440  0.1061
 7977TIP3    H145346   3.375   1.366   5.001 -0.9212  1.2472 -0.1799
 7977TIP3    H245347   3.416   1.445   4.879  0.6706  0.5244 -0.1258
 7978TIP3   OH245348   2.735   5.423   2.621 -0.2592  0.1877  0.0065
 7978TIP3    H145349   2.697   5.504   2.586  1.0653  0.8880  0.1391
 7978TIP3    H245350   2.723   5.431   2.716 -0.3969  0.0862 -0.0025
 7979TIP3   OH245351   4.610   1.737  14.933  0.1145 -0.5704  0.2778
 7979TIP3    H145352   4.524   1.701  14.955 -0.8404  1.0042 -0.7151
 7979TIP3    H245353   4.627   1.801  15.002  0.6107 -1.0673  0.6145
 7980TIP3   OH245354   2.904   2.880  15.078  0.1322 -0.8192 -0.0631
 7980TIP3    H145355   2.909   2.898  15.172  1.9042 -0.9359 -0.1245
 7980TIP3    H245356   2.817   2.910  15.053 -0.3091 -0.6499  1.5860
 7981TIP3   OH245357   2.803   2.691   1.751 -0.2522  0.0682  0.3255
 7981TIP3    H145358   2.887   2.656   1.723 -1.1734 -0.1361 -2.3615
 7981TIP3    H245359   2.816   2.786   1.754 -0.6312  0.2687 -2.8065
 7982TIP3   OH245360   0.305   5.424  14.121  0.3725 -0.3704  0.6849
 7982TIP3    H145361   0.298   5.509  14.078  0.3702 -0.2991  0.8246
 7982TIP3    H245362   0.228   5.376  14.091  1.1647 -0.8607 -0.5680
 7983TIP3   OH245363   6.748   5.068  12.164 -0.1688  0.5589  0.3451
 7983TIP3    H145364   6.825   5.039  12.214  0.4162  0.5342 -0.5566
 7983TIP3    H245365   6.783   5.093  12.079 -0.9421  2.0389  0.4388
 7984TIP3   OH245366   0.821   5.745  15.806 -0.4104 -0.2069 -0.0879
 7984TIP3    H145367   0.752   5.753  15.740 -1.8846 -0.6954  1.3705
 7984TIP3    H245368   0.774   5.740  15.889  1.4951  2.3244  1.1971
 7985TIP3   OH245369   0.347   4.785  17.015 -0.4219 -0.4615 -0.1218
 7985TIP3    H145370   0.417   4.824  16.962 -0.9377  0.2891 -0.2604
 7985TIP3    H245371   0.393   4.727  17.075  0.1383 -1.6630 -1.6648
 7986TIP3   OH245372   3.869   3.782  15.291  0.2323 -0.4312 -0.4186
 7986TIP3    H145373   3.830   3.864  15.320  1.1375 -0.0836 -0.1712
 7986TIP3    H245374   3.963   3.797  15.294  0.4250 -1.6197  0.0216
 7987TIP3   OH245375   6.167   6.672  16.135  0.1223  0.6781  0.0155
 7987TIP3    H145376   6.223   6.607  16.178  0.8710  1.2820 -0.0291
 7987TIP3    H245377   6.164   6.644  16.044  0.0186  0.4143  0.0953
 7988TIP3   OH245378   0.636   4.194  16.214  0.0532 -0.0134  0.0481
 7988TIP3    H145379   0.545   4.170  16.233 -0.1088 -1.1347 -1.9802
 7988TIP3    H245380   0.684   4.111  16.220  0.4740  0.1021 -1.5075
 7989TIP3   OH245381   2.534   0.476   0.530  0.1017 -0.5037  0.0997
 7989TIP3    H145382   2.549   0.518   0.446 -0.1202  0.5276  0.5689
 7989TIP3    H245383   2.452   0.427   0.519 -0.0934 -0.1127 -0.1769
 7990TIP3   OH245384   2.456   3.459   0.027 -0.5219 -0.5603  0.1476
 7990TIP3    H145385   2.439   3.371  -0.007 -1.1170 -0.2679 -0.3538
 7990TIP3    H245386   2.403   3.516  -0.030  0.3436  0.1773  0.0637
 7991TIP3   OH245387   1.942   0.326   5.341  0.3328  0.0279  0.3441
 7991TIP3    H145388   1.918   0.408   5.382  0.2884 -0.0117  0.3974
 7991TIP3    H245389   1.884   0.261   5.381  0.6186 -0.0873  0.5744
 7992TIP3   OH245390   1.318   2.522  13.483  0.0704 -0.0931 -0.2934
 7992TIP3    H145391   1.306   2.449  13.422  1.2239 -0.2849 -0.3002
 7992TIP3    H245392   1.354   2.593  13.429 -3.0267  1.2314 -0.7400
 7993TIP3   OH245393   3.243   1.459  11.796 -0.3853 -0.3918 -0.0122
 7993TIP3    H145394   3.221   1.465  11.703 -0.1303 -1.0554 -0.1125
 7993TIP3    H245395   3.333   1.428  11.798 -0.5349 -0.8083  0.4670
 7994TIP3   OH245396   0.742   6.708   0.625 -0.2097  0.8157  0.0648
 7994TIP3    H145397   0.824   6.666   0.648  0.6328  1.4387 -1.6990
 7994TIP3    H245398   0.749   6.725   0.531 -2.7671 -0.0594 -0.3277
 7995TIP3   OH245399   5.616   1.651   5.920  0.3724  0.2584  0.0697
 7995TIP3    H145400   5.629   1.663   5.826 -0.7262  0.6788 -0.0414
 7995TIP3    H245401   5.665   1.572   5.941 -0.9716 -0.9562 -1.2510
 7996TIP3   OH245402   5.061   5.984   2.493 -0.0369  0.1485  0.1168
 7996TIP3    H145403   5.048   6.029   2.576 -0.1353 -1.4962  1.0125
 7996TIP3    H245404   5.097   5.899   2.517 -0.7332 -0.6122 -1.4706
 7997TIP3   OH245405   5.724   6.557  13.383 -0.1650 -0.1932 -0.0769
 7997TIP3    H145406   5.747   6.633  13.437 -0.7595  0.4518 -0.7157
 7997TIP3    H245407   5.687   6.495  13.445 -2.5755  1.2741  0.0289
 7998TIP3   OH245408   4.719   3.104   6.063 -0.1375  0.2581 -0.4326
 7998TIP3    H145409   4.756   3.111   5.975 -1.4100 -2.2624 -1.2274
 7998TIP3    H245410   4.661   3.028   6.058 -0.8207  0.5528  2.3849
 7999TIP3   OH245411   1.732   3.836  11.749 -0.2842  0.2243  1.1111
 7999TIP3    H145412   1.659   3.795  11.703  0.2066  0.1256  0.3955
 7999TIP3    H245413   1.733   3.796  11.835 -0.4469 -0.5143  0.7667
 8000TIP3   OH245414   2.288   0.061  16.979  0.5810  0.0542  0.4625
 8000TIP3    H145415   2.345   0.137  16.986  1.4063 -0.4291 -0.9136
 8000TIP3    H245416   2.344  -0.014  17.000  0.5283 -0.4404 -1.0765
 8001TIP3   OH245417   1.410   4.890   5.363 -0.0587 -0.0594 -0.3087
 8001TIP3    H145418   1.504   4.905   5.368 -0.1550  0.1444  0.9161
 8001TIP3    H245419   1.374   4.932   5.441 -0.9660 -1.7302  0.1777
 8002TIP3   OH245420   3.647   3.274  15.713 -0.2824 -0.5873  0.0480
 8002TIP3    H145421   3.627   3.366  15.732 -0.7226 -0.9352  1.3637
 8002TIP3    H245422   3.596   3.225  15.778  1.3125 -1.6717  0.5161
 8003TIP3   OH245423   0.265   3.117  12.106 -0.0186  0.4158 -0.1631
 8003TIP3    H145424   0.235   3.077  12.024  1.3566 -0.6976 -0.1445
 8003TIP3    H245425   0.344   3.068  12.129 -0.2129  0.9215  1.6671
 8004TIP3   OH245426   5.703   5.046  16.550  0.6766  0.1832  1.0049
 8004TIP3    H145427   5.668   4.976  16.495  1.4460  1.1453 -0.7420
 8004TIP3    H245428   5.756   5.000  16.615 -0.5296 -0.9919  1.1955
 8005TIP3   OH245429   2.649   1.990   0.488 -0.3448  0.6554 -0.1134
 8005TIP3    H145430   2.693   2.074   0.479  0.0763  0.3719 -0.7715
 8005TIP3    H245431   2.709   1.937   0.540 -0.5578  0.7281  0.2050
 8006TIP3   OH245432   4.747   3.053  14.025 -0.1743  0.2969  0.0934
 8006TIP3    H145433   4.766   3.132  14.076  0.8729  0.6176 -0.7795
 8006TIP3    H245434   4.833   3.014  14.008 -0.6314 -0.6459 -0.1029
 8007TIP3   OH245435   1.191   2.581   4.873  0.2392 -0.1573 -0.1362
 8007TIP3    H145436   1.096   2.576   4.881  0.3564 -1.5095  0.3795
 8007TIP3    H245437   1.207   2.668   4.836 -1.0271  1.2302  2.4669
 8008TIP3   OH245438   5.968   5.235  10.451 -0.4956 -0.0758 -0.3652
 8008TIP3    H145439   5.925   5.305  10.401 -0.1221  0.5008  0.1116
 8008TIP3    H245440   5.897   5.189  10.495 -0.7434  0.0062 -0.6791
 8009TIP3   OH245441   1.538   2.883   2.796 -0.0062  0.1062 -0.0842
 8009TIP3    H145442   1.478   2.868   2.870 -0.2352  1.7799  0.0765
 8009TIP3    H245443   1.494   2.843   2.721 -1.2183  1.1049  0.0822
 8010TIP3   OH245444   4.019   2.206  14.574  0.5425  0.1026 -0.0778
 8010TIP3    H145445   4.058   2.268  14.636  1.7780 -1.0425  0.3119
 8010TIP3    H245446   3.926   2.226  14.576  1.0075  2.5916 -0.6683
 8011TIP3   OH245447   1.406   3.993   3.655  0.6276  0.3849  0.0352
 8011TIP3    H145448   1.452   4.065   3.612 -0.3678 -0.2143 -2.1507
 8011TIP3    H245449   1.396   3.927   3.586 -0.7932 -0.7269  1.2715
 8012TIP3   OH245450   4.701   3.773  14.835 -0.2899 -0.5929 -0.0912
 8012TIP3    H145451   4.673   3.732  14.753 -1.8015 -2.5441  1.3639
 8012TIP3    H245452   4.739   3.701  14.886  1.7336  0.8371  0.4687
 8013TIP3   OH245453   4.619   6.074  15.589 -0.0487  0.3401  0.2469
 8013TIP3    H145454   4.575   6.144  15.636 -0.0220  0.0533  0.7083
 8013TIP3    H245455   4.553   6.038  15.530 -0.0654  0.7447  0.0250
 8014TIP3   OH245456   1.825   3.232  10.897  0.4150  0.4168 -0.2540
 8014TIP3    H145457   1.758   3.167  10.918  0.2886  0.8800  0.8019
 8014TIP3    H245458   1.837   3.225  10.802 -1.0198  0.2450 -0.4244
 8015TIP3   OH245459   1.802   6.607   3.845  0.6456 -0.2122 -0.1807
 8015TIP3    H145460   1.779   6.517   3.824 -0.4795  0.8273 -3.6259
 8015TIP3    H245461   1.817   6.649   3.761  3.3817  2.2848  1.4497
 8016TIP3   OH245462   5.551   3.135  13.897  0.5363  0.2880 -0.0496
 8016TIP3    H145463   5.464   3.098  13.913 -1.0445  2.8147 -2.4326
 8016TIP3    H245464   5.552   3.217  13.945  1.7746  0.0994  0.2689
 8017TIP3   OH245465   2.852   3.762  15.048 -0.0472  0.2300 -0.5969
 8017TIP3    H145466   2.936   3.799  15.074 -0.6173  0.8931  0.3627
 8017TIP3    H245467   2.855   3.672  15.080 -0.1169  0.5731  0.4015
 8018TIP3   OH245468   4.903   5.736  10.540 -0.4117  0.1479 -0.1963
 8018TIP3    H145469   4.930   5.828  10.537 -0.9681  0.2948 -0.5868
 8018TIP3    H245470   4.902   5.708  10.449  0.2541 -0.3911 -0.0448
 8019TIP3   OH245471   6.760   2.915  13.741  0.2675  0.6538  0.0557
 8019TIP3    H145472   6.703   2.988  13.718 -0.7322  0.3116  1.3911
 8019TIP3    H245473   6.833   2.956  13.787 -0.9156  0.7240  1.9277
 8020TIP3   OH245474   3.028   0.965  15.256 -0.3128 -0.1526  0.5006
 8020TIP3    H145475   3.118   0.967  15.221 -0.1080 -1.3764  0.9171
 8020TIP3    H245476   2.992   0.883  15.222 -0.8512 -0.2819  1.3755
 8021TIP3   OH245477   0.704   1.638   6.266 -0.2547  0.4101 -0.2834
 8021TIP3    H145478   0.747   1.558   6.233 -0.3269  0.2765 -0.0537
 8021TIP3    H245479   0.776   1.698   6.282 -0.2563  0.6748 -1.2128
 8022TIP3   OH245480   0.271   0.023  16.951 -0.7386  0.0421  0.7783
 8022TIP3    H145481   0.264   0.063  16.865 -0.4949 -1.5398 -0.0079
 8022TIP3    H245482   0.203   0.066  17.003 -1.2634  0.6150 -0.3592
 8023TIP3   OH245483   5.921   3.939   4.059 -0.3783  0.6128 -0.1875
 8023TIP3    H145484   5.895   3.870   4.120  1.7329 -1.0049 -1.0391
 8023TIP3    H245485   5.839   3.965   4.016 -1.1513 -1.8399 -0.2949
 8024TIP3   OH245486   5.500   3.589   3.735  0.1621  0.5433 -0.1239
 8024TIP3    H145487   5.521   3.536   3.658  1.4946  0.2182  0.4517
 8024TIP3    H245488   5.537   3.541   3.809 -0.7954  1.0309  0.6895
 8025TIP3   OH245489   5.139   6.369   6.130  0.1889 -0.5477  0.0190
 8025TIP3    H145490   5.201   6.345   6.200 -1.7733 -2.2885  1.2196
 8025TIP3    H245491   5.190   6.426   6.072  2.4416 -0.6207  1.8253
 8026TIP3   OH245492   4.492   1.907  13.378  0.4416 -0.0877  0.3391
 8026TIP3    H145493   4.473   1.940  13.465  0.6862  0.4286  0.1963
 8026TIP3    H245494   4.588   1.903  13.374  0.4364  0.0603  0.0327
 8027TIP3   OH245495   4.001   1.646   5.151  0.3564 -0.8212 -0.7386
 8027TIP3    H145496   4.052   1.610   5.223  2.5225  0.3500 -1.6393
 8027TIP3    H245497   4.065   1.691   5.096 -1.6952  0.9407 -1.7690
 8028TIP3   OH245498   4.787   6.133   3.037 -0.2424 -0.4856 -0.0197
 8028TIP3    H145499   4.769   6.194   3.109  0.8932 -1.8946  1.5035
 8028TIP3    H245500   4.828   6.186   2.969 -0.9307  0.7827  0.5419
 8029TIP3   OH245501   6.767   3.688   4.166  0.2544 -0.0457 -0.1135
 8029TIP3    H145502   6.785   3.767   4.216 -0.6363  0.2231 -0.2114
 8029TIP3    H245503   6.672   3.682   4.164  0.3370 -1.5733  0.5802
 8030TIP3   OH245504   1.261   6.163   1.044 -0.0064 -0.0853 -0.5078
 8030TIP3    H145505   1.224   6.178   0.957 -2.0698 -0.3259  0.2791
 8030TIP3    H245506   1.355   6.169   1.032 -0.2450 -0.4012 -2.8145
 8031TIP3   OH245507   2.279   6.704  12.577 -0.9308 -0.0467  0.2286
 8031TIP3    H145508   2.308   6.659  12.498 -0.7741  1.8250 -0.8068
 8031TIP3    H245509   2.190   6.671  12.593 -1.2989  0.1978 -1.2414
 8032TIP3   OH245510   1.385   2.511   3.342  0.4169  0.2253 -0.0594
 8032TIP3    H145511   1.336   2.454   3.402  1.3884 -0.9454 -0.3499
 8032TIP3    H245512   1.463   2.535   3.391  1.1804 -0.6758 -0.8124
 8033TIP3   OH245513   5.311   1.160   0.380 -0.1641 -0.1491  0.0637
 8033TIP3    H145514   5.370   1.092   0.413  1.4425  1.0008 -0.3943
 8033TIP3    H245515   5.228   1.142   0.423  0.8717 -0.9764  1.7736
 8034TIP3   OH245516   0.032   2.304   3.877 -0.3779  0.2063  0.2585
 8034TIP3    H145517  -0.012   2.220   3.865  2.3670 -1.2443 -0.1744
 8034TIP3    H245518   0.058   2.331   3.789  0.1150  0.7331  0.5550
 8035TIP3   OH245519   6.206   1.747   5.296 -0.0575 -0.3466 -0.4844
 8035TIP3    H145520   6.157   1.792   5.364  2.1236  1.9425 -0.3521
 8035TIP3    H245521   6.268   1.692   5.344  0.0469 -0.3632 -0.6366
 8036TIP3   OH245522   2.334   3.371   1.423  0.0760  0.5758  0.2836
 8036TIP3    H145523   2.370   3.339   1.506  1.4642  0.1865 -0.4585
 8036TIP3    H245524   2.405   3.419   1.383 -1.1342  2.2607  0.1020
 8037TIP3   OH245525   1.553   2.085   3.281  1.1112  0.9613  0.2280
 8037TIP3    H145526   1.642   2.081   3.315  1.0366  1.1871  0.4562
 8037TIP3    H245527   1.562   2.074   3.187  1.4240  1.4963  0.1932
 8038TIP3   OH245528   0.158   6.710  13.708  0.0185  0.2655  1.1285
 8038TIP3    H145529   0.095   6.693  13.638 -0.7009 -0.5361  1.9569
 8038TIP3    H245530   0.196   6.625  13.727  0.0760  0.4497  1.8369
 8039TIP3   OH245531   6.318   1.039  16.154  0.1087 -0.6245 -0.2099
 8039TIP3    H145532   6.327   0.971  16.087 -0.7972 -0.7410 -0.2148
 8039TIP3    H245533   6.257   1.102  16.116  0.6594  0.0077 -0.0524
 8040TIP3   OH245534   0.285   5.851   4.809  0.6000  0.2652  0.1859
 8040TIP3    H145535   0.292   5.826   4.901  3.2201 -0.6542 -0.2280
 8040TIP3    H245536   0.307   5.944   4.808  0.3152  0.3383  0.5048
 8041TIP3   OH245537   5.708   2.418  11.194  0.3704 -0.2530 -0.1887
 8041TIP3    H145538   5.695   2.509  11.220  0.5698  0.2141 -1.6956
 8041TIP3    H245539   5.784   2.389  11.245  0.2489  0.3918  0.3610
 8042TIP3   OH245540   5.337   5.432   1.551 -0.5037 -0.1042 -0.1878
 8042TIP3    H145541   5.432   5.442   1.563 -0.7240  1.3787  0.4286
 8042TIP3    H245542   5.324   5.447   1.457 -0.1599 -0.1085 -0.2390
 8043TIP3   OH245543   4.993   5.458   5.134  0.0114 -0.0912  0.4369
 8043TIP3    H145544   4.975   5.514   5.059  0.2722  1.6082  1.6020
 8043TIP3    H245545   5.053   5.510   5.189 -0.5753 -1.0811  2.0598
 8044TIP3   OH245546   3.625   0.243  11.289  0.3789 -0.3140  0.3604
 8044TIP3    H145547   3.588   0.158  11.265 -2.3467  1.0091 -0.3286
 8044TIP3    H245548   3.598   0.255  11.380 -2.2892  1.2755 -0.5569
 8045TIP3   OH245549   1.218   3.067  12.495  0.1737  0.2629 -0.2711
 8045TIP3    H145550   1.309   3.096  12.495  0.2973  0.0452  2.4350
 8045TIP3    H245551   1.172   3.132  12.550 -0.6532 -1.3920  1.0461
 8046TIP3   OH245552   2.283   1.417  15.549  0.0455 -0.4626 -0.4124
 8046TIP3    H145553   2.268   1.333  15.593  0.2412 -1.0935 -1.5236
 8046TIP3    H245554   2.361   1.402  15.495  1.2127  1.0119  0.8034
 8047TIP3   OH245555   3.466   0.634   5.107 -0.0691 -0.5028  0.2370
 8047TIP3    H145556   3.521   0.556   5.104  2.0288  0.9280  0.4957
 8047TIP3    H245557   3.493   0.686   5.032 -0.4923  0.6110  0.8408
 8048TIP3   OH245558   3.230   6.561  11.626  0.1250  0.1882 -0.1803
 8048TIP3    H145559   3.300   6.613  11.587  0.2669 -0.5547 -0.9445
 8048TIP3    H245560   3.250   6.560  11.720  1.7030 -0.8329 -0.5087
 8049TIP3   OH245561   4.485   5.897   5.654  0.3057 -0.0099 -0.3228
 8049TIP3    H145562   4.518   5.841   5.724 -0.4832 -1.3649 -1.0129
 8049TIP3    H245563   4.560   5.951   5.630  0.7964 -0.0560  1.0480
 8050TIP3   OH245564   6.496   6.143  13.166 -0.3518 -0.0258 -0.2876
 8050TIP3    H145565   6.488   6.217  13.226 -0.4479  1.6098 -2.2896
 8050TIP3    H245566   6.407   6.108  13.159 -0.1995 -0.7311  1.1265
 8051TIP3   OH245567   0.293   5.017   4.963  0.0479  0.5719  0.2210
 8051TIP3    H145568   0.222   5.046   4.907  0.0903  0.4470  0.1041
 8051TIP3    H245569   0.250   4.974   5.037  0.0568 -1.0186 -0.6894
 8052TIP3   OH245570   5.575   0.277   3.239  0.1816 -0.6046  0.0878
 8052TIP3    H145571   5.643   0.216   3.213  1.0300  1.0781 -1.7437
 8052TIP3    H245572   5.549   0.322   3.158 -1.1438  0.7195  1.2001
 8053TIP3   OH245573   0.914   1.543  16.009 -0.0205 -0.6179 -0.1533
 8053TIP3    H145574   0.941   1.631  15.983  0.5111 -1.1590 -1.4513
 8053TIP3    H245575   0.829   1.556  16.053  0.9107  0.7304  1.2804
 8054TIP3   OH245576   3.238   4.426  16.190  0.3342  0.1158 -0.8898
 8054TIP3    H145577   3.223   4.331  16.188  0.9481 -0.0185  0.3806
 8054TIP3    H245578   3.188   4.460  16.115  0.0484 -1.1973 -1.3069
 8055TIP3   OH245579   2.321   6.700  11.743  0.3410  0.4899  0.0352
 8055TIP3    H145580   2.300   6.624  11.688 -0.8159  0.3477  0.6670
 8055TIP3    H245581   2.236   6.733  11.772  0.8996  1.2172  0.8672
 8056TIP3   OH245582   0.740   3.882   0.899  0.0287 -0.4328  0.4495
 8056TIP3    H145583   0.682   3.843   0.834  0.0130  0.1707  0.0974
 8056TIP3    H245584   0.828   3.874   0.861 -0.1089  1.0198 -0.2054
 8057TIP3   OH245585   5.241   2.796   2.314 -0.6718  0.5515 -0.3070
 8057TIP3    H145586   5.188   2.749   2.379  2.2087 -3.1323 -0.4983
 8057TIP3    H245587   5.325   2.811   2.358  0.4360  0.3142 -2.2962
 8058TIP3   OH245588   3.566   3.897   1.134 -0.2427 -0.2979  0.3767
 8058TIP3    H145589   3.561   3.919   1.227 -2.6033  0.2206  0.1532
 8058TIP3    H245590   3.613   3.970   1.094  0.9854 -0.6338  1.1831
 8059TIP3   OH245591   3.832   5.998   1.782 -0.2702  0.1582 -0.0622
 8059TIP3    H145592   3.891   6.059   1.826  0.6738  0.5638 -1.8268
 8059TIP3    H245593   3.809   5.934   1.849  1.8375  0.2316  0.7880
 8060TIP3   OH245594   6.366   1.352  14.449 -0.3045  0.0586  0.6172
 8060TIP3    H145595   6.333   1.294  14.380 -1.5774 -1.2364  2.2804
 8060TIP3    H245596   6.288   1.389  14.489  0.4413  1.0543  1.1619
 8061TIP3   OH245597   0.482   2.948  12.738 -0.1614  0.5813 -0.2563
 8061TIP3    H145598   0.505   2.945  12.831  0.2640 -1.1716 -0.3997
 8061TIP3    H245599   0.395   2.986  12.736 -0.4202  0.0800  0.9175
 8062TIP3   OH245600   1.877   0.852   1.267 -0.1223  0.2877  0.1771
 8062TIP3    H145601   1.806   0.789   1.261 -0.1509  0.0177  2.7385
 8062TIP3    H245602   1.880   0.876   1.360  2.1778  1.3869 -0.1469
 8063TIP3   OH245603   0.095   5.217  14.307 -0.0152 -0.2383 -0.1001
 8063TIP3    H145604   0.143   5.204  14.389  1.6114  2.3594 -0.5743
 8063TIP3    H245605   0.030   5.284  14.328  1.5112  1.6913 -1.2744
 8064TIP3   OH245606   3.845   2.243  12.938  0.3753  0.1260 -0.7823
 8064TIP3    H145607   3.928   2.292  12.942  0.4128  0.1705 -2.0257
 8064TIP3    H245608   3.871   2.154  12.915  0.3427 -0.6071  1.8630
 8065TIP3   OH245609   1.895   6.210   5.350 -0.5973  0.1271  0.4081
 8065TIP3    H145610   1.860   6.226   5.438  1.0158 -0.5969  1.2166
 8065TIP3    H245611   1.923   6.118   5.352 -1.4650 -0.1955 -1.1993
 8066TIP3   OH245612   1.454   2.111  14.790 -0.1099 -0.7821 -0.1858
 8066TIP3    H145613   1.408   2.126  14.873  0.0699  4.0384 -0.8288
 8066TIP3    H245614   1.519   2.181  14.786  1.2814 -2.1819 -3.4782
 8067TIP3   OH245615   2.074   1.069   0.912 -0.7302  0.1139  0.5215
 8067TIP3    H145616   2.111   1.036   0.829  1.1251  0.4570  1.1876
 8067TIP3    H245617   1.999   1.121   0.885  0.2759  0.8159 -1.0202
 8068TIP3   OH245618   3.959   2.346   0.613 -1.1818 -0.2862 -0.2415
 8068TIP3    H145619   3.992   2.435   0.602 -1.7760  0.1693  1.5013
 8068TIP3    H245620   3.945   2.314   0.524  0.6060  0.7592 -0.9241
 8069TIP3   OH245621   3.732   3.812  12.792  0.0820 -0.4059  0.2551
 8069TIP3    H145622   3.816   3.858  12.794 -0.4242  0.5368  0.1910
 8069TIP3    H245623   3.749   3.729  12.837  0.8670  0.0878  0.8920
 8070TIP3   OH245624   4.221   3.070  15.314 -0.2487 -0.2414 -0.4982
 8070TIP3    H145625   4.159   3.143  15.305 -1.1366 -1.0097 -0.7449
 8070TIP3    H245626   4.307   3.111  15.319 -0.6222  0.7451 -2.0800
 8071TIP3   OH245627   1.457   5.628   3.016  0.0783  0.8041  0.8438
 8071TIP3    H145628   1.517   5.700   2.996  0.6213  0.0303 -0.3372
 8071TIP3    H245629   1.401   5.663   3.086 -0.7765  2.9799 -0.8418
 8072TIP3   OH245630   5.456   1.309   4.073 -0.2910  0.2581 -0.0870
 8072TIP3    H145631   5.533   1.289   4.126 -0.1335  1.4045  0.1462
 8072TIP3    H245632   5.436   1.400   4.095 -1.1033  0.2792 -0.9069
 8073TIP3   OH245633   0.256   0.515   3.197 -0.4542 -0.3297  0.1836
 8073TIP3    H145634   0.176   0.567   3.206  1.2754  2.4112  0.4133
 8073TIP3    H245635   0.251   0.478   3.109 -2.9251 -1.9450  0.9449
 8074TIP3   OH245636   6.343   0.210   1.485  0.4121  0.4755  0.3136
 8074TIP3    H145637   6.426   0.233   1.445  1.5764 -0.6716  1.9889
 8074TIP3    H245638   6.296   0.293   1.495  1.0084  1.0222 -1.3722
 8075TIP3   OH245639   4.995   3.688   6.276 -0.1519 -0.0664  0.3184
 8075TIP3    H145640   4.914   3.739   6.276  0.6925  1.3181 -1.2411
 8075TIP3    H245641   5.032   3.701   6.189  1.7756 -0.6617  1.0182
 8076TIP3   OH245642   5.405   2.143   5.464 -0.1066 -0.3879 -0.4450
 8076TIP3    H145643   5.326   2.089   5.461 -0.9622  0.7852  0.1677
 8076TIP3    H245644   5.386   2.208   5.532  0.4722  1.2874 -1.8364
 8077TIP3   OH245645   4.625   0.156  14.455  0.1816 -0.3596  0.4262
 8077TIP3    H145646   4.549   0.151  14.513  1.7750 -0.6514  2.5844
 8077TIP3    H245647   4.678   0.080  14.478  0.6561 -0.7202 -1.7645
 8078TIP3   OH245648   6.569   4.575  10.940  0.6354 -0.1936  0.2868
 8078TIP3    H145649   6.616   4.659  10.940 -1.0720  0.8583  3.8624
 8078TIP3    H245650   6.504   4.584  10.871 -0.1613  1.8521  1.2598
 8079TIP3   OH245651   6.007   0.241  11.572  0.2945  0.0539  0.5346
 8079TIP3    H145652   5.984   0.158  11.530 -0.3077 -0.3139  1.5718
 8079TIP3    H245653   5.932   0.298  11.555  1.2452  0.8395 -1.2887
 8080TIP3   OH245654   2.209   5.494  11.700 -0.5068  0.6367 -0.3153
 8080TIP3    H145655   2.139   5.482  11.635 -1.0004  0.0058  0.3329
 8080TIP3    H245656   2.163   5.519  11.780  0.1315  1.7651 -0.2979
 8081TIP3   OH245657   4.631   6.102   2.625  0.0611  0.5032 -0.2555
 8081TIP3    H145658   4.564   6.060   2.571 -0.2100  1.2049 -0.4813
 8081TIP3    H245659   4.584   6.133   2.702  0.6786 -1.6044  1.0067
 8082TIP3   OH245660   2.126   0.980  15.347  0.2968 -0.0400  0.2715
 8082TIP3    H145661   2.134   1.074  15.330  0.7075  0.1398  1.4029
 8082TIP3    H245662   2.063   0.975  15.419  2.5949 -0.4183  2.3249
 8083TIP3   OH245663   3.450   1.102  16.146  0.1340 -0.1528  0.4113
 8083TIP3    H145664   3.408   1.164  16.206  1.8576  0.7593  0.6978
 8083TIP3    H245665   3.397   1.108  16.066  0.8545  2.4651  0.0732
 8084TIP3   OH245666   6.369   2.807   2.847 -0.1289  0.1893 -0.0276
 8084TIP3    H145667   6.335   2.784   2.933  1.8988 -0.4004  0.6407
 8084TIP3    H245668   6.440   2.868   2.864  0.8274 -0.5584 -1.2144
 8085TIP3   OH245669   2.543   3.423   5.019 -0.3161 -0.7292 -0.5078
 8085TIP3    H145670   2.478   3.489   5.044  2.9285  2.1380  0.6027
 8085TIP3    H245671   2.589   3.402   5.100  1.7628 -0.9290 -1.7204
 8086TIP3   OH245672   2.825   5.522   3.790  0.7068 -0.1789  0.6216
 8086TIP3    H145673   2.860   5.452   3.846 -0.4840 -0.5654  0.8996
 8086TIP3    H245674   2.732   5.503   3.783  0.2615  1.6781  1.1310
 8087TIP3   OH245675   0.547   3.434  15.976  0.3960 -0.0794 -0.3902
 8087TIP3    H145676   0.460   3.452  15.938  0.3955 -1.7558 -1.2529
 8087TIP3    H245677   0.598   3.513  15.958 -0.4366  0.2217 -1.4801
 8088TIP3   OH245678   3.117   2.869  15.276 -0.3160 -0.1811 -0.0148
 8088TIP3    H145679   3.140   2.961  15.283  0.4338 -0.4327  1.0472
 8088TIP3    H245680   3.122   2.850  15.183 -0.6482  0.8965 -0.2571
 8089TIP3   OH245681   4.570   2.831   6.062  0.7477 -0.0542  0.5746
 8089TIP3    H145682   4.514   2.876   5.999  0.3249  0.2272  1.1534
 8089TIP3    H245683   4.518   2.757   6.093  1.7452 -1.4667 -0.9966
 8090TIP3   OH245684   3.490   2.484   6.270 -0.2730  0.1109 -0.1030
 8090TIP3    H145685   3.435   2.408   6.252 -3.4886  1.9966  1.3439
 8090TIP3    H245686   3.516   2.474   6.361 -0.3173  0.5090 -0.0456
 8091TIP3   OH245687   6.615   4.577   1.182  0.2265  0.4758 -0.3101
 8091TIP3    H145688   6.568   4.547   1.260  1.6562 -0.1844  0.3310
 8091TIP3    H245689   6.684   4.634   1.217  1.8845 -1.0870 -0.9134
 8092TIP3   OH245690   2.526   6.576  13.879  0.3247  0.2182  0.0883
 8092TIP3    H145691   2.474   6.618  13.948 -0.8065  1.5124 -1.5052
 8092TIP3    H245692   2.524   6.639  13.807  0.3635 -1.7152 -1.6098
 8093TIP3   OH245693   3.514   5.212   3.695  0.2089 -0.1846 -0.6143
 8093TIP3    H145694   3.435   5.220   3.642 -1.7092 -2.5589  1.7099
 8093TIP3    H245695   3.549   5.301   3.701 -0.5386  0.4236 -4.2166
 8094TIP3   OH245696   1.144   3.375   4.586  0.3209 -0.0924  0.0423
 8094TIP3    H145697   1.125   3.322   4.663 -0.7772  1.8333  1.1438
 8094TIP3    H245698   1.060   3.380   4.539  0.5948  0.0382 -0.4382
 8095TIP3   OH245699   1.308   5.574   2.249 -0.0844 -0.5016 -0.5869
 8095TIP3    H145700   1.322   5.559   2.156  2.7078 -1.1065 -0.1230
 8095TIP3    H245701   1.271   5.492   2.282 -0.4466 -0.5173 -1.0321
 8096TIP3   OH245702   5.077   4.165   1.408 -0.1811 -0.3550  0.6159
 8096TIP3    H145703   5.119   4.151   1.323  1.1709  0.0228  1.2111
 8096TIP3    H245704   5.005   4.225   1.389  1.4802  1.5231  0.0854
 8097TIP3   OH245705   0.889   5.528  10.970  0.3422 -0.0405  0.0178
 8097TIP3    H145706   0.958   5.513  11.034  1.4514  0.2506 -1.0868
 8097TIP3    H245707   0.925   5.593  10.910 -1.2793  0.8813  0.0056
 8098TIP3   OH245708   4.642   1.638   5.303  0.1991  0.4453 -0.0247
 8098TIP3    H145709   4.592   1.659   5.382  0.4032 -0.7281  0.4417
 8098TIP3    H245710   4.718   1.696   5.306  0.3084  0.2728  0.7599
 8099TIP3   OH245711   5.689   2.845   1.403 -0.5680 -0.0997  0.2382
 8099TIP3    H145712   5.599   2.825   1.378 -0.2636 -1.3909  0.0907
 8099TIP3    H245713   5.727   2.886   1.325 -0.8706 -0.0621  0.1089
 8100TIP3   OH245714   3.550   1.146   4.157  0.4067  0.0535 -0.2059
 8100TIP3    H145715   3.467   1.099   4.162 -0.8802  2.3167  0.4327
 8100TIP3    H245716   3.545   1.196   4.076 -1.2302  4.3658  2.3770
 8101TIP3   OH245717   0.294   2.451  11.328  0.0873  0.2145  0.0521
 8101TIP3    H145718   0.321   2.397  11.253  1.2836 -0.8166  1.2039
 8101TIP3    H245719   0.301   2.393  11.403 -1.0949  1.2544  0.9820
 8102TIP3   OH245720   2.333   6.236   3.008 -0.1168  0.4225  0.3093
 8102TIP3    H145721   2.376   6.161   3.050 -1.1527 -1.0386 -1.1650
 8102TIP3    H245722   2.404   6.282   2.964  0.4945  0.1487  0.9974
 8103TIP3   OH245723   0.203   6.431   5.018 -0.0322 -0.6683 -0.5845
 8103TIP3    H145724   0.197   6.391   4.931  0.6437 -0.6824 -0.6262
 8103TIP3    H245725   0.296   6.434   5.037 -0.1686 -0.5614  0.0972
 8104TIP3   OH245726   1.815   3.143  10.613 -0.2560  0.4254 -0.2194
 8104TIP3    H145727   1.786   3.054  10.636  0.3721  0.3322  0.2402
 8104TIP3    H245728   1.804   3.148  10.518  0.4673 -0.4307 -0.3576
 8105TIP3   OH245729   4.550   2.712   3.333  0.0562 -0.4284  0.0372
 8105TIP3    H145730   4.527   2.791   3.283 -0.5179 -0.7309 -0.1847
 8105TIP3    H245731   4.637   2.688   3.301 -0.6819 -1.1586 -1.5374
 8106TIP3   OH245732   2.161   6.326  13.520 -0.0408  0.7360  0.4332
 8106TIP3    H145733   2.183   6.357  13.608 -2.6783  2.2866  0.6024
 8106TIP3    H245734   2.117   6.242  13.535  2.1843 -0.4739  0.3544
 8107TIP3   OH245735   3.912   3.235   0.244 -0.2686 -0.1134 -0.6922
 8107TIP3    H145736   3.849   3.203   0.180 -3.5409  0.8631  1.8932
 8107TIP3    H245737   3.915   3.166   0.311  1.0481  0.0771 -0.5481
 8108TIP3   OH245738   2.824   1.454   4.511  0.0835 -0.5908 -0.2208
 8108TIP3    H145739   2.763   1.525   4.489  0.9499 -0.1341 -1.2165
 8108TIP3    H245740   2.810   1.389   4.442  1.6958  0.1450 -1.2888
 8109TIP3   OH245741   2.229   3.759   3.088  0.2401 -0.0467  0.0247
 8109TIP3    H145742   2.144   3.804   3.081  1.1676  1.7082 -0.2068
 8109TIP3    H245743   2.222   3.685   3.028 -1.4162 -0.4078  0.6105
 8110TIP3   OH245744   5.285   2.243  17.228  0.0566 -0.3763 -0.8137
 8110TIP3    H145745   5.231   2.322  17.228 -0.4342 -0.6979  0.4802
 8110TIP3    H245746   5.290   2.216  17.136 -0.8546  0.4241 -1.0920
 8111TIP3   OH245747   1.645   1.338  16.888 -0.3968 -0.2169  0.2202
 8111TIP3    H145748   1.580   1.327  16.958  0.7289 -1.0506  1.1680
 8111TIP3    H245749   1.603   1.303  16.810 -2.0804  1.7073  0.2163
 8112TIP3   OH245750   1.570   6.279  15.056  0.4084  0.3149 -0.7350
 8112TIP3    H145751   1.545   6.364  15.022  1.6458  1.3399  0.8713
 8112TIP3    H245752   1.656   6.262  15.017 -0.4393 -0.8747 -2.1700
 8113TIP3   OH245753   5.669   6.394   0.866  0.1835  0.3062 -0.4661
 8113TIP3    H145754   5.718   6.325   0.910  0.9466 -0.3292 -2.2382
 8113TIP3    H245755   5.729   6.469   0.864 -0.2185  0.6635  0.4270
 8114TIP3   OH245756   0.311   4.770  14.448 -0.1539 -0.3111  0.4103
 8114TIP3    H145757   0.384   4.829  14.427 -1.3349  1.2003  0.4873
 8114TIP3    H245758   0.350   4.683  14.446  1.8409  0.5328  1.2273
 8115TIP3   OH245759   5.051   5.091   2.193 -0.4458 -0.2234  0.0214
 8115TIP3    H145760   5.011   5.131   2.270  1.4790  0.9525  0.4312
 8115TIP3    H245761   5.035   5.153   2.122 -0.7999 -0.5481 -0.1889
 8116TIP3   OH245762   1.403   0.966   2.668  0.0534  0.2221 -0.6561
 8116TIP3    H145763   1.473   0.957   2.733 -0.0324 -0.4021 -0.6544
 8116TIP3    H245764   1.357   1.046   2.694  0.2210  0.1518 -0.1393
 8117TIP3   OH245765   6.471   3.282   5.609 -0.3527  0.1784 -0.1347
 8117TIP3    H145766   6.443   3.195   5.636  1.0693 -0.2921 -0.1401
 8117TIP3    H245767   6.475   3.332   5.690 -1.5175  0.3494 -0.1740
 8118TIP3   OH245768   1.186   4.203  14.298 -0.5281 -0.3949  0.2480
 8118TIP3    H145769   1.120   4.176  14.235  0.7914 -2.0475 -0.4711
 8118TIP3    H245770   1.224   4.283  14.260 -0.1747 -1.0279 -0.7463
 8119TIP3   OH245771   2.454   2.434  16.345  0.3678  0.9719 -0.3806
 8119TIP3    H145772   2.472   2.354  16.295  1.3430  1.1453 -0.3306
 8119TIP3    H245773   2.360   2.432  16.360  0.0277  0.9482 -2.2986
 8120TIP3   OH245774   0.379   2.443  15.192  0.4344 -0.0722 -0.0423
 8120TIP3    H145775   0.471   2.427  15.176  0.4717  1.2916 -1.2715
 8120TIP3    H245776   0.377   2.513  15.258  0.2709 -0.5421  0.4594
 8121TIP3   OH245777   4.835   3.211  16.624 -0.1554 -0.5069 -0.2286
 8121TIP3    H145778   4.905   3.238  16.683  1.6745 -0.7675 -2.2008
 8121TIP3    H245779   4.763   3.185  16.681  1.4022 -0.3484  1.8461
 8122TIP3   OH245780   1.080   4.030   2.523  0.1681  0.1432  0.5452
 8122TIP3    H145781   1.081   4.105   2.464  2.4548 -0.1524  0.1682
 8122TIP3    H245782   1.026   3.965   2.478  1.8217 -0.0585 -1.2038
 8123TIP3   OH245783   4.045   0.649   2.625  0.1618  0.3415 -0.0732
 8123TIP3    H145784   4.098   0.622   2.699 -0.7241 -1.3440 -0.0352
 8123TIP3    H245785   4.075   0.738   2.605  2.4450 -0.2979  0.4268
 8124TIP3   OH245786   4.101   4.420  10.810  0.0429  0.2682  0.2949
 8124TIP3    H145787   4.132   4.507  10.835 -1.8262  0.7166  1.1870
 8124TIP3    H245788   4.035   4.437  10.742  0.9160 -0.5745 -0.7764
 8125TIP3   OH245789   0.309   2.628   0.556 -0.1421 -0.2010 -0.1641
 8125TIP3    H145790   0.248   2.659   0.623  0.5357  0.1928  0.2748
 8125TIP3    H245791   0.259   2.564   0.506 -0.1004 -1.8659  1.8717
 8126TIP3   OH245792   4.194   0.371   0.990  0.2826 -0.1272 -0.0419
 8126TIP3    H145793   4.154   0.433   0.929 -0.1634 -1.1985 -0.8430
 8126TIP3    H245794   4.286   0.367   0.963  0.4135  0.5070  0.2877
 8127TIP3   OH245795   2.875   4.224  15.264 -0.4118 -0.0922  0.0908
 8127TIP3    H145796   2.829   4.156  15.214 -1.8860  0.8471  0.1268
 8127TIP3    H245797   2.962   4.229  15.225 -1.9902  1.6447 -3.3788
 8128TIP3   OH245798   3.362   1.800  10.437 -0.0804 -0.3564  0.3459
 8128TIP3    H145799   3.273   1.775  10.415 -0.8287  1.3941  1.2694
 8128TIP3    H245800   3.368   1.893  10.413  1.3323 -0.3209  0.7504
 8129TIP3   OH245801   4.149   5.778  11.307 -0.2695  0.3006 -0.6336
 8129TIP3    H145802   4.056   5.758  11.315 -0.0282  0.0363  1.9859
 8129TIP3    H245803   4.179   5.727  11.232 -1.9423 -0.6046 -0.7020
 8130TIP3   OH245804   6.241   6.423  13.844 -0.2508  0.0633 -0.5733
 8130TIP3    H145805   6.224   6.509  13.805  0.1287 -0.1369 -1.1974
 8130TIP3    H245806   6.258   6.441  13.936 -1.3150  0.5299 -0.4612
 8131TIP3   OH245807   4.739   4.462   3.831  0.1621 -0.4071  0.3947
 8131TIP3    H145808   4.813   4.404   3.847  0.5223 -0.3682 -1.0056
 8131TIP3    H245809   4.680   4.448   3.905  0.3331 -2.4255  0.1893
 8132TIP3   OH245810   0.141   5.375   0.742  0.3887 -0.0171  0.6280
 8132TIP3    H145811   0.105   5.462   0.760  1.5232  0.3895  0.9794
 8132TIP3    H245812   0.110   5.355   0.653  1.3004  1.3829 -0.0334
 8133TIP3   OH245813   2.028   6.433   1.638 -0.1145  0.1102 -0.0697
 8133TIP3    H145814   1.947   6.430   1.587 -0.7906 -1.5415  1.0557
 8133TIP3    H245815   2.088   6.376   1.590 -0.7408 -1.4188  0.8956
 8134TIP3   OH245816   2.757   1.012  14.822 -0.0008 -0.1521 -0.1744
 8134TIP3    H145817   2.822   0.958  14.778  0.6227 -0.6681  1.3439
 8134TIP3    H245818   2.742   1.085  14.763  3.0126  0.7117  0.0542
 8135TIP3   OH245819   2.930   1.268   3.322  0.1976  0.5530  0.4340
 8135TIP3    H145820   2.933   1.226   3.235 -0.6669 -1.1800  1.2109
 8135TIP3    H245821   3.014   1.246   3.362 -0.3735 -0.7387  0.9560
 8136TIP3   OH245822   0.414   6.290  16.767  0.0327  0.5059  0.0327
 8136TIP3    H145823   0.499   6.249  16.782 -1.2724 -1.7171  1.7398
 8136TIP3    H245824   0.351   6.225  16.796 -2.2970  1.8697 -1.8005
 8137TIP3   OH245825   6.217   4.445   4.957  0.0273  0.0503 -0.2006
 8137TIP3    H145826   6.191   4.353   4.947 -0.1026 -0.0094  0.6565
 8137TIP3    H245827   6.235   4.455   5.051  0.1600  0.8671 -0.3098
 8138TIP3   OH245828   5.372   4.422  12.003  0.0475 -0.2194  0.2562
 8138TIP3    H145829   5.461   4.440  12.032  0.0069  0.9745 -0.3316
 8138TIP3    H245830   5.378   4.425  11.907 -0.8275  0.8274  0.2381
 8139TIP3   OH245831   1.793   1.475  11.886 -0.2338  0.1290  0.6020
 8139TIP3    H145832   1.882   1.441  11.881 -0.3541 -0.0578 -0.3608
 8139TIP3    H245833   1.780   1.494  11.979  1.9002  3.1013  0.3563
 8140TIP3   OH245834   3.537   6.040  11.190  0.8343 -0.0177 -0.0234
 8140TIP3    H145835   3.591   5.969  11.154 -0.1077 -0.3450 -0.8230
 8140TIP3    H245836   3.483   5.997  11.256  1.4144  0.2737  0.6416
 8141TIP3   OH245837   6.767   1.438   3.599 -0.0890 -0.1329  0.1342
 8141TIP3    H145838   6.779   1.344   3.606  0.9320 -0.2520 -2.6500
 8141TIP3    H245839   6.834   1.467   3.536 -2.4063  1.9472 -1.4984
 8142TIP3   OH245840   5.887   2.304   4.559  0.6643  0.5575  0.4118
 8142TIP3    H145841   5.854   2.264   4.639  0.3477 -0.1367 -0.0642
 8142TIP3    H245842   5.959   2.360   4.589  0.6914  0.1379  1.1541
 8143TIP3   OH245843   6.383   5.565   5.422  0.2684 -0.4459 -0.0387
 8143TIP3    H145844   6.333   5.522   5.353 -0.2939  1.0058 -0.5581
 8143TIP3    H245845   6.465   5.591   5.380 -0.4002  1.1421 -0.3889
 8144TIP3   OH245846   4.191   1.748  16.782  0.0790  0.2829 -0.2007
 8144TIP3    H145847   4.225   1.819  16.836 -0.4182 -0.1753  0.7233
 8144TIP3    H245848   4.257   1.737  16.713  1.4937 -0.1512  1.1825
 8145TIP3   OH245849   3.894   5.934  12.464 -0.0015 -0.3442  0.5182
 8145TIP3    H145850   3.803   5.903  12.469  0.5441 -2.0046  0.5030
 8145TIP3    H245851   3.902   5.995  12.538 -1.3975  0.5536 -0.0534
 8146TIP3   OH245852   4.323   1.932  15.000 -0.2565 -0.0958  0.3061
 8146TIP3    H145853   4.294   2.004  14.944  1.7252 -0.9422 -1.9141
 8146TIP3    H245854   4.413   1.955  15.024 -0.0058 -1.2698  0.5249
 8147TIP3   OH245855   2.566   3.930  15.825  0.4102  0.4038 -0.5459
 8147TIP3    H145856   2.548   4.012  15.870 -0.6707 -1.1567  1.9624
 8147TIP3    H245857   2.484   3.909  15.780  0.7598  0.7859 -1.3793
 8148TIP3   OH245858   0.557   0.088   5.474 -0.2801 -0.0014  0.4330
 8148TIP3    H145859   0.646   0.068   5.445 -0.9017  0.9658 -2.3300
 8148TIP3    H245860   0.562   0.088   5.570  2.7896  0.5268  0.3258
 8149TIP3   OH245861   4.477   1.669   2.495 -0.4310  0.0690  0.2155
 8149TIP3    H145862   4.566   1.692   2.520 -0.5766  1.5581 -0.5992
 8149TIP3    H245863   4.432   1.653   2.578  0.0695  1.2841  0.7283
 8150TIP3   OH245864   1.236   5.854  12.713 -0.2954  0.0277 -0.2139
 8150TIP3    H145865   1.258   5.808  12.632  1.3522  1.1801 -0.4663
 8150TIP3    H245866   1.163   5.805  12.751 -0.9927 -0.5884 -2.3289
 8151TIP3   OH245867   3.071   3.129   4.200  0.1796 -0.4026  0.0534
 8151TIP3    H145868   3.039   3.045   4.232 -1.3674  0.8979  2.1010
 8151TIP3    H245869   3.021   3.194   4.250 -1.3601  1.7894 -4.0670
 8152TIP3   OH245870   1.483   5.964   0.851 -0.3159 -0.1769 -0.5840
 8152TIP3    H145871   1.528   5.931   0.773  0.5580 -0.9437  0.2314
 8152TIP3    H245872   1.438   6.043   0.821 -1.0617 -1.1816 -2.1733
 8153TIP3   OH245873   0.239   1.600   0.573 -0.0680 -0.1750  0.0226
 8153TIP3    H145874   0.274   1.599   0.484 -0.7458 -0.0394 -0.2442
 8153TIP3    H245875   0.222   1.692   0.591 -2.2537 -0.4285 -0.6254
 8154TIP3   OH245876   2.405   1.895   0.338 -0.2698 -0.1194  0.0737
 8154TIP3    H145877   2.480   1.928   0.388 -0.3835  0.9751 -0.4645
 8154TIP3    H245878   2.329   1.921   0.391 -0.3654  0.5874 -0.4078
 8155TIP3   OH245879   2.272   1.208  17.222 -0.0702 -0.0199  0.0013
 8155TIP3    H145880   2.305   1.298  17.223  0.2181 -0.0898 -1.4681
 8155TIP3    H245881   2.292   1.173  17.309  3.8559 -0.1233 -0.8601
 8156TIP3   OH245882   3.540   4.124  16.034 -0.5707  0.1554 -0.4024
 8156TIP3    H145883   3.544   4.216  16.009 -2.0090  0.3342 -0.0295
 8156TIP3    H245884   3.447   4.100  16.023  0.2814 -2.1119 -3.5669
 8157TIP3   OH245885   5.738   1.202  11.967 -0.0883  0.2226  0.2676
 8157TIP3    H145886   5.646   1.179  11.980  0.1823 -0.9636  0.1578
 8157TIP3    H245887   5.749   1.286  12.011 -1.6130  1.1664 -1.0724
 8158TIP3   OH245888   3.402   0.981  16.508  0.4643 -0.6147 -0.0867
 8158TIP3    H145889   3.342   1.048  16.475  0.4107  0.1680  1.5588
 8158TIP3    H245890   3.481   1.029  16.531  1.8900 -1.6810 -2.5150
 8159TIP3   OH245891   4.585   6.467   1.419  0.5456  0.1892 -0.0440
 8159TIP3    H145892   4.542   6.532   1.363  0.2621 -0.1295 -0.1935
 8159TIP3    H245893   4.527   6.391   1.417  0.3611  0.3008  0.9703
 8160TIP3   OH245894   6.750   4.396   3.291 -0.0395 -0.3185 -0.1937
 8160TIP3    H145895   6.804   4.365   3.218 -1.0681  0.7027 -1.4119
 8160TIP3    H245896   6.661   4.373   3.266 -0.4795  0.7419  0.3716
 8161TIP3   OH245897   3.987   5.229  15.408 -0.3899  0.2354 -0.1444
 8161TIP3    H145898   3.923   5.207  15.339  1.4381  0.5642 -1.9948
 8161TIP3    H245899   4.023   5.144  15.435  0.5492  0.2707 -1.2536
 8162TIP3   OH245900   0.937   6.441  10.582 -0.0696  0.4374  0.1936
 8162TIP3    H145901   0.941   6.492  10.663  2.2974  4.6540 -2.3808
 8162TIP3    H245902   1.028   6.415  10.566 -0.5357 -0.4989 -0.9941
 8163TIP3   OH245903   5.823   1.938   4.466 -0.5019  0.6466 -0.4119
 8163TIP3    H145904   5.851   1.903   4.381  0.4068  0.4915 -0.0532
 8163TIP3    H245905   5.904   1.942   4.518 -0.9436  1.3588  0.2235
 8164TIP3   OH245906   5.777   3.561  13.184 -0.6735  0.5846 -0.0292
 8164TIP3    H145907   5.725   3.629  13.141 -2.4535 -0.7514 -0.0549
 8164TIP3    H245908   5.820   3.515  13.112  0.5733  1.6692 -0.0115
 8165TIP3   OH245909   3.669   1.467   4.433 -0.0732  0.4834  0.5175
 8165TIP3    H145910   3.664   1.490   4.526  2.4418  0.9134  0.5657
 8165TIP3    H245911   3.710   1.542   4.392  0.6607 -0.5344 -0.6282
 8166TIP3   OH245912   6.719   5.004  14.191  0.4006  0.8615 -0.3899
 8166TIP3    H145913   6.732   4.916  14.226 -0.2235  0.2797 -1.5813
 8166TIP3    H245914   6.792   5.055  14.226  0.0000  0.2208  1.4400
 8167TIP3   OH245915   2.488   1.090  15.452 -0.0132  0.2664 -0.4788
 8167TIP3    H145916   2.457   1.103  15.363 -0.0461  1.5163 -0.2872
 8167TIP3    H245917   2.409   1.094  15.506 -0.3043 -2.7961 -0.6018
 8168TIP3   OH245918   1.033   0.354   2.650  0.0364  0.2373  0.1751
 8168TIP3    H145919   1.065   0.437   2.687 -0.1808 -0.8234  2.8331
 8168TIP3    H245920   1.108   0.318   2.604  0.6738  1.0000  0.6005
 8169TIP3   OH245921   6.105   4.977   0.331 -0.0496  0.0159 -0.2986
 8169TIP3    H145922   6.036   4.995   0.395  0.1210  0.8539 -0.3349
 8169TIP3    H245923   6.059   4.960   0.249 -0.2506 -0.5293 -0.0735
 8170TIP3   OH245924   5.794   4.987   4.807 -0.0519 -0.5900  0.1447
 8170TIP3    H145925   5.773   4.933   4.731 -0.8576 -0.8703  0.5591
 8170TIP3    H245926   5.823   5.070   4.769  2.6411 -1.7764 -0.5298
 8171TIP3   OH245927   4.812   6.604   3.050  0.1140  0.1112 -0.0261
 8171TIP3    H145928   4.893   6.645   3.018  1.3531 -1.0241  1.6047
 8171TIP3    H245929   4.754   6.678   3.071  1.4462  0.9774  0.6407
 8172TIP3   OH245930   4.260   3.258   4.007 -0.0361 -0.0980  0.4804
 8172TIP3    H145931   4.174   3.258   3.965  0.4178 -1.2817 -0.4543
 8172TIP3    H245932   4.287   3.167   4.007  1.8257  0.4394 -0.4180
 8173TIP3   OH245933   1.527   6.661   2.524  0.0813  0.1665 -0.3214
 8173TIP3    H145934   1.487   6.666   2.610  0.3854  1.4208 -0.2455
 8173TIP3    H245935   1.462   6.618   2.469 -0.1233 -0.6061  0.5214
 8174TIP3   OH245936   1.341   3.992   2.337  0.1172  0.3827  0.0331
 8174TIP3    H145937   1.277   4.063   2.336 -0.4417 -0.1321 -0.8981
 8174TIP3    H245938   1.332   3.952   2.423  0.5551  1.5421  0.6296
 8175TIP3   OH245939   6.303   3.749   3.870 -0.6385 -0.1534 -0.2952
 8175TIP3    H145940   6.352   3.728   3.790  1.9509 -1.7023  1.6342
 8175TIP3    H245941   6.211   3.734   3.846 -0.0332  0.7769 -3.3698
 8176TIP3   OH245942   5.687   5.977   2.540 -0.0051 -0.2538 -0.0148
 8176TIP3    H145943   5.638   6.056   2.564  1.1688  0.9176 -1.3453
 8176TIP3    H245944   5.779   6.000   2.554  0.5531 -0.3712 -3.0454
 8177TIP3   OH245945   6.467   6.767  15.928 -0.2145 -0.0639 -0.5023
 8177TIP3    H145946   6.442   6.678  15.952  0.7132  0.0144  0.7927
 8177TIP3    H245947   6.523   6.797  15.999 -2.9030  2.6369  0.6065
 8178TIP3   OH245948   6.002   6.250  12.079 -0.5728  0.1955 -0.5464
 8178TIP3    H145949   5.968   6.162  12.060  0.8592 -0.3478 -0.6192
 8178TIP3    H245950   5.923   6.304  12.089 -1.4532 -0.8377 -1.7102
 8179TIP3   OH245951   6.460   1.443   4.793  0.3983  0.7039 -0.5035
 8179TIP3    H145952   6.448   1.517   4.852 -0.6435  1.3014 -1.4434
 8179TIP3    H245953   6.510   1.479   4.720 -2.0864  1.0910 -2.0687
 8180TIP3   OH245954   2.930   1.187   6.089  0.3213 -0.2394 -0.6030
 8180TIP3    H145955   2.909   1.247   6.161  2.7547  1.1296 -1.0051
 8180TIP3    H245956   3.018   1.156   6.108  0.7564 -0.3481 -2.6931
 8181TIP3   OH245957   0.653   3.749  10.977 -0.3160 -0.2200  0.0342
 8181TIP3    H145958   0.696   3.814  10.921 -2.3268  1.9940  1.0002
 8181TIP3    H245959   0.612   3.688  10.915  1.4064 -0.4753 -0.8769
 8182TIP3   OH245960   4.632   2.752   1.753 -0.7051 -0.0656 -0.6492
 8182TIP3    H145961   4.712   2.803   1.768 -1.3556  0.7394  0.1515
 8182TIP3    H245962   4.662   2.673   1.707  0.4721  0.4764 -0.8307
 8183TIP3   OH245963   2.115   2.573   2.569  0.0530  0.2005  0.1222
 8183TIP3    H145964   2.095   2.643   2.631  0.7996  0.7896 -0.2949
 8183TIP3    H245965   2.080   2.604   2.486 -1.1750 -0.7028  0.2943
 8184TIP3   OH245966   4.712   2.438  16.571  0.5894  0.2771 -0.4277
 8184TIP3    H145967   4.636   2.451  16.629  1.4793 -0.9271  1.0585
 8184TIP3    H245968   4.694   2.354  16.529  0.6392  0.4535 -0.7953
 8185TIP3   OH245969   5.947   3.866  15.397 -0.1307  0.1993  0.6551
 8185TIP3    H145970   5.943   3.808  15.474  0.9607 -1.7251 -0.6923
 8185TIP3    H245971   5.868   3.920  15.404 -1.5825 -1.9533  1.5907
 8186TIP3   OH245972   5.391   2.789   2.600 -0.7640 -0.0716 -0.1327
 8186TIP3    H145973   5.399   2.700   2.565 -2.8887  0.0223 -0.9307
 8186TIP3    H245974   5.367   2.776   2.692 -2.7195 -0.3647 -0.6561
 8187TIP3   OH245975   6.782   6.593  13.503 -0.2965  0.2752 -0.1478
 8187TIP3    H145976   6.748   6.636  13.425  0.2521  0.1926 -0.4265
 8187TIP3    H245977   6.835   6.521  13.471 -1.6150 -0.9463  0.3241
 8188TIP3   OH245978   0.184   5.411   2.124 -0.0125  0.2327 -0.1319
 8188TIP3    H145979   0.139   5.391   2.206 -1.6701  0.7150 -0.8927
 8188TIP3    H245980   0.170   5.333   2.069  0.3873  0.2390 -0.2450
 8189TIP3   OH245981   0.037   6.249  15.494  0.2403  0.0385  0.3160
 8189TIP3    H145982   0.038   6.157  15.471 -1.2020  0.0981 -0.0223
 8189TIP3    H245983  -0.005   6.253  15.580  0.0286  0.4101  0.1980
 8190TIP3   OH245984   1.025   3.359   2.661 -0.3511  0.1660 -0.2034
 8190TIP3    H145985   1.113   3.383   2.687 -0.3691 -0.8081  0.7837
 8190TIP3    H245986   0.981   3.335   2.742 -0.7568 -1.7851 -0.9771
 8191TIP3   OH245987   2.977   1.130  13.561 -0.5344  0.8275 -0.4579
 8191TIP3    H145988   2.942   1.043  13.581 -0.3507  0.4970 -1.5490
 8191TIP3    H245989   3.052   1.140  13.619 -1.3594  0.8180  0.6406
 8192TIP3   OH245990   2.822   2.264   1.366 -0.3550  0.2835  1.0739
 8192TIP3    H145991   2.915   2.282   1.362 -0.2169 -0.7020 -0.5029
 8192TIP3    H245992   2.780   2.350   1.352  0.3122  0.5080  0.4279
 8193TIP3   OH245993   2.828   0.639   0.242  0.4335 -0.5002 -0.1979
 8193TIP3    H145994   2.870   0.695   0.307 -0.2179  0.6267 -0.7358
 8193TIP3    H245995   2.884   0.646   0.165 -0.1249  0.1243 -0.5533
 8194TIP3   OH245996   4.731   5.129  16.678 -0.3882  0.4594 -0.3253
 8194TIP3    H145997   4.763   5.218  16.666 -0.7429  0.5313 -0.7420
 8194TIP3    H245998   4.759   5.082  16.600  1.0106 -0.1537  0.5242
 8195TIP3   OH245999   6.491   6.642  16.896 -0.0261 -0.0825  0.1559
 8195TIP3    H146000   6.512   6.694  16.973 -0.0908 -0.3985  0.3852
 8195TIP3    H246001   6.518   6.553  16.919  0.8039 -0.0156 -0.5189
 8196TIP3   OH246002   5.921   2.513  12.435  0.5370 -0.1239 -0.0817
 8196TIP3    H146003   5.991   2.472  12.486  1.5976  1.1785 -0.4755
 8196TIP3    H246004   5.958   2.595  12.404 -0.9457  0.2714 -0.8672
 8197TIP3   OH246005   1.548   3.616   1.981  0.1494 -0.0130 -0.3205
 8197TIP3    H146006   1.481   3.580   1.922  0.3724  0.5709 -0.9367
 8197TIP3    H246007   1.627   3.567   1.959 -0.0331 -0.6185  0.3244
 8198TIP3   OH246008   2.468   3.031   2.394  0.0105  0.0288 -0.2376
 8198TIP3    H146009   2.481   3.033   2.489 -1.5165 -0.6147  0.0018
 8198TIP3    H246010   2.376   3.004   2.383  0.0995  0.3532 -1.8881
 8199TIP3   OH246011   2.669   0.823   2.541  0.3415  0.4168 -0.2180
 8199TIP3    H146012   2.668   0.736   2.579 -0.5828 -0.4121 -2.0721
 8199TIP3    H246013   2.626   0.879   2.606  0.3541 -0.6223  0.6882
 8200TIP3   OH246014   3.697   4.765  11.969 -0.1215 -0.2300  0.1827
 8200TIP3    H146015   3.645   4.712  12.030 -1.0708 -0.2654 -0.6515
 8200TIP3    H246016   3.788   4.745  11.992 -0.4714 -0.7916  1.1098
 8201TIP3   OH246017   0.529   2.995  11.700  0.0038 -0.5081 -0.2702
 8201TIP3    H146018   0.573   3.080  11.698  0.3489 -0.6749  0.0490
 8201TIP3    H246019   0.601   2.932  11.704 -0.1847 -0.8881 -2.3633
 8202TIP3   OH246020   5.497   3.843  15.376 -0.6244  0.2824  0.8904
 8202TIP3    H146021   5.520   3.774  15.314 -1.8326 -0.5167  1.3131
 8202TIP3    H246022   5.440   3.902  15.327 -0.5893  0.3068  0.8796
 8203TIP3   OH246023   6.001   2.012   1.288  0.0287 -0.1797 -0.1269
 8203TIP3    H146024   6.064   1.990   1.220  0.7557 -0.0939  0.5184
 8203TIP3    H246025   6.005   2.107   1.296  0.1382 -0.2140  0.2270
 8204TIP3   OH246026   0.102   2.955   0.285  0.1123  0.4846 -0.2838
 8204TIP3    H146027   0.183   2.904   0.291  0.5747  1.1845 -0.4017
 8204TIP3    H246028   0.032   2.891   0.291  0.6315  0.1506  2.9414
 8205TIP3   OH246029   5.994   1.419   4.892 -0.0034  0.1097 -0.2314
 8205TIP3    H146030   5.957   1.365   4.962  0.3665 -0.5898 -0.5713
 8205TIP3    H246031   6.060   1.363   4.851  0.6599  0.9657 -0.3339
 8206TIP3   OH246032   3.754   6.256   1.741  0.3479  0.1647 -0.0898
 8206TIP3    H146033   3.713   6.170   1.747  0.9884 -0.0058  2.5127
 8206TIP3    H246034   3.841   6.245   1.780  0.6750  1.8378 -0.2747
 8207TIP3   OH246035   5.680   0.371  13.202 -0.1933  0.3584  0.3441
 8207TIP3    H146036   5.622   0.446  13.186 -0.8687 -0.5774 -1.7974
 8207TIP3    H246037   5.738   0.400  13.273 -2.3863  1.7981  1.5864
 8208TIP3   OH246038   5.778   0.717  14.036 -0.1911 -0.0079  0.0824
 8208TIP3    H146039   5.851   0.655  14.032 -0.8549 -0.9072  1.6120
 8208TIP3    H246040   5.811   0.790  14.088 -0.4988 -0.6018  1.1290
 8209TIP3   OH246041   3.267   5.041  14.158 -0.2632  0.1091  0.1775
 8209TIP3    H146042   3.273   4.971  14.224 -0.0437 -0.2438 -0.2205
 8209TIP3    H246043   3.228   5.114  14.206  1.9416  0.6024  1.3059
 8210TIP3   OH246044   6.372   6.287   0.440 -0.2382  0.0611 -0.0535
 8210TIP3    H146045   6.390   6.371   0.482  0.1521  0.2281 -0.5610
 8210TIP3    H246046   6.332   6.234   0.510  1.2355  0.0366  0.7913
 8211TIP3   OH246047   6.729   4.299   0.998 -0.1148 -0.1319  0.2562
 8211TIP3    H146048   6.794   4.356   1.040 -0.4313  0.1868  0.3186
 8211TIP3    H246049   6.772   4.268   0.919  0.3357 -0.4068  0.6067
 8212TIP3   OH246050   0.950   4.166   0.918 -0.5242 -0.2868  0.4739
 8212TIP3    H146051   0.965   4.131   1.006 -1.2448  0.0922  0.7554
 8212TIP3    H246052   0.982   4.256   0.922 -1.2656 -0.0206  0.5835
 8213TIP3   OH246053   0.037   5.749  12.390  0.6765  0.6978 -0.0521
 8213TIP3    H146054   0.125   5.739  12.355 -0.0721  1.0964 -2.1495
 8213TIP3    H246055   0.036   5.837  12.429  1.8076 -0.1258  1.8638
 8214TIP3   OH246056   4.228   5.417  15.372 -0.3213  0.0969  0.7129
 8214TIP3    H146057   4.217   5.500  15.417 -0.0262 -0.4363  1.7879
 8214TIP3    H246058   4.138   5.384  15.361 -0.4014  0.2874  0.7975
 8215TIP3   OH246059   3.893   5.130  16.197  0.6641  0.1452  0.5453
 8215TIP3    H146060   3.838   5.105  16.123 -0.7865  3.4790  0.4003
 8215TIP3    H246061   3.836   5.126  16.273  1.1837  0.2089  0.9439
 8216TIP3   OH246062   6.610   2.155   1.154 -0.1828  0.6610  0.6600
 8216TIP3    H146063   6.689   2.174   1.102 -1.1319 -2.2665 -1.9957
 8216TIP3    H246064   6.636   2.080   1.209 -1.0320 -0.2382 -0.1435
 8217TIP3   OH246065   1.929   1.077   3.833  0.0012  0.1300 -0.1075
 8217TIP3    H146066   1.967   0.995   3.802  0.0887 -0.3244  1.1833
 8217TIP3    H246067   1.998   1.118   3.885 -0.6230  0.2013  0.6770
 8218TIP3   OH246068   1.213   4.227  15.468  0.5241 -0.4024 -0.0521
 8218TIP3    H146069   1.304   4.205  15.490  0.4236  0.4460  1.2791
 8218TIP3    H246070   1.218   4.314  15.430 -0.1106  1.2961  3.5356
 8219TIP3   OH246071   5.616   4.787  15.666 -0.2929  0.0340 -0.0788
 8219TIP3    H146072   5.590   4.803  15.575 -0.7752  0.2356  0.0960
 8219TIP3    H246073   5.692   4.729  15.659 -0.1665  0.2573 -0.6213
 8220TIP3   OH246074   4.311   1.751  14.369 -0.0571 -0.4328  0.4625
 8220TIP3    H146075   4.235   1.695  14.354  0.0943 -0.1187 -1.7147
 8220TIP3    H246076   4.364   1.704  14.433 -2.0225 -0.7016  1.9461
 8221TIP3   OH246077   2.123   3.021   4.351 -0.3373 -0.0773  0.1816
 8221TIP3    H146078   2.054   2.962   4.382 -0.0549 -1.0264 -0.9231
 8221TIP3    H246079   2.128   3.003   4.257  1.3696  0.0085  0.2422
 8222TIP3   OH246080   0.941   4.032   5.966  0.0885 -0.4696  0.1624
 8222TIP3    H146081   0.926   3.953   5.913  0.3823 -0.8673  0.6676
 8222TIP3    H246082   0.911   4.008   6.054 -1.1229  0.4405  0.0200
 8223TIP3   OH246083   3.727   4.869  15.599 -0.1037  0.1719  0.1354
 8223TIP3    H146084   3.644   4.852  15.644 -1.1322  0.9916 -1.3948
 8223TIP3    H246085   3.717   4.956  15.562  1.7425  0.5731  0.5469
 8224TIP3   OH246086   5.279   3.680   6.835 -0.1664  0.7629  0.0134
 8224TIP3    H146087   5.209   3.690   6.770  2.9293  1.0125 -3.4436
 8224TIP3    H246088   5.344   3.745   6.810  1.9691 -0.4676  2.2424
 8225TIP3   OH246089   4.936   4.133   5.234 -0.1215  0.4208 -0.2002
 8225TIP3    H146090   4.913   4.075   5.307  0.9869 -0.0030 -0.1697
 8225TIP3    H246091   4.956   4.216   5.276 -2.7101  1.1458 -0.3354
 8226TIP3   OH246092   2.536   5.701   4.779 -0.0301  0.2206 -0.3786
 8226TIP3    H146093   2.533   5.606   4.785  0.5113  0.3390  2.1999
 8226TIP3    H246094   2.629   5.720   4.762 -0.3737  0.2634 -2.4293
 8227TIP3   OH246095   5.085   6.462  11.361  0.1062 -0.0476  0.4053
 8227TIP3    H146096   5.101   6.467  11.266 -1.1702  2.7228  0.2930
 8227TIP3    H246097   5.156   6.408  11.394  1.1387 -0.2370 -2.0056
 8228TIP3   OH246098   0.335   4.384   4.750 -0.3282  0.3105  0.0903
 8228TIP3    H146099   0.285   4.371   4.669 -2.4363 -0.8058  1.5195
 8228TIP3    H246100   0.423   4.355   4.728 -0.4840  1.4177 -2.2285
 8229TIP3   OH246101   1.864   0.994   4.184  0.2127  0.2812  0.0002
 8229TIP3    H146102   1.948   1.039   4.179  0.3092 -0.1005 -2.3938
 8229TIP3    H246103   1.800   1.065   4.192  0.6097  0.6925 -0.3919
 8230TIP3   OH246104   6.275   4.088   1.583  0.0326 -0.9094 -0.7155
 8230TIP3    H146105   6.200   4.042   1.621 -1.3695  0.7569 -1.3902
 8230TIP3    H246106   6.264   4.077   1.489  0.9863 -1.2074 -0.7888
 8231TIP3   OH246107   2.767   0.035  11.867  0.4454 -0.1441  0.0551
 8231TIP3    H146108   2.848  -0.007  11.839  1.4957  1.3557  0.7367
 8231TIP3    H246109   2.697  -0.025  11.840  1.7761 -1.4083 -0.6169
 8232TIP3   OH246110   0.251   0.096   3.855  0.0229  0.3355 -0.0712
 8232TIP3    H146111   0.290   0.015   3.889 -0.6972  0.0580  0.0994
 8232TIP3    H246112   0.186   0.067   3.791 -0.1776  0.7826 -0.0725
 8233TIP3   OH246113   1.031   6.115  12.290  0.9236  0.2523  0.0007
 8233TIP3    H146114   0.936   6.120  12.281  1.0595  1.6112 -0.8014
 8233TIP3    H246115   1.045   6.098  12.383 -0.1070  0.2001  0.1565
 8234TIP3   OH246116   1.125   6.001  15.981  0.1613 -0.3588 -0.1460
 8234TIP3    H146117   1.121   5.961  15.894  1.1035  1.3634 -0.9986
 8234TIP3    H246118   1.063   6.074  15.976 -1.0544 -1.2862  1.1903
 8235TIP3   OH246119   1.906   1.126   1.688  0.3280  0.4826 -0.4089
 8235TIP3    H146120   2.001   1.121   1.688  0.2951 -0.7531 -1.8813
 8235TIP3    H246121   1.878   1.038   1.663 -1.2103  0.6777  0.5811
 8236TIP3   OH246122   1.342   1.155  13.625  0.7882  0.2229  0.1188
 8236TIP3    H146123   1.385   1.126  13.545  1.3823  1.3939  0.0041
 8236TIP3    H246124   1.258   1.192  13.596  0.6152 -0.1567  0.1324
 8237TIP3   OH246125   5.830   2.539   0.915 -0.0362 -0.3192  1.0129
 8237TIP3    H146126   5.895   2.491   0.864 -0.7070 -1.0579  0.8304
 8237TIP3    H246127   5.837   2.629   0.885  0.2292 -0.5781  0.2865
 8238TIP3   OH246128   2.314   5.001  16.962 -0.3025  0.2677 -0.3599
 8238TIP3    H146129   2.297   5.011  16.868  0.4929  1.6980 -0.3724
 8238TIP3    H246130   2.229   4.977  16.999 -0.4512 -1.0796 -1.5496
 8239TIP3   OH246131   6.447   5.135   0.400  0.1902 -0.6638 -0.6369
 8239TIP3    H146132   6.524   5.117   0.346  0.0248 -0.7177 -0.8538
 8239TIP3    H246133   6.436   5.056   0.453  1.5123  0.1279  0.8853
 8240TIP3   OH246134   2.416   6.184  12.980  0.2887 -0.3280 -0.3147
 8240TIP3    H146135   2.482   6.138  12.928 -1.3131 -1.8919 -1.0040
 8240TIP3    H246136   2.333   6.145  12.954 -0.6964 -0.2222  2.4904
 8241TIP3   OH246137   2.903   5.342  16.498  0.0736 -0.1912  0.0739
 8241TIP3    H146138   2.903   5.249  16.473  0.2728 -0.0975 -0.2697
 8241TIP3    H246139   2.967   5.347  16.569 -0.8368 -0.5459  0.9492
 8242TIP3   OH246140   2.534   1.082  10.876 -0.0127  0.4186  0.4428
 8242TIP3    H146141   2.600   1.133  10.923 -0.0144  0.1593  0.7272
 8242TIP3    H246142   2.477   1.147  10.837  0.8023  0.6552 -0.3601
 8243TIP3   OH246143   2.533   3.301  10.315 -0.3456  0.3479 -0.5188
 8243TIP3    H146144   2.606   3.326  10.372 -1.8943  1.9917  0.7765
 8243TIP3    H246145   2.560   3.216  10.278  1.2140 -0.1689  1.7081
 8244TIP3   OH246146   4.138   1.611   6.004  0.2453  0.5539 -0.3465
 8244TIP3    H146147   4.151   1.583   6.094  1.6869  0.8720 -0.4433
 8244TIP3    H246148   4.226   1.633   5.972  0.1984 -2.5656 -2.8286
 8245TIP3   OH246149   1.128   2.859  15.460 -0.1410 -0.1141 -0.3483
 8245TIP3    H146150   1.041   2.829  15.435 -0.3745 -0.3078  0.6781
 8245TIP3    H246151   1.113   2.946  15.498  0.3617  0.7280 -1.9894
 8246TIP3   OH246152   1.596   4.019  16.388  0.7489  0.1142 -0.2713
 8246TIP3    H146153   1.640   3.938  16.414 -1.3476 -1.3807 -1.3001
 8246TIP3    H246154   1.533   3.993  16.322 -1.6933  2.2104  1.1248
 8247TIP3   OH246155   6.537   5.680  16.287 -0.2174  0.0378 -0.0764
 8247TIP3    H146156   6.465   5.631  16.246 -1.5189  1.2904  0.6721
 8247TIP3    H246157   6.560   5.747  16.222  1.2388 -1.2256 -0.8998
 8248TIP3   OH246158   5.042   3.075   5.875 -0.0074  0.1374 -0.7042
 8248TIP3    H146159   4.953   3.055   5.847 -0.8715  3.9182 -0.9715
 8248TIP3    H246160   5.044   3.053   5.968 -1.7556  1.5169 -0.3100
 8249TIP3   OH246161   4.003   1.575   3.933 -0.2914  0.1173  0.5874
 8249TIP3    H146162   4.083   1.523   3.946 -0.4346  0.0129  1.0517
 8249TIP3    H246163   3.939   1.536   3.993 -1.1372 -0.7475 -0.8723
 8250TIP3   OH246164   3.249   0.614   4.850  0.2191 -0.3301  0.4440
 8250TIP3    H146165   3.244   0.526   4.812  1.0345 -0.4524  0.6164
 8250TIP3    H246166   3.313   0.660   4.797  0.7740 -0.2561  1.1625
 8251TIP3   OH246167   1.707   6.294   4.047  0.5132 -0.6888 -0.2151
 8251TIP3    H146168   1.676   6.315   3.959 -0.1767  2.6770  0.7800
 8251TIP3    H246169   1.633   6.315   4.104  1.3693 -1.7136  1.3241
 8252TIP3   OH246170   0.033   5.132  13.603 -0.0087 -0.1103  0.8452
 8252TIP3    H146171   0.006   5.205  13.547 -1.5444 -0.8916  0.5263
 8252TIP3    H246172   0.088   5.078  13.546  0.8881  0.6271  0.9957
 8253TIP3   OH246173   6.447   5.493   3.327 -0.5915  0.5413 -0.0236
 8253TIP3    H146174   6.534   5.522   3.299 -0.2041 -0.3391  0.2642
 8253TIP3    H246175   6.411   5.568   3.376  0.4542  0.4831  0.8334
 8254TIP3   OH246176   4.201   6.008   5.951 -0.1981 -0.1038 -0.4734
 8254TIP3    H146177   4.190   6.052   6.036 -2.2184  3.3756 -2.4025
 8254TIP3    H246178   4.138   5.936   5.953 -1.2662  0.8422  0.4548
 8255TIP3   OH246179   2.924   6.409   1.637 -0.3589  0.0230 -0.5511
 8255TIP3    H146180   2.992   6.365   1.688 -0.6299 -0.8364 -0.9317
 8255TIP3    H246181   2.910   6.492   1.683 -0.0391 -0.3991  0.3198
 8256TIP3   OH246182   6.464   6.699  10.339  0.1897  0.1151  0.1532
 8256TIP3    H146183   6.527   6.663  10.276  1.0054  0.0829  0.9827
 8256TIP3    H246184   6.493   6.666  10.424 -1.6804 -0.9255  0.4055
 8257TIP3   OH246185   5.273   2.014  15.035  0.4251 -0.8318  0.3620
 8257TIP3    H146186   5.275   2.073  15.111  0.9691 -1.3052  0.7198
 8257TIP3    H246187   5.228   2.064  14.967  0.9912  0.0434  0.6247
 8258TIP3   OH246188   1.143   5.324   5.163 -0.0029  0.0993  0.6083
 8258TIP3    H146189   1.152   5.419   5.158  0.1285 -0.0137 -1.8512
 8258TIP3    H246190   1.065   5.310   5.216 -0.8523  1.6214 -0.2065
 8259TIP3   OH246191   0.048   1.814   2.845  0.2526  0.0298  0.2300
 8259TIP3    H146192   0.073   1.770   2.764  0.6531  0.6472  0.0228
 8259TIP3    H246193  -0.015   1.754   2.885  0.5169 -0.5672 -0.2318
 8260TIP3   OH246194   5.555   4.271   1.853 -0.2741  0.3546 -0.2949
 8260TIP3    H146195   5.570   4.181   1.882 -0.0979 -0.3676 -2.5711
 8260TIP3    H246196   5.554   4.322   1.934  2.0352 -1.3478  0.8589
 8261TIP3   OH246197   3.735   5.854  13.400 -0.4923 -0.0317  0.4454
 8261TIP3    H146198   3.790   5.803  13.459  1.3412 -0.2449 -1.3765
 8261TIP3    H246199   3.796   5.911  13.353 -2.2977  2.6249  1.1932
 8262TIP3   OH246200   2.583   3.311   2.405  0.3244  0.5202  0.5508
 8262TIP3    H146201   2.520   3.346   2.342 -0.9833  0.3884  1.7606
 8262TIP3    H246202   2.559   3.219   2.414  0.0121  0.7277  1.8341
 8263TIP3   OH246203   2.422   0.204   4.727  0.3380 -0.2689  0.3274
 8263TIP3    H146204   2.496   0.158   4.687  2.3999  2.1289  1.2015
 8263TIP3    H246205   2.448   0.296   4.725 -2.2081  0.5239  1.6343
 8264TIP3   OH246206   2.128   2.306  14.342  0.5331 -0.0483  0.0182
 8264TIP3    H146207   2.167   2.221  14.324  1.5775  0.5475 -0.5933
 8264TIP3    H246208   2.201   2.360  14.372 -0.0190  0.7842 -0.1144
 8265TIP3   OH246209   5.144   2.601   2.492 -0.1968 -0.4098  0.6377
 8265TIP3    H146210   5.231   2.564   2.479 -0.8835 -2.3092  1.3218
 8265TIP3    H246211   5.086   2.549   2.436 -0.8450  1.1257 -0.1566
 8266TIP3   OH246212   5.531   4.288   0.168  0.2495  0.2038 -0.2943
 8266TIP3    H146213   5.448   4.335   0.183  0.8203  0.9054  0.7316
 8266TIP3    H246214   5.586   4.351   0.122  0.0783 -0.4061 -1.3375
 8267TIP3   OH246215   6.228   0.590   4.251  0.1779  0.0706 -0.3796
 8267TIP3    H146216   6.313   0.574   4.292 -0.6120  0.8084  1.6413
 8267TIP3    H246217   6.171   0.614   4.324 -1.8277 -0.6459 -1.6734
 8268TIP3   OH246218   1.255   2.040   5.755 -0.5667 -0.0413 -0.1359
 8268TIP3    H146219   1.239   2.133   5.735  1.0074 -0.1981 -2.3286
 8268TIP3    H246220   1.256   2.036   5.851  0.2353  2.3670 -0.0077
 8269TIP3   OH246221   2.415   3.571   5.549 -0.3926 -0.5544  0.2677
 8269TIP3    H146222   2.480   3.516   5.592 -0.0703 -0.4528 -0.0859
 8269TIP3    H246223   2.343   3.577   5.612  0.3363  0.1057  1.0526
 8270TIP3   OH246224   1.231   6.603  16.043 -0.0190  0.1290  0.5169
 8270TIP3    H146225   1.245   6.685  15.995 -1.0693  0.0284  0.0087
 8270TIP3    H246226   1.274   6.536  15.990 -0.5011  0.1345  0.1107
 8271TIP3   OH246227   2.742   1.150   3.827  0.1578 -0.2847  0.1540
 8271TIP3    H146228   2.711   1.140   3.917  0.7304  0.5256  0.4447
 8271TIP3    H246229   2.812   1.085   3.818  0.0797 -0.3856  0.2765
 8272TIP3   OH246230   3.230   3.672  12.326  0.3020  0.4440 -0.3641
 8272TIP3    H146231   3.202   3.702  12.413 -1.6359  0.1549 -0.8476
 8272TIP3    H246232   3.168   3.714  12.266 -0.4863 -2.0005 -1.3069
 8273TIP3   OH246233   6.289   6.129  11.733 -0.0283 -0.6474 -0.2316
 8273TIP3    H146234   6.325   6.044  11.711  0.6895  0.2377 -2.6431
 8273TIP3    H246235   6.343   6.161  11.805  0.9326 -1.3937 -0.6232
 8274TIP3   OH246236   4.561   1.248   3.041  0.0603 -0.0101  0.1663
 8274TIP3    H146237   4.598   1.313   3.100  2.3151 -1.1686  0.0702
 8274TIP3    H246238   4.518   1.300   2.973 -0.6721  1.3385  1.6389
 8275TIP3   OH246239   0.335   3.989   1.625 -0.0099 -0.3190  0.0929
 8275TIP3    H146240   0.337   3.962   1.533 -0.2926 -0.3725  0.1031
 8275TIP3    H246241   0.416   3.953   1.662 -1.0539 -2.3880  0.4498
 8276TIP3   OH246242   5.668   4.415  16.547  0.1369  0.2720 -0.0714
 8276TIP3    H146243   5.679   4.440  16.639  1.1718 -0.7224  0.0936
 8276TIP3    H246244   5.574   4.409  16.534  0.0123 -1.0292  1.3446
 8277TIP3   OH246245   5.809   5.630   3.275 -0.6620 -0.3635 -0.0695
 8277TIP3    H146246   5.735   5.601   3.328  0.0230 -1.8566  0.1111
 8277TIP3    H246247   5.813   5.567   3.203 -0.9123  1.0130 -1.3119
 8278TIP3   OH246248   2.526   4.853  15.968  0.3643 -0.0900 -0.2884
 8278TIP3    H146249   2.515   4.920  15.901 -0.7633 -0.4148 -0.4402
 8278TIP3    H246250   2.465   4.783  15.942  0.8564 -0.7724  0.3679
 8279TIP3   OH246251   3.953   4.947   3.154 -0.0544  0.3349 -0.1602
 8279TIP3    H146252   3.935   4.882   3.221 -0.1096  0.8116  0.2911
 8279TIP3    H246253   4.043   4.930   3.126 -0.5350 -0.8365 -1.0588
 8280TIP3   OH246254   1.417   4.677  15.815  0.5373  0.1835 -1.0988
 8280TIP3    H146255   1.504   4.712  15.834  1.5388 -1.9870 -1.4939
 8280TIP3    H246256   1.412   4.677  15.719 -0.2360  1.0746 -1.0630
 8281TIP3   OH246257   5.399   0.635  11.245  0.0889 -0.3642  0.2175
 8281TIP3    H146258   5.459   0.680  11.304 -1.0148  0.7678  0.5281
 8281TIP3    H246259   5.373   0.556  11.292 -0.5813  0.4009  1.1515
 8282TIP3   OH246260   2.059   0.173   1.762 -0.0613  0.1067  0.1291
 8282TIP3    H146261   2.015   0.208   1.685  0.3939  0.8014  0.1808
 8282TIP3    H246262   2.148   0.208   1.757  0.2890 -0.7315  0.3852
 8283TIP3   OH246263   0.526   3.390  12.271  0.2550  0.3023  0.1307
 8283TIP3    H146264   0.463   3.361  12.205  1.4120 -1.0214 -0.3999
 8283TIP3    H246265   0.585   3.449  12.225  1.2529 -0.8704 -0.0926
 8284TIP3   OH246266   5.956   3.329  15.743 -0.7710  0.4836  0.1186
 8284TIP3    H146267   5.900   3.286  15.678 -1.6680 -1.7672  2.2891
 8284TIP3    H246268   5.910   3.410  15.764 -2.2751 -0.4461  0.5069
 8285TIP3   OH246269   5.553   6.203  15.479  0.4732  0.7618 -0.0848
 8285TIP3    H146270   5.522   6.159  15.400 -2.3649  2.4212  0.0574
 8285TIP3    H246271   5.552   6.296  15.457 -0.3667  1.2579  1.8755
 8286TIP3   OH246272   4.569   1.398   4.380  0.0903 -0.7660  0.2120
 8286TIP3    H146273   4.566   1.361   4.291  2.5563 -2.5804  0.8175
 8286TIP3    H246274   4.661   1.423   4.391 -0.8067  2.1956  1.2041
 8287TIP3   OH246275   2.423   5.256   0.453  0.0444 -0.0238 -0.6822
 8287TIP3    H146276   2.353   5.272   0.389 -0.2562  0.1617 -0.3051
 8287TIP3    H246277   2.423   5.333   0.509  0.1977 -0.2605 -0.3536
 8288TIP3   OH246278   1.567   5.018  15.582 -0.1359 -0.4729 -0.1079
 8288TIP3    H146279   1.566   5.047  15.674  3.9966  0.6334 -0.3191
 8288TIP3    H246280   1.627   5.078  15.539  1.7386 -3.8996 -2.5239
 8289TIP3   OH246281   3.240   4.494  12.479  0.2179  0.1711  0.1655
 8289TIP3    H146282   3.332   4.473  12.496  0.0648 -0.5526  0.1214
 8289TIP3    H246283   3.223   4.573  12.530  0.6061 -0.2285  0.9153
 8290TIP3   OH246284   2.139   4.118  10.544  0.2062  0.6184 -0.1160
 8290TIP3    H146285   2.197   4.119  10.620  0.9055  0.8273 -0.6509
 8290TIP3    H246286   2.196   4.096  10.470 -0.2181  1.7547 -0.7918
 8291TIP3   OH246287   0.225   5.653  13.952 -0.7083 -0.2808  0.2555
 8291TIP3    H146288   0.286   5.681  13.884 -1.1509  1.1952  0.4523
 8291TIP3    H246289   0.143   5.636  13.905 -0.2406 -2.0208  0.0249
 8292TIP3   OH246290   4.380   2.475   2.958  0.5457 -0.1925 -0.0643
 8292TIP3    H146291   4.474   2.484   2.944  0.6272 -0.2806  0.4211
 8292TIP3    H246292   4.362   2.383   2.940  0.1519  0.3299 -2.4500
 8293TIP3   OH246293   2.724   4.149  15.507  0.5776  0.5401  1.0522
 8293TIP3    H146294   2.718   4.055  15.490 -0.6916  0.8178 -0.0778
 8293TIP3    H246295   2.806   4.175  15.465  0.9431 -0.0554  1.3818
 8294TIP3   OH246296   4.295   3.380   5.566 -0.3704  0.2077 -0.1034
 8294TIP3    H146297   4.353   3.451   5.596  3.6955 -4.1868  3.1244
 8294TIP3    H246298   4.219   3.387   5.624 -1.1018  3.2059 -1.3064
 8295TIP3   OH246299   4.762   1.114  14.261 -0.5267 -0.3950 -0.1768
 8295TIP3    H146300   4.701   1.187  14.272  0.7503  0.6715 -0.0281
 8295TIP3    H246301   4.837   1.137  14.316 -1.4362 -3.3823  2.4289
 8296TIP3   OH246302   6.045   0.490  13.818  0.1656 -0.1437 -0.3867
 8296TIP3    H146303   6.138   0.497  13.794  0.0774  0.0710 -0.6533
 8296TIP3    H246304   6.023   0.399  13.800  0.4547 -0.3260  0.1365
 8297TIP3   OH246305   3.826   5.057   5.469 -0.2902  0.0283  0.3608
 8297TIP3    H146306   3.885   5.021   5.403 -1.7255  1.4199 -1.7879
 8297TIP3    H246307   3.842   5.151   5.467 -1.7891  0.3040  0.5115
 8298TIP3   OH246308   2.171   4.781  16.368  0.1860  0.1810  0.2035
 8298TIP3    H146309   2.190   4.721  16.440 -1.3554 -0.7506 -0.1561
 8298TIP3    H246310   2.207   4.865  16.396  2.7121 -0.9631  0.5596
 8299TIP3   OH246311   3.529   0.459   2.716 -0.4307  0.1996 -0.1471
 8299TIP3    H146312   3.621   0.464   2.690 -0.7279 -0.6349 -1.4148
 8299TIP3    H246313   3.502   0.371   2.689 -1.6960  0.5687 -0.1044
 8300TIP3   OH246314   0.887   5.259  14.938  0.5529 -0.0070  0.5256
 8300TIP3    H146315   0.912   5.212  14.859  0.9219 -0.2681  0.8004
 8300TIP3    H246316   0.837   5.334  14.906 -0.2740 -0.7350  0.1030
 8301TIP3   OH246317   6.459   6.757  17.165 -0.3567 -0.1691  0.0405
 8301TIP3    H146318   6.368   6.784  17.173 -0.6499 -0.3791 -2.2214
 8301TIP3    H246319   6.508   6.820  17.218 -1.6063  1.2810 -0.5069
 8302TIP3   OH246320   2.010   0.253  11.223 -0.1166 -0.0421 -0.2368
 8302TIP3    H146321   1.932   0.203  11.197 -0.2388  0.8550 -1.6137
 8302TIP3    H246322   1.987   0.344  11.207 -0.5683  0.6810  4.0289
 8303TIP3   OH246323   2.478   4.858   2.431  0.2356  0.0816 -0.0333
 8303TIP3    H146324   2.487   4.948   2.401  0.3061 -0.0490 -0.4161
 8303TIP3    H246325   2.385   4.839   2.423 -0.0662  0.6988  1.7624
 8304TIP3   OH246326   4.720   6.760  15.923  0.3920 -0.2748 -0.2847
 8304TIP3    H146327   4.777   6.822  15.967 -0.5181 -0.6057  1.4063
 8304TIP3    H246328   4.668   6.720  15.994  0.1229 -2.0794 -1.4546
 8305TIP3   OH246329   2.379   3.702   0.416 -0.1217  0.2468  0.0313
 8305TIP3    H146330   2.318   3.678   0.346  0.1616  0.5924 -0.3437
 8305TIP3    H246331   2.403   3.792   0.395  1.5926 -0.3436 -0.6174
 8306TIP3   OH246332   3.295   4.079   4.040 -0.3949 -0.0199 -1.0118
 8306TIP3    H146333   3.265   4.079   3.949 -1.3748  4.3126 -0.8074
 8306TIP3    H246334   3.357   4.152   4.044  0.5772 -0.9380  1.5386
 8307TIP3   OH246335   3.876   4.784  11.564 -0.2206  0.4650  0.1531
 8307TIP3    H146336   3.868   4.813  11.473  0.1990  1.7970  0.5323
 8307TIP3    H246337   3.968   4.797  11.585 -0.4101  0.5963  0.9127
 8308TIP3   OH246338   0.162   1.618   3.814 -0.0075 -0.0026  0.2793
 8308TIP3    H146339   0.168   1.559   3.739  0.8461  2.5709 -1.7556
 8308TIP3    H246340   0.166   1.561   3.890 -1.0877 -2.7110 -1.6180
 8309TIP3   OH246341   6.136   5.278   5.350 -0.8857 -0.2540  0.1469
 8309TIP3    H146342   6.191   5.208   5.384 -0.9730 -0.7190 -0.6627
 8309TIP3    H246343   6.197   5.338   5.308 -0.7010  0.6854  1.7321
 8310TIP3   OH246344   1.113   5.759  16.118  0.4949  0.6621  0.8095
 8310TIP3    H146345   1.035   5.807  16.090  0.5514  0.1217 -0.3393
 8310TIP3    H246346   1.186   5.810  16.082  0.5631 -0.1373 -0.2334
 8311TIP3   OH246347   0.630   1.873   5.364  0.5316 -0.2035 -0.0817
 8311TIP3    H146348   0.707   1.924   5.389 -1.4878  1.7059  2.6021
 8311TIP3    H246349   0.591   1.922   5.292  0.0097  0.6675  0.7847
 8312TIP3   OH246350   4.758   3.119   5.779 -0.3722  0.2975  0.5255
 8312TIP3    H146351   4.816   3.196   5.783 -1.4379  1.1655 -0.5868
 8312TIP3    H246352   4.744   3.104   5.686  0.2403 -1.5942  0.7081
 8313TIP3   OH246353   5.287   0.999  13.082  0.3272 -0.0284 -0.1376
 8313TIP3    H146354   5.237   0.949  13.018  0.1980 -0.2275  0.1180
 8313TIP3    H246355   5.341   0.933  13.126 -0.2048 -0.0177  0.5391
 8314TIP3   OH246356   3.285   1.837   4.558 -0.1586  0.4560  0.2677
 8314TIP3    H146357   3.330   1.917   4.587  0.8368 -0.1823  0.5037
 8314TIP3    H246358   3.336   1.808   4.482 -2.4355  1.8327 -1.8802
 8315TIP3   OH246359   0.751   1.381   6.179  0.2108 -0.2947  0.0757
 8315TIP3    H146360   0.738   1.318   6.250 -0.2920 -0.2430  0.0331
 8315TIP3    H246361   0.773   1.327   6.103  1.9724 -0.2720  0.5486
 8316TIP3   OH246362   4.723   1.866  14.356 -0.2801 -0.1874 -0.5917
 8316TIP3    H146363   4.797   1.854  14.297 -0.4934  1.0715 -1.1224
 8316TIP3    H246364   4.646   1.857  14.300 -0.5462 -1.6051 -0.0203
 8317TIP3   OH246365   4.005   4.607   4.228  0.6759 -0.1753 -0.7581
 8317TIP3    H146366   4.073   4.601   4.161 -0.2159  0.8659 -1.7764
 8317TIP3    H246367   3.934   4.551   4.196 -0.3995  1.5625 -1.5036
 8318TIP3   OH246368   3.938   5.961  14.338  0.2107 -0.2890 -0.7110
 8318TIP3    H146369   3.987   5.950  14.419  0.3000 -2.9665 -1.0962
 8318TIP3    H246370   3.846   5.959  14.365  0.2357  1.6508 -0.3744
 8319TIP3   OH246371   6.139   0.088   0.805  0.0896 -0.9711 -0.7165
 8319TIP3    H146372   6.160   0.159   0.744 -0.7634  1.3211  1.5481
 8319TIP3    H246373   6.221   0.073   0.853 -0.0618 -0.6293 -0.3451
 8320TIP3   OH246374   2.557   1.182   0.443 -0.3473  0.5085 -0.4340
 8320TIP3    H146375   2.613   1.259   0.430  1.6464 -0.3398  2.6891
 8320TIP3    H246376   2.468   1.218   0.448  0.4545  2.4985  0.0076
 8321TIP3   OH246377   2.556   3.217  17.054  0.4179  0.2943 -0.1653
 8321TIP3    H146378   2.639   3.265  17.061  1.5364 -1.3532 -1.8016
 8321TIP3    H246379   2.579   3.126  17.072 -1.1265 -0.1068 -0.1877
 8322TIP3   OH246380   2.435   1.462   0.478 -0.3554 -0.3062  0.2565
 8322TIP3    H146381   2.421   1.485   0.386  2.7829 -1.6510 -0.6406
 8322TIP3    H246382   2.488   1.533   0.512  1.2873 -1.4180  0.0810
 8323TIP3   OH246383   2.694   5.934   0.241  0.0934  0.2205  0.4723
 8323TIP3    H146384   2.752   5.937   0.164  1.2329 -1.8182  1.2192
 8323TIP3    H246385   2.724   6.006   0.296  1.0301  0.0396  0.2109
 8324TIP3   OH246386   3.295   1.976  11.546 -0.0333  0.1520  0.0341
 8324TIP3    H146387   3.270   1.955  11.456 -0.9359  1.9546 -0.1465
 8324TIP3    H246388   3.309   1.891  11.587 -1.6136 -0.7547 -1.2372
 8325TIP3   OH246389   3.512   3.667  11.502  0.2764  0.1137  0.3016
 8325TIP3    H146390   3.569   3.677  11.426  0.0850 -0.0154  0.1387
 8325TIP3    H246391   3.474   3.579  11.492 -0.0937  0.2711  0.3086
 8326TIP3   OH246392   1.664   0.975   2.799 -0.3608  0.0798 -0.8310
 8326TIP3    H146393   1.661   1.043   2.867 -1.0394 -3.8883  3.3508
 8326TIP3    H246394   1.744   0.993   2.750  0.2539  3.0042  1.1262
 8327TIP3   OH246395   4.404   4.067  12.865  0.3223  0.2031 -0.4220
 8327TIP3    H146396   4.398   4.002  12.936  2.6116 -0.4822 -0.7988
 8327TIP3    H246397   4.422   4.014  12.787 -0.0211  1.1267 -1.1233
 8328TIP3   OH246398   6.493   5.598   3.748  0.0459 -0.3049  0.0104
 8328TIP3    H146399   6.556   5.614   3.678 -0.5416 -0.8537 -0.6614
 8328TIP3    H246400   6.517   5.512   3.783 -1.8637 -1.7102 -1.9704
 8329TIP3   OH246401   0.495   1.002  13.034 -0.3325 -0.1421 -0.1779
 8329TIP3    H146402   0.513   0.984  12.942  0.6200  0.8491 -0.1911
 8329TIP3    H246403   0.405   1.035  13.035  0.6369  2.5820 -1.1054
 8330TIP3   OH246404   5.306   6.297   3.644  0.0290 -0.1955  0.2057
 8330TIP3    H146405   5.375   6.320   3.706  0.5052 -0.9089 -0.0511
 8330TIP3    H246406   5.226   6.328   3.685  0.5228  0.8592  0.4003
 8331TIP3   OH246407   1.178   2.446  16.314  0.2778 -0.5902  0.2103
 8331TIP3    H146408   1.098   2.447  16.261  1.1786 -0.3071 -1.1549
 8331TIP3    H246409   1.246   2.417  16.254  1.4626  0.5232  0.9989
 8332TIP3   OH246410   0.981   0.116   4.337 -0.3076 -0.1262  0.3099
 8332TIP3    H146411   0.957   0.191   4.392  1.4418  2.3896 -2.2092
 8332TIP3    H246412   1.075   0.106   4.351  0.0981  0.3334 -1.8695
 8333TIP3   OH246413   1.791   4.761  16.745 -0.1595 -0.1907  0.3064
 8333TIP3    H146414   1.804   4.669  16.724  0.4862 -0.2474  0.9691
 8333TIP3    H246415   1.836   4.808  16.675 -2.5937 -0.3499 -1.4325
 8334TIP3   OH246416   4.565   5.390   4.241 -0.5407  0.0673  0.1335
 8334TIP3    H146417   4.574   5.320   4.305 -0.7793  1.3794  1.6193
 8334TIP3    H246418   4.472   5.411   4.240 -0.0840  2.3409  1.8672
 8335TIP3   OH246419   3.854   0.173  11.547 -0.1328 -0.4097  0.0333
 8335TIP3    H146420   3.910   0.152  11.473  0.4584  0.0038  0.3641
 8335TIP3    H246421   3.787   0.105  11.546  0.0160 -0.5539 -0.7272
 8336TIP3   OH246422   4.974   1.494   3.535 -0.3045  0.4275  0.1149
 8336TIP3    H146423   5.039   1.494   3.605 -1.1311  0.3369  0.8938
 8336TIP3    H246424   4.907   1.433   3.564 -0.6203  0.3293 -0.7954
 8337TIP3   OH246425   2.461   5.808  12.290  0.3551 -0.2332 -0.0823
 8337TIP3    H146426   2.462   5.891  12.338 -0.3397 -1.3418  1.9039
 8337TIP3    H246427   2.548   5.771  12.305 -0.7770 -1.8554  2.6407
 8338TIP3   OH246428   1.779   4.132  16.202 -0.2835 -0.2341 -0.0237
 8338TIP3    H146429   1.866   4.122  16.240 -0.3129 -0.7348 -0.0868
 8338TIP3    H246430   1.719   4.117  16.276 -0.3034  2.6826  0.6290
 8339TIP3   OH246431   3.293   3.742  17.214  0.6302 -0.6672 -0.0089
 8339TIP3    H146432   3.294   3.651  17.244  1.7287 -0.2635  1.2561
 8339TIP3    H246433   3.364   3.747  17.150  1.6503 -0.3318  1.1259
 8340TIP3   OH246434   1.319   5.669  14.269 -0.3185  0.3726 -0.0523
 8340TIP3    H146435   1.241   5.722  14.253 -0.8833 -0.6526 -0.7244
 8340TIP3    H246436   1.354   5.651  14.181 -0.8870 -1.4816  0.0727
 8341TIP3   OH246437   6.193   1.067  17.112 -0.4229  0.3050 -0.2258
 8341TIP3    H146438   6.109   1.071  17.065 -0.5738  1.1186  0.1212
 8341TIP3    H246439   6.180   0.997  17.176 -0.4856 -0.2743 -0.8595
 8342TIP3   OH246440   1.779   3.527   0.252  0.4985  0.1489 -0.0940
 8342TIP3    H146441   1.856   3.561   0.297  0.1505  0.6814  0.1082
 8342TIP3    H246442   1.707   3.580   0.286  0.0499 -0.3340 -0.2953
 8343TIP3   OH246443   3.591   2.782   0.238  0.2331  0.1084 -0.0111
 8343TIP3    H146444   3.562   2.871   0.216 -1.0570 -0.4624 -0.6206
 8343TIP3    H246445   3.561   2.768   0.328  0.2742  0.2194  0.0196
 8344TIP3   OH246446   4.959   3.769   4.667  0.1173 -0.1543 -0.5890
 8344TIP3    H146447   4.882   3.815   4.701  0.8845 -0.5684  1.8690
 8344TIP3    H246448   4.936   3.676   4.670  1.5347 -0.4869  2.6312
 8345TIP3   OH246449   1.446   2.387  16.472 -0.1870 -0.0196  0.1054
 8345TIP3    H146450   1.408   2.463  16.516 -0.2752 -0.1081  0.1826
 8345TIP3    H246451   1.371   2.332  16.451  0.0643 -1.0959  1.9388
 8346TIP3   OH246452   5.535   3.795   2.986  0.0399 -1.2596  0.3783
 8346TIP3    H146453   5.516   3.813   2.894  2.3247 -2.4199 -0.3410
 8346TIP3    H246454   5.485   3.715   3.005 -2.5469  0.4091  0.9413
 8347TIP3   OH246455   3.350   0.495   6.020 -0.2481 -0.2246 -0.4358
 8347TIP3    H146456   3.397   0.431   6.074  0.0649  0.8215  0.5592
 8347TIP3    H246457   3.382   0.481   5.931 -0.5311 -1.7619 -0.2936
 8348TIP3   OH246458   5.073   4.245  16.927  0.2472 -0.0789  0.1429
 8348TIP3    H146459   5.076   4.159  16.968  0.0917  0.2174  0.7846
 8348TIP3    H246460   4.991   4.284  16.958  0.2022  0.2087 -0.3272
 8349TIP3   OH246461   4.397   4.663   0.164 -0.1875 -0.1790  0.2328
 8349TIP3    H146462   4.346   4.742   0.147  0.3592 -0.2166 -1.6715
 8349TIP3    H246463   4.356   4.595   0.110  3.7154  0.5292 -3.9414
 8350TIP3   OH246464   0.869   6.699   2.426  0.3063  0.3660 -0.0075
 8350TIP3    H146465   0.785   6.661   2.401  0.3188  0.4881 -0.2326
 8350TIP3    H246466   0.858   6.793   2.413  1.0093  0.2345 -1.5953
 8351TIP3   OH246467   1.438   4.266   2.634 -0.1653 -0.3978  0.0796
 8351TIP3    H146468   1.356   4.247   2.679  0.1450 -3.5667 -0.5717
 8351TIP3    H246469   1.414   4.327   2.564 -1.2955  1.5308  2.1063
 8352TIP3   OH246470   2.248   3.258  17.178 -0.6896 -0.3281 -0.2799
 8352TIP3    H146471   2.236   3.235  17.086  2.6189  1.1372 -1.1626
 8352TIP3    H246472   2.216   3.348  17.185 -0.1008 -0.1180 -0.2287
 8353TIP3   OH246473   4.512   1.033   1.571  0.3939  0.2140 -0.0202
 8353TIP3    H146474   4.468   1.104   1.619  1.3897  0.8833 -0.0916
 8353TIP3    H246475   4.514   0.961   1.634  2.1740  1.2633  1.1685
 8354TIP3   OH246476   3.630   3.000  12.959 -0.8653 -0.6928  0.4634
 8354TIP3    H146477   3.723   2.985  12.973 -0.4416  1.2120 -0.1385
 8354TIP3    H246478   3.623   3.094  12.942 -2.9584 -0.7094  1.0185
 8355TIP3   OH246479   1.075   2.092  11.411 -0.1595  0.0371 -0.4620
 8355TIP3    H146480   1.109   2.003  11.419  0.7953  0.3281 -1.2003
 8355TIP3    H246481   1.120   2.141  11.480 -1.8251 -0.3782  0.9478
 8356TIP3   OH246482   0.753   5.715   2.605 -0.0501  0.0979 -0.1419
 8356TIP3    H146483   0.802   5.796   2.591 -0.1502  0.3187  0.7370
 8356TIP3    H246484   0.677   5.723   2.547  0.1872  0.4198 -0.4137
 8357TIP3   OH246485   6.366   0.120   2.330  0.1918 -1.1033 -0.1404
 8357TIP3    H146486   6.327   0.034   2.343 -0.5559 -0.6521  0.5852
 8357TIP3    H246487   6.325   0.152   2.250  0.1989 -1.2604 -0.2083
 8358TIP3   OH246488   5.751   6.164   6.455 -0.1214 -0.0062 -0.4048
 8358TIP3    H146489   5.834   6.143   6.412  0.2849 -1.4015  1.0090
 8358TIP3    H246490   5.703   6.081   6.455 -2.0402  1.0596 -2.2850
 8359TIP3   OH246491   4.750   3.450  15.831 -0.3304 -0.6273 -0.6238
 8359TIP3    H146492   4.798   3.454  15.748 -1.7816 -1.9120 -1.5494
 8359TIP3    H246493   4.817   3.464  15.898  1.5443 -3.3046 -1.8247
 8360TIP3   OH246494   0.661   6.094   5.249  0.8118 -0.5555 -0.0084
 8360TIP3    H146495   0.616   6.177   5.258 -0.9553 -1.1838 -2.3600
 8360TIP3    H246496   0.754   6.116   5.255  0.3126  1.3116  1.1746
 8361TIP3   OH246497   5.189   4.447  16.740  0.2969 -0.3203 -0.7336
 8361TIP3    H146498   5.150   4.381  16.797 -2.2820  1.1368 -0.7683
 8361TIP3    H246499   5.239   4.504  16.799 -0.2957 -0.2947 -0.2537
 8362TIP3   OH246500   4.750   5.574   3.205 -0.5063 -0.4420 -0.1903
 8362TIP3    H146501   4.820   5.510   3.188 -0.3603 -0.4178  0.3142
 8362TIP3    H246502   4.768   5.646   3.144  1.0615  0.4517  1.2574
 8363TIP3   OH246503   1.520   6.784   5.273 -0.0647  0.1767 -0.1950
 8363TIP3    H146504   1.553   6.732   5.347  0.3640  0.7718  0.0338
 8363TIP3    H246505   1.587   6.775   5.205 -0.0962  0.2503 -0.2360
 8364TIP3   OH246506   3.633   0.966   3.331 -0.0514  0.0161 -0.2329
 8364TIP3    H146507   3.684   0.916   3.267  2.4470  0.9261  0.9742
 8364TIP3    H246508   3.699   1.007   3.387 -2.1821 -0.1987  2.5026
 8365TIP3   OH246509   0.803   0.877  14.478  0.0310 -0.0705 -0.2023
 8365TIP3    H146510   0.883   0.852  14.524  0.0741  0.7473  0.1777
 8365TIP3    H246511   0.830   0.895  14.388  0.2784  0.2501 -0.0626
 8366TIP3   OH246512   0.343   2.464   5.601  0.0623 -0.7158  0.4688
 8366TIP3    H146513   0.331   2.369   5.604  1.0206 -0.8705 -0.3808
 8366TIP3    H246514   0.433   2.477   5.572  0.1042  0.4603  1.0575
 8367TIP3   OH246515   2.583   1.088   3.151  0.2876 -0.3471  0.3394
 8367TIP3    H146516   2.538   1.040   3.081 -0.5088 -1.6797  1.7201
 8367TIP3    H246517   2.539   1.173   3.155  0.6933 -0.0651 -1.1267
 8368TIP3   OH246518   2.568   5.444  10.512  0.3993 -0.6050 -0.2677
 8368TIP3    H146519   2.562   5.539  10.506  0.1590 -0.6295 -0.4049
 8368TIP3    H246520   2.662   5.425  10.510  0.5217 -0.2593  1.2716
 8369TIP3   OH246521   3.648   5.835   4.554 -0.0898  0.3937  0.8447
 8369TIP3    H146522   3.559   5.825   4.587  0.2955 -0.3215  1.6864
 8369TIP3    H246523   3.665   5.929   4.557 -0.4051  0.4261  1.7745
 8370TIP3   OH246524   2.498   0.902  11.605 -0.3986  0.2576  0.2722
 8370TIP3    H146525   2.403   0.896  11.611 -0.2580 -0.9332  1.3495
 8370TIP3    H246526   2.519   0.989  11.640 -1.1024  0.6497 -0.2644
 8371TIP3   OH246527   4.754   0.182   2.039 -0.3289 -0.1044 -0.0226
 8371TIP3    H146528   4.756   0.222   1.952  0.1227 -0.0769 -0.0027
 8371TIP3    H246529   4.758   0.256   2.100  1.3147 -0.2001  0.0127
 8372TIP3   OH246530   5.391   1.731   0.489  0.0356  0.0155 -0.0328
 8372TIP3    H146531   5.409   1.788   0.414  0.1398 -0.4455 -0.3579
 8372TIP3    H246532   5.337   1.785   0.547 -0.0740  0.3651 -0.4529
 8373TIP3   OH246533   5.672   1.026   5.609 -0.5256 -0.5696  0.7593
 8373TIP3    H146534   5.646   1.055   5.521 -0.8749  0.9722  1.3446
 8373TIP3    H246535   5.601   0.967   5.637 -0.8218 -0.4257  0.3239
 8374TIP3   OH246536   0.650   3.968   6.120  0.0196 -0.4861 -0.3340
 8374TIP3    H146537   0.669   4.027   6.047  0.3781 -0.7241 -0.4327
 8374TIP3    H246538   0.590   4.018   6.176  0.7016  0.1611 -0.1689
 8375TIP3   OH246539   6.181   3.152   1.600 -0.0723  0.1958 -0.4396
 8375TIP3    H146540   6.263   3.173   1.555  1.0569 -1.9959  0.4918
 8375TIP3    H246541   6.207   3.136   1.691 -1.6239  0.0221 -0.0072
 8376TIP3   OH246542   2.478   1.419  15.371 -0.1961 -0.0674 -0.0244
 8376TIP3    H146543   2.522   1.363  15.308  3.1790  1.9707  0.3948
 8376TIP3    H246544   2.499   1.508  15.343 -2.0938  0.9419  1.6028
 8377TIP3   OH246545   0.047   3.711   1.368 -0.3791 -0.7164  0.0029
 8377TIP3    H146546   0.042   3.639   1.305  2.6984 -1.1393  0.1750
 8377TIP3    H246547   0.110   3.681   1.433 -0.5946  1.3411  1.1953
 8378TIP3   OH246548   2.798   3.185  13.336 -0.0302  0.0578  0.6450
 8378TIP3    H146549   2.781   3.101  13.294  0.0386 -0.1125  0.9557
 8378TIP3    H246550   2.734   3.191  13.406 -1.2005  1.0716 -0.4897
 8379TIP3   OH246551   2.393   4.495  12.000  0.1492 -0.4514 -0.1139
 8379TIP3    H146552   2.467   4.542  11.962 -0.0923  0.1009  0.0905
 8379TIP3    H246553   2.320   4.557  11.995 -0.4153 -1.1603 -0.7366
 8380TIP3   OH246554   1.187   1.397   2.440  0.2439 -0.5077  0.1332
 8380TIP3    H146555   1.098   1.365   2.456  0.4375 -0.9662  0.3120
 8380TIP3    H246556   1.178   1.457   2.366 -0.3689  0.1805  0.7502
 8381TIP3   OH246557   0.110   1.321   1.072  0.4553 -0.1397 -0.1686
 8381TIP3    H146558   0.104   1.397   1.130  1.7621  0.8170 -1.2452
 8381TIP3    H246559   0.025   1.279   1.079  0.5332  0.0466  2.3123
 8382TIP3   OH246560   3.172   5.257  11.345 -0.1739  0.1209 -0.4556
 8382TIP3    H146561   3.094   5.206  11.364 -0.7411  1.4685  0.9115
 8382TIP3    H246562   3.231   5.240  11.418  0.1580  0.3984 -0.6559
 8383TIP3   OH246563   4.929   3.900   5.444 -0.5247 -0.0410  0.3909
 8383TIP3    H146564   4.983   3.876   5.519  0.5723 -1.6522 -0.8715
 8383TIP3    H246565   4.914   3.817   5.398 -1.4247  0.8697 -0.9954
 8384TIP3   OH246566   5.726   2.532   2.439  0.2327 -0.1044 -0.4585
 8384TIP3    H146567   5.820   2.530   2.419  0.0814 -2.7164 -1.1305
 8384TIP3    H246568   5.701   2.439   2.444 -1.8602  0.5427  1.8892
 8385TIP3   OH246569   2.629   2.771   4.629 -0.0112  0.2497 -0.6515
 8385TIP3    H146570   2.632   2.832   4.555  2.3471  1.5783  0.4825
 8385TIP3    H246571   2.707   2.717   4.619  0.3021  0.4093  0.8301
 8386TIP3   OH246572   0.015   4.660   1.353  0.7069 -0.1217  0.2691
 8386TIP3    H146573  -0.006   4.745   1.392  3.4585  0.0606  1.4444
 8386TIP3    H246574   0.006   4.598   1.425  0.4207 -0.5793 -0.1607
 8387TIP3   OH246575   5.225   2.769  13.903 -0.0588  0.2402 -0.2273
 8387TIP3    H146576   5.235   2.688  13.954 -0.6442  0.2021 -0.1754
 8387TIP3    H246577   5.299   2.767  13.842  0.1610 -0.1361  0.0451
 8388TIP3   OH246578   1.717   4.831   6.513 -0.2000 -0.0418  0.3282
 8388TIP3    H146579   1.803   4.855   6.547 -0.6405  0.1541  1.3294
 8388TIP3    H246580   1.713   4.736   6.521 -0.5857  0.0613  1.5599
 8389TIP3   OH246581   4.460   1.204   4.917 -0.5815 -0.3275  0.1627
 8389TIP3    H146582   4.376   1.234   4.952 -0.2478 -0.9521  1.5317
 8389TIP3    H246583   4.440   1.122   4.872 -1.0488  0.5862 -1.3441
 8390TIP3   OH246584   2.837   4.434  14.266  0.1896  0.5550 -0.0471
 8390TIP3    H146585   2.772   4.365  14.282  0.9875 -0.2186 -0.0774
 8390TIP3    H246586   2.907   4.390  14.216  1.7660  0.8082  1.8672
 8391TIP3   OH246587   5.119   1.872  14.657 -0.3410 -0.1517  0.4023
 8391TIP3    H146588   5.075   1.936  14.601 -0.6835  0.1688  1.0290
 8391TIP3    H246589   5.075   1.881  14.742  0.3685 -0.4287  0.8010
 8392TIP3   OH246590   2.663   6.756  15.153 -0.1619 -0.2418 -0.3689
 8392TIP3    H146591   2.640   6.728  15.065 -2.9227  0.2834  0.1415
 8392TIP3    H246592   2.668   6.852  15.147 -0.3049 -0.2065  0.0370
 8393TIP3   OH246593   1.150   4.742   2.084 -0.0796  0.2799  0.0214
 8393TIP3    H146594   1.156   4.832   2.115 -1.6636  0.6227 -0.6388
 8393TIP3    H246595   1.063   4.736   2.043  0.6554 -1.0926 -1.3770
 8394TIP3   OH246596   2.517   0.399   2.201  0.0399  0.5555 -0.0094
 8394TIP3    H146597   2.458   0.407   2.126  1.3027  3.2268 -0.7888
 8394TIP3    H246598   2.601   0.376   2.163  0.3787  0.5982  0.7121
 8395TIP3   OH246599   0.430   3.385   5.339  0.0926  0.3624  0.7276
 8395TIP3    H146600   0.405   3.301   5.301 -0.3876  1.7208 -2.1067
 8395TIP3    H246601   0.348   3.421   5.373 -0.2087  0.8667 -0.5096
 8396TIP3   OH246602   2.623   0.979   1.395  0.1956  0.3756 -0.1584
 8396TIP3    H146603   2.670   1.046   1.446  0.4169  1.6175 -1.9508
 8396TIP3    H246604   2.557   1.028   1.347 -1.4796 -1.0892  0.6207
 8397TIP3   OH246605   5.412   4.789   5.553  0.2758 -0.1121 -0.2506
 8397TIP3    H146606   5.460   4.746   5.482 -1.9504 -0.3204 -1.6796
 8397TIP3    H246607   5.447   4.878   5.555  1.7666 -0.6781 -0.2478
 8398TIP3   OH246608   3.369   4.392   6.820  0.5429 -0.1235  0.3093
 8398TIP3    H146609   3.285   4.424   6.852 -0.0162 -1.8653  0.6317
 8398TIP3    H246610   3.426   4.468   6.822 -1.7615  1.7878 -2.6123
 8399TIP3   OH246611   6.393   2.666  11.167 -0.1752 -0.0972 -0.4761
 8399TIP3    H146612   6.320   2.608  11.146  0.4760 -0.7001 -1.0546
 8399TIP3    H246613   6.398   2.664  11.263  0.1817 -1.3975 -0.5173
 8400TIP3   OH246614   1.947   5.773  16.236  0.6444 -0.6248 -0.3569
 8400TIP3    H146615   1.957   5.680  16.259  0.4190 -0.9967 -1.7464
 8400TIP3    H246616   1.937   5.817  16.321 -0.5613 -2.0295  0.2607
 8401TIP3   OH246617   6.743   4.703   5.347 -0.4848 -0.1299  0.3060
 8401TIP3    H146618   6.659   4.689   5.303 -0.4466 -2.6236  0.9568
 8401TIP3    H246619   6.800   4.634   5.314  1.0099  0.9268  0.6283
 8402TIP3   OH246620   6.199   5.662   0.841  0.1017  0.0056  0.5385
 8402TIP3    H146621   6.173   5.592   0.900 -0.1331 -1.1818 -0.9480
 8402TIP3    H246622   6.124   5.721   0.839  0.7192  0.9061  2.6432
 8403TIP3   OH246623   5.584   3.066   2.058  0.1503  0.3973  0.0830
 8403TIP3    H146624   5.533   2.990   2.085 -0.6971  0.9892  0.1840
 8403TIP3    H246625   5.628   3.096   2.138 -0.3374  0.6298  0.2638
 8404TIP3   OH246626   3.894   2.272  15.645  0.1868  0.4801  0.3309
 8404TIP3    H146627   3.871   2.196  15.591 -0.2893  0.8069  0.0759
 8404TIP3    H246628   3.820   2.284  15.703  0.0120  1.1037 -0.0204
 8405TIP3   OH246629   2.863   3.298   5.137 -0.5743  0.0015 -0.2748
 8405TIP3    H146630   2.936   3.359   5.133  1.3710 -2.0559  2.1643
 8405TIP3    H246631   2.806   3.332   5.207  0.1068 -0.4952  0.5374
 8406TIP3   OH246632   6.130   5.059  11.514  0.1521 -0.3005 -0.7676
 8406TIP3    H146633   6.132   5.001  11.590  0.6315 -0.1146 -0.6356
 8406TIP3    H246634   6.205   5.117  11.526  0.6512 -0.7406 -1.7590
 8407TIP3   OH246635   5.690   3.139  14.655 -0.1062  0.2969 -0.5703
 8407TIP3    H146636   5.611   3.185  14.627 -0.8504 -1.7469 -1.9404
 8407TIP3    H246637   5.682   3.133  14.750 -2.4721 -1.3524 -0.8204
 8408TIP3   OH246638   6.275   0.560  13.062 -0.3948  0.0709  0.4786
 8408TIP3    H146639   6.209   0.492  13.050 -2.2330  1.8873 -0.0032
 8408TIP3    H246640   6.225   0.637  13.091  1.7396  0.9642  1.9180
 8409TIP3   OH246641   6.728   0.009  13.289 -0.2095 -0.1274  0.1537
 8409TIP3    H146642   6.647   0.047  13.255 -0.2058  0.1769  0.4745
 8409TIP3    H246643   6.785  -0.000  13.212  0.1547  1.4471  0.2082
 8410TIP3   OH246644   3.231   2.685   3.582 -0.5722 -0.8268 -0.1478
 8410TIP3    H146645   3.319   2.708   3.612 -0.4951 -1.3837  0.0640
 8410TIP3    H246646   3.189   2.769   3.563  0.3496 -0.5983 -1.2420
 8411TIP3   OH246647   4.477   6.075   0.352  0.0417 -0.4538  0.5686
 8411TIP3    H146648   4.527   6.083   0.434  0.5595 -1.4501  0.3594
 8411TIP3    H246649   4.483   6.162   0.312 -0.5874  0.1708  1.8017
 8412TIP3   OH246650   6.521   0.546   3.558  0.1734 -0.5175 -0.5320
 8412TIP3    H146651   6.547   0.638   3.565 -1.8051 -0.1250  2.5992
 8412TIP3    H246652   6.428   0.546   3.582  0.1466 -3.3407 -0.4735
 8413TIP3   OH246653   1.251   6.756  11.637 -0.4028  0.5466 -0.0092
 8413TIP3    H146654   1.196   6.679  11.620 -0.7175  0.4874  1.2215
 8413TIP3    H246655   1.248   6.805  11.555  0.4592 -1.1353 -1.0940
 8414TIP3   OH246656   5.299   5.748  15.040 -0.2591  0.1249  0.4377
 8414TIP3    H146657   5.230   5.794  14.993  1.1680  0.8485 -0.9847
 8414TIP3    H246658   5.288   5.656  15.012 -0.8476  0.1771  0.4786
 8415TIP3   OH246659   4.995   3.189  16.856  0.0437 -0.2314 -0.7789
 8415TIP3    H146660   5.075   3.140  16.835 -1.1782 -2.2570 -0.8309
 8415TIP3    H246661   4.985   3.178  16.951 -0.8571 -1.1058 -0.9576
 8416TIP3   OH246662   0.029   2.875  16.529  0.4759  0.2839 -0.7259
 8416TIP3    H146663  -0.038   2.941  16.544 -0.8463 -1.0606 -0.5924
 8416TIP3    H246664   0.107   2.910  16.571 -0.6899  0.9120  0.9692
 8417TIP3   OH246665   5.042   5.624  11.457  0.0336 -0.1819  0.2641
 8417TIP3    H146666   5.046   5.544  11.510  0.6084 -0.3936 -0.0955
 8417TIP3    H246667   4.949   5.635  11.436  0.0035 -0.9834 -0.0418
 8418TIP3   OH246668   5.577   6.615  14.368 -0.1479  0.0429  0.2080
 8418TIP3    H146669   5.586   6.551  14.297 -0.6987 -0.5603  0.6752
 8418TIP3    H246670   5.489   6.651  14.358 -0.3624 -0.3075  0.7952
 8419TIP3   OH246671   1.401   3.260  11.550 -0.1058 -0.6665  0.3246
 8419TIP3    H146672   1.365   3.176  11.576 -0.1578 -0.8989 -0.4610
 8419TIP3    H246673   1.329   3.303  11.503  0.4594 -0.9114 -0.7829
 8420TIP3   OH246674   0.074   0.336   1.350  0.1417  0.4235 -0.4257
 8420TIP3    H146675   0.060   0.282   1.427 -0.7051  0.3974 -0.5918
 8420TIP3    H246676   0.015   0.411   1.362 -1.0870 -0.2995 -1.7300
 8421TIP3   OH246677   1.089   3.784   3.971 -0.2398 -0.0931  0.4914
 8421TIP3    H146678   1.060   3.772   4.061 -0.8880  1.4576  0.5154
 8421TIP3    H246679   1.008   3.779   3.919 -0.0524  0.4064  0.1460
 8422TIP3   OH246680   0.747   6.620  12.086 -0.5068  0.3780 -0.2473
 8422TIP3    H146681   0.769   6.608  11.994 -2.2352  1.1037 -0.7593
 8422TIP3    H246682   0.734   6.531  12.119  0.5680  0.0878 -0.5694
 8423TIP3   OH246683   0.983   3.225   4.340  0.0235  0.5821 -0.5639
 8423TIP3    H146684   1.028   3.255   4.262 -0.7150 -0.5603 -1.4485
 8423TIP3    H246685   1.035   3.152   4.372 -0.1636  0.4757 -0.4982
 8424TIP3   OH246686   0.874   5.297  15.665 -0.4051  0.1934 -0.4867
 8424TIP3    H146687   0.961   5.278  15.628 -1.1176 -1.6261 -1.2929
 8424TIP3    H246688   0.885   5.381  15.709  1.4286  0.6399 -1.7276
 8425TIP3   OH246689   3.134   2.937   2.931 -0.1149  0.3662 -0.0035
 8425TIP3    H146690   3.186   2.863   2.899 -0.8015  0.1807 -0.6957
 8425TIP3    H246691   3.158   3.010   2.873 -0.0169  0.4908  0.1927
 8426TIP3   OH246692   1.102   6.200   4.416  0.4827  0.3851  0.3305
 8426TIP3    H146693   1.022   6.150   4.432 -0.2800  1.7769  0.9264
 8426TIP3    H246694   1.171   6.134   4.411 -0.4652 -0.7029  1.3835
 8427TIP3   OH246695   1.998   3.756   5.928 -0.1424  0.2172 -0.3934
 8427TIP3    H146696   2.016   3.664   5.947  2.0490  0.7786  0.3781
 8427TIP3    H246697   1.948   3.787   6.004 -2.4485 -0.7489 -1.4626
 8428TIP3   OH246698   5.799   1.399   1.270  0.4282  0.0446 -0.2943
 8428TIP3    H146699   5.809   1.494   1.260  1.3664 -0.1065 -0.8172
 8428TIP3    H246700   5.856   1.362   1.203  0.2837 -0.8993  0.1022
 8429TIP3   OH246701   4.943   3.377   5.686 -0.1619 -0.3869 -0.4224
 8429TIP3    H146702   5.002   3.350   5.757  2.4807 -0.2402 -2.4468
 8429TIP3    H246703   4.923   3.469   5.705 -1.0945 -0.8980  1.1610
 8430TIP3   OH246704   3.030   6.440  14.201  0.4612 -0.1215 -0.2576
 8430TIP3    H146705   3.014   6.438  14.295  3.0379  0.7045  0.2434
 8430TIP3    H246706   2.944   6.428  14.161 -0.8712  0.9911  2.2038
 8431TIP3   OH246707   2.779   0.628   0.823 -0.3182  0.8308  0.8173
 8431TIP3    H146708   2.819   0.621   0.910  1.4971  0.5271 -0.0155
 8431TIP3    H246709   2.774   0.722   0.806  0.7564  0.8657  0.6312
 8432TIP3   OH246710   2.745   6.579   2.933  0.1953 -0.3805  0.3199
 8432TIP3    H146711   2.704   6.609   3.014 -0.3912 -1.5715  0.4692
 8432TIP3    H246712   2.837   6.565   2.957  0.4461  1.0987  0.2903
 8433TIP3   OH246713   6.084   6.496   0.961  0.0497  0.0328 -1.1318
 8433TIP3    H146714   6.048   6.545   1.036  2.9421 -1.4305  1.3504
 8433TIP3    H246715   6.124   6.564   0.906 -0.6351  0.9835 -0.4883
 8434TIP3   OH246716   0.982   2.202   6.205  0.3859 -0.6565 -0.0154
 8434TIP3    H146717   1.013   2.220   6.293  1.2510  1.2770 -0.6922
 8434TIP3    H246718   0.917   2.270   6.188 -0.0707 -1.2648 -0.7179
 8435TIP3   OH246719   0.731   1.965  12.512 -0.0729 -0.4050  0.2285
 8435TIP3    H146720   0.742   1.884  12.463  0.4688 -0.8442  1.0683
 8435TIP3    H246721   0.820   1.988  12.540 -0.2016  0.5525 -0.1213
 8436TIP3   OH246722   6.493   0.222   5.914 -0.7174  0.3897  0.2253
 8436TIP3    H146723   6.544   0.286   5.863 -1.5511  0.0313 -1.0707
 8436TIP3    H246724   6.493   0.258   6.003  2.2415  0.1446  0.3995
 8437TIP3   OH246725   1.418   0.468  17.212  0.2192  0.0677  0.0233
 8437TIP3    H146726   1.406   0.391  17.267  2.5967 -0.4747 -0.1355
 8437TIP3    H246727   1.449   0.433  17.129  1.3118  1.1754 -0.0521
 8438TIP3   OH246728   3.754   3.985  11.269  0.2271 -0.0113 -0.6971
 8438TIP3    H146729   3.789   3.986  11.359  0.0034  0.0778 -0.6106
 8438TIP3    H246730   3.722   4.074  11.255 -1.9832 -0.6580  0.0213
 8439TIP3   OH246731   1.130   2.350   3.205 -0.2420  0.2809 -0.5141
 8439TIP3    H146732   1.175   2.396   3.276 -2.5367  1.4941  0.2226
 8439TIP3    H246733   1.099   2.268   3.246 -0.3748  0.3467 -0.4819
 8440TIP3   OH246734   2.342   3.205  10.475 -0.4541  0.8702  0.0614
 8440TIP3    H146735   2.334   3.118  10.435 -1.8228  0.6408  0.8005
 8440TIP3    H246736   2.390   3.257  10.410 -0.4310 -0.1876 -0.7812
 8441TIP3   OH246737   3.000   2.824   5.605 -0.4294 -0.1871  0.0773
 8441TIP3    H146738   2.978   2.912   5.636 -1.5323 -0.6562  0.6503
 8441TIP3    H246739   2.955   2.815   5.522  1.4470  0.5782 -1.0443
 8442TIP3   OH246740   0.699   2.933  14.097 -0.3280  0.0245 -0.0439
 8442TIP3    H146741   0.705   2.972  14.010  0.5893  1.0316  0.4439
 8442TIP3    H246742   0.684   3.008  14.155 -0.7090 -0.6107  0.6782
 8443TIP3   OH246743   1.508   2.944   1.396  0.4437 -0.0539  0.2179
 8443TIP3    H146744   1.475   2.880   1.459 -0.7048 -0.6888 -1.0113
 8443TIP3    H246745   1.597   2.962   1.424  0.0438 -0.5681  1.8415
 8444TIP3   OH246746   2.705   1.860   6.124  0.4258 -0.0889  0.3380
 8444TIP3    H146747   2.676   1.909   6.048 -1.5976 -0.4634  0.8292
 8444TIP3    H246748   2.760   1.920   6.173 -0.3529  1.0038 -0.1196
 8445TIP3   OH246749   4.950   3.930  14.583  0.0127 -0.4378 -0.3182
 8445TIP3    H146750   5.006   3.858  14.609  0.2408 -1.1164 -2.5544
 8445TIP3    H246751   4.989   3.963  14.502 -0.5754  1.6515  0.1990
 8446TIP3   OH246752   2.149   2.778  13.514 -0.3216  0.3371  0.1032
 8446TIP3    H146753   2.180   2.688  13.525  1.1307  0.3616 -3.1355
 8446TIP3    H246754   2.221   2.833  13.546 -0.6708  0.3816  0.8339
 8447TIP3   OH246755   1.597   6.339  16.783  0.0975  0.4135  0.3100
 8447TIP3    H146756   1.652   6.416  16.766  0.3096  0.0711 -0.5697
 8447TIP3    H246757   1.614   6.280  16.709  0.1592 -0.6125  1.1326
 8448TIP3   OH246758   5.423   0.991   4.987  0.6393  0.3714 -0.1065
 8448TIP3    H146759   5.448   1.038   4.907  1.1439  0.1039 -0.1072
 8448TIP3    H246760   5.402   0.903   4.958  0.5278  0.3561  0.0176
 8449TIP3   OH246761   0.484   6.777   5.072  0.5272 -0.3350  0.4859
 8449TIP3    H146762   0.514   6.865   5.096  0.1960 -0.0912  0.0093
 8449TIP3    H246763   0.450   6.786   4.983 -1.9061 -0.3840  1.3588
 8450TIP3   OH246764   4.049   4.993   2.847  0.3465  0.1463  0.0289
 8450TIP3    H146765   4.027   4.925   2.783  1.9135  0.0005 -0.3729
 8450TIP3    H246766   4.107   4.949   2.910  0.8543  0.9499  0.1250
 8451TIP3   OH246767   5.550   1.961   1.135 -0.6570  0.6049  0.3783
 8451TIP3    H146768   5.543   1.916   1.219  0.1534 -1.7921 -0.8004
 8451TIP3    H246769   5.581   2.049   1.158  4.0392 -1.4087  2.2920
 8452TIP3   OH246770   0.483   6.425   3.734  0.1239 -0.3566 -0.3238
 8452TIP3    H146771   0.424   6.453   3.665 -0.8138 -0.7874  0.2898
 8452TIP3    H246772   0.425   6.399   3.806  1.0549 -0.7869  0.2813
 8453TIP3   OH246773   0.665   4.334  13.472 -0.6938  0.3073  0.3411
 8453TIP3    H146774   0.585   4.386  13.467 -0.5386  0.6148  1.0534
 8453TIP3    H246775   0.635   4.248  13.504 -0.5969  0.7562  1.6725
 8454TIP3   OH246776   3.038   0.090   4.957  0.1496 -0.2649  0.1106
 8454TIP3    H146777   3.114   0.033   4.946  1.0534  0.6625  1.4631
 8454TIP3    H246778   2.980   0.042   5.016 -0.5276 -1.1657 -1.2687
 8455TIP3   OH246779   2.396   0.702   2.328 -0.5443  0.4619  0.1387
 8455TIP3    H146780   2.320   0.700   2.386 -0.4494  2.1902  0.3590
 8455TIP3    H246781   2.393   0.619   2.281 -2.1816  0.2242  0.6379
 8456TIP3   OH246782   0.934   0.613  14.010 -0.1827  0.0732 -0.3018
 8456TIP3    H146783   0.885   0.689  14.041  1.2444  0.8286  0.1238
 8456TIP3    H246784   1.014   0.649  13.973 -0.9674 -0.9684 -3.1443
 8457TIP3   OH246785   6.722   1.677   0.435 -0.6467  0.7258 -0.2401
 8457TIP3    H146786   6.754   1.763   0.464 -0.0974  0.2918  0.4492
 8457TIP3    H246787   6.758   1.667   0.347 -1.6227  1.6817 -0.7629
 8458TIP3   OH246788   6.334   1.638  14.708 -0.3759  0.1088  0.2095
 8458TIP3    H146789   6.398   1.707  14.723  0.1757 -0.4430  0.4155
 8458TIP3    H246790   6.289   1.628  14.791 -0.9972  0.7615 -0.0444
 8459TIP3   OH246791   2.546   3.983   1.821  0.1213 -0.4735  0.3087
 8459TIP3    H146792   2.585   3.992   1.908  1.2676 -1.1097 -0.1331
 8459TIP3    H246793   2.546   3.889   1.803 -0.8249 -0.4123 -0.0702
 8460TIP3   OH246794   5.832   3.375  12.986 -0.0892  0.3631  0.3887
 8460TIP3    H146795   5.857   3.352  12.896 -0.0293  1.1615  0.2013
 8460TIP3    H246796   5.738   3.357  12.990 -0.5743  2.5305 -0.5439
 8461TIP3   OH246797   1.023   1.007  14.270  0.8393  0.4375 -0.5196
 8461TIP3    H146798   1.043   0.913  14.263  0.3022  0.2786 -0.0315
 8461TIP3    H246799   1.108   1.050  14.267  1.0134  0.0164 -1.9524
 8462TIP3   OH246800   5.935   1.005   3.423 -0.2303 -0.0167  0.1623
 8462TIP3    H146801   5.963   1.094   3.405  1.1797 -0.4635  0.1403
 8462TIP3    H246802   6.007   0.950   3.394  0.2275 -0.9896  2.9961
 8463TIP3   OH246803   2.788   4.010   5.904 -0.0108 -0.1804 -0.2202
 8463TIP3    H146804   2.762   3.978   5.991  1.2957 -2.0079 -0.4676
 8463TIP3    H246805   2.812   3.931   5.856 -1.0165  0.7861 -2.3735
 8464TIP3   OH246806   6.520   1.829  14.093 -0.0011 -0.9067 -0.1325
 8464TIP3    H146807   6.515   1.815  13.999 -2.4316  2.3216 -0.6058
 8464TIP3    H246808   6.560   1.916  14.102 -1.1172 -0.5476  1.7113
 8465TIP3   OH246809   5.661   5.709  15.391  0.1178 -0.1778 -0.2530
 8465TIP3    H146810   5.715   5.786  15.412 -2.7787  1.2951  2.0675
 8465TIP3    H246811   5.589   5.744  15.338  1.5397 -2.1894 -3.6542
 8466TIP3   OH246812   2.246   1.989   3.865 -0.3575  0.0854  0.6205
 8466TIP3    H146813   2.202   2.046   3.802 -0.5194 -1.5841 -0.8327
 8466TIP3    H246814   2.198   2.002   3.947 -1.8718  0.2869 -0.2806
 8467TIP3   OH246815   6.141   5.530  12.520  0.4427  0.1120  0.2678
 8467TIP3    H146816   6.125   5.582  12.441 -0.8926  0.1397  0.5465
 8467TIP3    H246817   6.235   5.511  12.517  0.9695  2.5955  0.2200
 8468TIP3   OH246818   4.184   2.593  16.331  0.0177  0.1143 -0.4881
 8468TIP3    H146819   4.145   2.575  16.245  0.4526  0.4352 -0.7586
 8468TIP3    H246820   4.237   2.672  16.317 -1.5222  1.3708  0.5676
 8469TIP3   OH246821   5.614   3.672   5.317  0.6748 -0.4037  0.9706
 8469TIP3    H146822   5.670   3.749   5.306  1.3178 -0.9779  0.0949
 8469TIP3    H246823   5.526   3.703   5.295  0.6224  0.5197  2.4036
 8470TIP3   OH246824   6.447   3.006  13.330 -0.2958  0.1996 -0.1746
 8470TIP3    H146825   6.390   2.970  13.398  0.8038 -0.7060  0.2815
 8470TIP3    H246826   6.530   2.960  13.342 -0.1581 -0.1447 -2.2856
 8471TIP3   OH246827   4.437   6.109  11.587 -0.2575  0.2599 -0.4940
 8471TIP3    H146828   4.457   6.099  11.680 -1.9608 -0.7755 -0.2032
 8471TIP3    H246829   4.351   6.068  11.577 -0.2250  0.6216 -2.4732
 8472TIP3   OH246830   2.749   5.554  16.178  0.0456  0.1153  0.0000
 8472TIP3    H146831   2.808   5.487  16.142  0.6243  0.9886 -0.6954
 8472TIP3    H246832   2.762   5.630  16.121 -1.3213  0.5067  0.2033
 8473TIP3   OH246833   6.207   1.626  11.651 -0.6180 -0.1041 -0.3813
 8473TIP3    H146834   6.214   1.672  11.735 -1.7827 -0.2664 -0.1819
 8473TIP3    H246835   6.263   1.675  11.591  0.5430 -0.2203  0.5913
 8474TIP3   OH246836   0.752   1.744  14.028  0.2212  0.1802  0.4564
 8474TIP3    H146837   0.771   1.749  13.934 -0.9860  1.8972  0.2749
 8474TIP3    H246838   0.838   1.744  14.070  0.7339  1.0306 -0.5849
 8475TIP3   OH246839   6.775   4.130  10.749 -0.3779 -0.3205 -0.3731
 8475TIP3    H146840   6.834   4.202  10.769 -0.4342 -0.3406 -0.1218
 8475TIP3    H246841   6.829   4.066  10.703  0.3596 -1.2995  1.7720
 8476TIP3   OH246842   4.135   2.455   1.861 -0.0559  0.3291  0.0228
 8476TIP3    H146843   4.221   2.417   1.844 -0.0650 -0.5063  1.7944
 8476TIP3    H246844   4.095   2.460   1.774  1.7159  0.6040 -0.8054
 8477TIP3   OH246845   6.056   4.343   6.121 -0.1869 -0.2203  0.3718
 8477TIP3    H146846   6.079   4.297   6.040 -0.1712 -0.1379  0.3298
 8477TIP3    H246847   6.135   4.390   6.146  0.0330 -0.8071  0.8172
 8478TIP3   OH246848   5.693   5.162   5.403  0.7874  0.4435  0.1628
 8478TIP3    H146849   5.744   5.235   5.439  1.3844 -0.0693  0.3832
 8478TIP3    H246850   5.630   5.141   5.472  0.5840  0.7813  0.0801
 8479TIP3   OH246851   3.768   1.516  17.026 -0.1048  0.5067  0.4593
 8479TIP3    H146852   3.804   1.456  16.960 -0.8393  2.4667 -1.8098
 8479TIP3    H246853   3.837   1.581  17.039 -0.5503  0.9598  0.5378
 8480TIP3   OH246854   3.176   0.419   5.724 -0.9184  0.7910  0.6254
 8480TIP3    H146855   3.245   0.485   5.732 -2.0148  2.0721 -0.3834
 8480TIP3    H246856   3.142   0.430   5.635  0.1699 -2.4131 -0.2233
 8481TIP3   OH246857   4.622   1.965  11.894  0.2343 -0.3333  0.5602
 8481TIP3    H146858   4.552   1.970  11.829 -1.5872 -1.2695  2.3795
 8481TIP3    H246859   4.691   1.914  11.852 -0.9974 -1.0935 -0.5708
 8482TIP3   OH246860   5.314   2.325  12.704  0.8894 -0.2357  1.0266
 8482TIP3    H146861   5.308   2.413  12.667  1.0152  0.2299  2.1015
 8482TIP3    H246862   5.223   2.300  12.720  0.7938 -0.7041 -0.1950
 8483TIP3   OH246863   3.683   4.723   2.572  0.1454  0.2095 -0.1402
 8483TIP3    H146864   3.707   4.723   2.480 -2.3571 -2.0650 -0.8775
 8483TIP3    H246865   3.601   4.674   2.575  0.8159 -0.8544  3.4610
 8484TIP3   OH246866   6.092   3.642   4.769 -0.3165  0.4492  0.0489
 8484TIP3    H146867   6.155   3.576   4.739 -2.1402 -0.7144 -1.2973
 8484TIP3    H246868   6.146   3.718   4.791  1.5936 -0.6442 -0.7238
 8485TIP3   OH246869   2.100   2.067   2.887  0.2659  0.0279 -0.2999
 8485TIP3    H146870   2.079   2.128   2.958 -0.8553  0.6211 -1.1212
 8485TIP3    H246871   2.184   2.097   2.853  0.8276 -0.2926  0.8119
 8486TIP3   OH246872   0.834   1.293   5.922 -0.2243 -0.2560 -0.4177
 8486TIP3    H146873   0.787   1.228   5.870 -0.4021  1.0118 -1.8745
 8486TIP3    H246874   0.785   1.374   5.909 -0.5482  0.0009  2.1194
 8487TIP3   OH246875   0.106   3.257   1.177  0.4222  0.2649 -0.1530
 8487TIP3    H146876   0.168   3.248   1.105  1.1586  0.0811  0.4979
 8487TIP3    H246877   0.060   3.173   1.180 -2.0843  1.4627 -2.6370
 8488TIP3   OH246878   1.500   5.557  16.351 -0.5819  0.0915 -0.8312
 8488TIP3    H146879   1.419   5.554  16.301  0.0672 -1.0397 -1.8341
 8488TIP3    H246880   1.561   5.604  16.295 -0.0912 -0.4424 -0.7508
 8489TIP3   OH246881   0.807   2.484   0.998 -0.5140 -0.5431 -0.3874
 8489TIP3    H146882   0.729   2.504   0.946 -0.8197 -0.2681  0.1727
 8489TIP3    H246883   0.830   2.567   1.039 -0.5717 -0.8764  0.3201
 8490TIP3   OH246884   3.314   4.809  16.277  0.4985  0.6122  0.1771
 8490TIP3    H146885   3.311   4.897  16.315  0.2522  0.9080 -0.5174
 8490TIP3    H246886   3.396   4.772  16.309 -0.0539  0.5899  1.5848
 8491TIP3   OH246887   2.759   3.235  15.585  0.2165  0.0599 -0.1285
 8491TIP3    H146888   2.836   3.179  15.594  0.3446 -0.1684 -2.4534
 8491TIP3    H246889   2.697   3.201  15.651  0.1938 -3.0214 -1.6702
 8492TIP3   OH246890   1.324   1.311   1.141 -0.4365  0.4045  0.7387
 8492TIP3    H146891   1.265   1.345   1.074  0.9209 -0.0928 -0.7280
 8492TIP3    H246892   1.266   1.267   1.204 -1.7879  1.6236  0.3665
 8493TIP3   OH246893   4.829   1.182  16.095  0.7556  0.1516  0.8902
 8493TIP3    H146894   4.777   1.234  16.034  1.3964  0.3736  0.5272
 8493TIP3    H246895   4.835   1.236  16.174  0.1723 -0.0104  1.0489
 8494TIP3   OH246896   3.380   5.228  10.985  0.4102 -0.2860  0.0789
 8494TIP3    H146897   3.394   5.211  11.078  0.3753  1.0320  0.3312
 8494TIP3    H246898   3.285   5.222  10.973  0.5032 -1.5972 -0.1127
 8495TIP3   OH246899   1.945   4.795  11.960 -0.2311 -0.0999  0.6431
 8495TIP3    H146900   1.856   4.784  11.926  0.5928 -1.0176 -1.3301
 8495TIP3    H246901   1.964   4.888  11.950 -1.0956  0.1504  1.3707
 8496TIP3   OH246902   6.580   6.426  13.044 -0.4495  0.1348  0.0207
 8496TIP3    H146903   6.579   6.330  13.036  2.3924  0.2579 -2.8928
 8496TIP3    H246904   6.611   6.443  13.133  0.2773 -1.6811  0.1368
 8497TIP3   OH246905   0.608   4.586  12.231 -0.1261 -0.0636 -0.3131
 8497TIP3    H146906   0.552   4.510  12.248  1.1450 -1.0081 -0.2980
 8497TIP3    H246907   0.681   4.577  12.292  0.1822  1.0312 -0.5058
 8498TIP3   OH246908   5.910   4.156  16.147  0.4726 -0.1407 -0.1794
 8498TIP3    H146909   5.926   4.068  16.180  1.1477  0.1666  0.3344
 8498TIP3    H246910   5.988   4.206  16.173 -0.3494  0.8538  0.4336
 8499TIP3   OH246911   1.562   5.375  13.134  0.2205 -0.3485  0.3542
 8499TIP3    H146912   1.567   5.470  13.141  1.1296 -0.3776  0.1671
 8499TIP3    H246913   1.516   5.347  13.212  0.9563  0.1606  0.9787
 8500TIP3   OH246914   1.614   5.903   0.630  0.1158  0.5804  0.0373
 8500TIP3    H146915   1.697   5.929   0.670  0.2185  0.6443 -0.2158
 8500TIP3    H246916   1.632   5.903   0.536  0.3485 -1.2283  0.0757
 8501TIP3   OH246917   0.579   4.210   1.258 -0.1538  0.3242 -0.1338
 8501TIP3    H146918   0.566   4.124   1.218 -1.3055  1.8769 -3.3043
 8501TIP3    H246919   0.513   4.215   1.328  1.0460 -1.9708  1.1909
 8502TIP3   OH246920   5.479   1.026  12.520 -0.7860  0.1719  0.2667
 8502TIP3    H146921   5.474   0.933  12.497  0.0820 -0.1453  1.3075
 8502TIP3    H246922   5.445   1.030  12.610 -1.0147  0.8975  0.1530
 8503TIP3   OH246923   4.464   5.946  13.965 -0.0729  0.4169 -0.1238
 8503TIP3    H146924   4.374   5.978  13.975 -0.5955 -1.1351  0.3695
 8503TIP3    H246925   4.508   5.971  14.047 -0.1984  0.7083 -0.1461
 8504TIP3   OH246926   2.853   6.604  13.266  0.3300 -0.0771  0.3327
 8504TIP3    H146927   2.938   6.625  13.305  0.5000 -0.6071  0.2397
 8504TIP3    H246928   2.792   6.600  13.340  0.1566  1.4072  0.3018
 8505TIP3   OH246929   2.294   4.250   2.771  0.6850  0.5127 -0.1324
 8505TIP3    H146930   2.208   4.239   2.812  0.9948 -0.2983  0.3062
 8505TIP3    H246931   2.317   4.341   2.788  0.4207  0.4216  0.7516
 8506TIP3   OH246932   0.139   3.374   1.797  0.2013  0.1970  0.5398
 8506TIP3    H146933   0.093   3.412   1.723 -0.3793 -1.7591 -0.1039
 8506TIP3    H246934   0.215   3.432   1.809 -0.8940  1.8268 -0.1175
 8507TIP3   OH246935   4.292   6.148   5.045 -0.3004  0.0960  0.2997
 8507TIP3    H146936   4.326   6.223   5.094  0.0354  1.4548 -1.9167
 8507TIP3    H246937   4.206   6.131   5.083 -0.4936  1.7876  0.6854
 8508TIP3   OH246938   0.627   2.769   4.444  0.0525  0.3297 -0.3614
 8508TIP3    H146939   0.703   2.825   4.461  2.0897 -2.2351 -0.6616
 8508TIP3    H246940   0.624   2.762   4.348 -1.1269  1.1235 -0.3958
 8509TIP3   OH246941   1.551   4.972   5.901 -0.7519  0.1783 -1.1905
 8509TIP3    H146942   1.520   5.062   5.889 -1.5916 -0.0605 -0.8185
 8509TIP3    H246943   1.627   4.966   5.843 -0.2821  1.3271 -0.7179
 8510TIP3   OH246944   6.357   3.948   6.509  0.2812 -0.5106 -0.4638
 8510TIP3    H146945   6.367   3.913   6.420 -0.7270 -0.6646 -0.5328
 8510TIP3    H246946   6.298   4.022   6.499  0.4624 -0.2983  0.0291
 8511TIP3   OH246947   0.973   4.298  12.095  0.5444 -0.5144 -0.1985
 8511TIP3    H146948   0.935   4.336  12.016 -0.2712  0.3819  0.6159
 8511TIP3    H246949   1.061   4.270  12.068  0.6857  0.8077 -1.1359
 8512TIP3   OH246950   3.313   3.977  12.801  0.3155  0.4833 -0.5315
 8512TIP3    H146951   3.393   3.967  12.750  0.7338  1.8676 -0.1882
 8512TIP3    H246952   3.332   3.935  12.885  0.5409  0.4288 -0.6105
 8513TIP3   OH246953   0.876   4.920  16.938 -0.4076  0.0365 -0.0205
 8513TIP3    H146954   0.798   4.968  16.908  0.1011 -0.6404 -2.5720
 8513TIP3    H246955   0.841   4.837  16.970 -0.8849  0.3698  0.3345
 8514TIP3   OH246956   4.739   5.940   4.123  0.0053  0.8693 -0.3205
 8514TIP3    H146957   4.699   5.974   4.043 -0.5919  0.5633 -0.1572
 8514TIP3    H246958   4.741   5.845   4.110  0.1045  0.8374 -0.0686
 8515TIP3   OH246959   0.942   3.053   3.754  0.5455  0.4015  0.0858
 8515TIP3    H146960   0.869   2.998   3.782 -0.1791  0.7711 -1.0697
 8515TIP3    H246961   0.921   3.077   3.664  1.5361  1.4463  0.1280
 8516TIP3   OH246962   4.391   3.566   3.524  0.0686  0.0461  0.1412
 8516TIP3    H146963   4.314   3.564   3.581  0.1563 -2.7076  0.2540
 8516TIP3    H246964   4.460   3.604   3.578 -0.8667  1.2801  0.4839
 8517TIP3   OH246965   2.069   6.078   0.892  0.2048 -0.2841 -0.1012
 8517TIP3    H146966   2.133   6.071   0.963  1.0082 -0.2142 -0.8115
 8517TIP3    H246967   2.119   6.057   0.813 -0.1377  1.9470 -0.9274
 8518TIP3   OH246968   3.467   6.141  13.588 -0.2094 -0.2921 -0.0487
 8518TIP3    H146969   3.373   6.139  13.568 -0.5673  0.0880  1.5774
 8518TIP3    H246970   3.479   6.070  13.650  0.2542  0.8051  1.1303
 8519TIP3   OH246971   0.271   0.408   4.818 -0.1344  0.3984  0.0437
 8519TIP3    H146972   0.279   0.503   4.834 -1.4061  0.5526 -0.1578
 8519TIP3    H246973   0.224   0.402   4.735  1.0737 -0.4217 -0.5935
 8520TIP3   OH246974   4.451   4.781  15.138 -0.1947  0.2918  0.6659
 8520TIP3    H146975   4.359   4.757  15.127 -0.0153 -0.2418  0.3079
 8520TIP3    H246976   4.486   4.785  15.049  0.5275 -1.1454  0.8644
 8521TIP3   OH246977   5.197   3.454   1.557 -0.7384 -0.1180  0.3727
 8521TIP3    H146978   5.120   3.401   1.578 -0.6643 -0.2655  0.2770
 8521TIP3    H246979   5.238   3.408   1.483 -0.3040 -0.2990  0.7242
 8522TIP3   OH246980   3.711   6.719  15.877 -0.3662  0.6891 -0.2079
 8522TIP3    H146981   3.659   6.799  15.870 -0.6973  0.4469 -0.5271
 8522TIP3    H246982   3.687   6.668  15.800 -0.0055  0.3705 -0.1084
 8523TIP3   OH246983   5.512   1.182  11.584 -0.3609  0.1523 -0.1381
 8523TIP3    H146984   5.591   1.141  11.619 -1.1507  0.2444  1.8074
 8523TIP3    H246985   5.449   1.110  11.577 -0.1927  0.1229 -1.4515
 8524TIP3   OH246986   5.895   2.437   2.989 -0.2144  0.5963  0.1215
 8524TIP3    H146987   5.991   2.441   2.988 -0.2775  4.1385 -1.2908
 8524TIP3    H246988   5.871   2.461   3.078  0.2025 -1.5684  0.8402
 8525TIP3   OH246989   1.333   5.261   3.862  0.2129 -0.3732 -0.0932
 8525TIP3    H146990   1.427   5.260   3.880  0.2039  0.9172  0.0844
 8525TIP3    H246991   1.311   5.170   3.842  1.9014 -0.3630 -2.2152
 8526TIP3   OH246992   5.691   3.990   4.806  0.0498 -0.2251 -0.2861
 8526TIP3    H146993   5.617   3.970   4.863 -1.2213  1.0848 -1.4154
 8526TIP3    H246994   5.667   3.952   4.721 -0.1829  1.7522 -1.1398
 8527TIP3   OH246995   0.827   2.564  11.407 -0.2671 -0.0010  0.3478
 8527TIP3    H146996   0.862   2.508  11.477 -1.8607 -1.7350 -0.1851
 8527TIP3    H246997   0.831   2.510  11.329 -0.4314  1.1838 -0.4861
 8528TIP3   OH246998   4.672   4.459   6.529  0.2223  0.5746  0.0045
 8528TIP3    H146999   4.623   4.438   6.608 -0.4862 -0.6487 -0.7505
 8528TIP3    H247000   4.610   4.507   6.474  0.7493  1.5296  0.2229
 8529TIP3   OH247001   5.548   4.050   0.554  0.0244  0.1630 -0.2431
 8529TIP3    H147002   5.625   4.100   0.580 -1.0313  1.7893 -0.1486
 8529TIP3    H247003   5.524   4.000   0.632 -1.8115  3.3254  1.3329
 8530TIP3   OH247004   5.850   0.140   4.319  0.0059 -0.6883 -0.1847
 8530TIP3    H147005   5.796   0.201   4.269 -2.6222 -2.3213  0.5399
 8530TIP3    H247006   5.923   0.119   4.261  0.1009  1.9035 -1.0394
 8531TIP3   OH247007   4.412   5.577   1.564  0.4909 -0.1459  0.7722
 8531TIP3    H147008   4.488   5.625   1.597 -0.1767 -0.0561  2.2167
 8531TIP3    H247009   4.411   5.496   1.615 -0.0275 -0.4301  0.3181
 8532TIP3   OH247010   0.831   1.166   0.650  0.1040 -0.4720  0.4071
 8532TIP3    H147011   0.897   1.232   0.671  1.0518 -1.5326  0.8528
 8532TIP3    H247012   0.771   1.167   0.725 -0.1194  0.1764  0.2172
 8533TIP3   OH247013   0.163   3.976  11.497 -0.3566  0.1509 -0.0036
 8533TIP3    H147014   0.169   3.960  11.403 -1.5058  1.1671 -0.2645
 8533TIP3    H247015   0.078   4.018  11.509 -0.7346 -1.0198  1.6493
 8534TIP3   OH247016   4.518   1.739  17.036  0.0261 -0.7421 -0.2989
 8534TIP3    H147017   4.541   1.671  16.973  0.2682 -0.7102 -0.2451
 8534TIP3    H247018   4.588   1.804  17.028  0.0706 -0.7488  0.0195
 8535TIP3   OH247019   0.114   4.902  13.485  0.4230 -0.6836 -0.1744
 8535TIP3    H147020   0.159   4.818  13.479  1.4343 -0.1585 -0.2058
 8535TIP3    H247021   0.061   4.907  13.406  0.1467 -1.4070 -0.0353
 8536TIP3   OH247022   6.589   3.713  14.938  0.2757 -0.0259  0.3954
 8536TIP3    H147023   6.560   3.801  14.962  1.9491  0.5506  0.4085
 8536TIP3    H247024   6.581   3.662  15.018 -0.8046  0.0794  0.3583
 8537TIP3   OH247025   5.574   6.694  10.743 -0.2967  0.2424 -0.6380
 8537TIP3    H147026   5.569   6.599  10.747 -0.5235  0.2499 -0.7299
 8537TIP3    H247027   5.665   6.715  10.763  0.0315 -0.0537 -1.7616
 8538TIP3   OH247028   4.035   2.436   2.133 -0.0113 -0.1682 -0.4964
 8538TIP3    H147029   4.094   2.452   2.060  0.4729  0.2445 -0.0175
 8538TIP3    H247030   4.031   2.520   2.179  1.9393 -1.1990  1.6010
 8539TIP3   OH247031   6.189   0.712  14.318 -0.3607 -0.2018 -0.2284
 8539TIP3    H147032   6.112   0.766  14.336 -0.1827  0.7462 -2.1373
 8539TIP3    H247033   6.259   0.752  14.370 -0.7669 -0.0524  0.2094
 8540TIP3   OH247034   3.675   6.068   3.022  0.4717 -0.5130  0.3555
 8540TIP3    H147035   3.632   6.101   3.101 -0.2502 -1.4354  0.3557
 8540TIP3    H247036   3.705   5.981   3.046 -1.3965 -1.5640 -0.9373
 8541TIP3   OH247037   1.634   5.740  13.479  0.3200 -0.2992 -0.4715
 8541TIP3    H147038   1.574   5.702  13.545  1.6062 -2.0778 -0.2826
 8541TIP3    H247039   1.682   5.807  13.527 -0.3605 -0.0030 -0.1904
 8542TIP3   OH247040   5.451   6.060  16.737 -0.1027 -0.5053  0.0519
 8542TIP3    H147041   5.514   6.072  16.666 -1.2684  0.8747 -0.7960
 8542TIP3    H247042   5.488   6.109  16.810 -1.0345  1.8428 -1.0026
 8543TIP3   OH247043   3.656   0.859  13.485 -0.0960  0.2020  0.2121
 8543TIP3    H147044   3.650   0.784  13.543 -1.7310  0.3625  0.2596
 8543TIP3    H247045   3.640   0.935  13.542 -0.9145  0.4112 -0.2906
 8544TIP3   OH247046   6.738   3.151  16.326  0.3810  0.2292 -0.2502
 8544TIP3    H147047   6.692   3.211  16.267  1.3255  2.8660  1.6251
 8544TIP3    H247048   6.676   3.137  16.398 -0.4180 -2.2940 -1.3492
 8545TIP3   OH247049   6.411   1.916   0.239 -0.0163  0.4010  0.0042
 8545TIP3    H147050   6.379   1.950   0.155  0.7750 -2.1171 -1.3736
 8545TIP3    H247051   6.340   1.862   0.272  0.2423  0.1768  0.2031
 8546TIP3   OH247052   2.804   0.235  15.435 -0.0083  0.1237  0.3594
 8546TIP3    H147053   2.716   0.214  15.403  0.6593 -0.3577 -1.1962
 8546TIP3    H247054   2.847   0.149  15.445  0.0637  0.3114  1.7967
 8547TIP3   OH247055   0.704   6.492   0.264 -0.1128  0.1877  0.1435
 8547TIP3    H147056   0.710   6.514   0.171  0.9458  2.6214  0.7624
 8547TIP3    H247057   0.672   6.402   0.265  1.2162 -0.3727 -2.6206
 8548TIP3   OH247058   5.729   0.847   0.141  0.5485  0.3255  0.4015
 8548TIP3    H147059   5.793   0.915   0.121  2.0660 -1.2070 -0.1906
 8548TIP3    H247060   5.735   0.835   0.236  0.7241  0.5863  0.4224
 8549TIP3   OH247061   5.052   5.191  12.936 -0.0746 -0.0567 -0.7755
 8549TIP3    H147062   4.982   5.215  12.875 -1.4833 -1.7429  0.1428
 8549TIP3    H247063   5.125   5.167  12.880 -0.5938  0.6420 -1.7651
 8550TIP3   OH247064   6.410   0.425   2.026  0.0258 -0.2671  0.0532
 8550TIP3    H147065   6.500   0.395   2.036 -0.1325 -0.6875  0.2478
 8550TIP3    H247066   6.392   0.417   1.932  0.8368  1.7018 -0.2883
 8551TIP3   OH247067   2.284   3.905  13.741 -0.2497  0.5901  0.0340
 8551TIP3    H147068   2.278   3.945  13.655 -1.0511  0.5790  0.0776
 8551TIP3    H247069   2.202   3.855  13.750  1.1077 -1.8180 -0.4090
 8552TIP3   OH247070   1.626   4.732  16.146  0.6617  0.0720 -0.1558
 8552TIP3    H147071   1.582   4.814  16.123  0.0682 -0.1719  0.0890
 8552TIP3    H247072   1.639   4.688  16.062  0.6834  0.2661 -0.2545
 8553TIP3   OH247073   0.242   4.460   0.185 -0.0389 -0.1430 -0.2078
 8553TIP3    H147074   0.323   4.476   0.138 -0.6699 -0.7133 -1.5371
 8553TIP3    H247075   0.257   4.378   0.232 -0.5743 -1.4740 -2.2584
 8554TIP3   OH247076   1.471   1.604  11.773  0.1766 -0.2703 -0.1625
 8554TIP3    H147077   1.472   1.509  11.785  1.3743 -0.2336  0.1087
 8554TIP3    H247078   1.385   1.622  11.734 -0.7057 -1.2679  1.2712
 8555TIP3   OH247079   0.588   6.535   1.862  0.4177  0.0404  0.1582
 8555TIP3    H147080   0.623   6.461   1.812 -0.8021  1.0720 -2.2744
 8555TIP3    H247081   0.650   6.606   1.848 -0.0841  0.4231 -0.1595
 8556TIP3   OH247082   5.603   0.681  15.377 -0.2758  0.0446  0.0734
 8556TIP3    H147083   5.643   0.745  15.437 -0.8510 -0.2892  0.8048
 8556TIP3    H247084   5.656   0.689  15.297  1.0766 -0.1813  0.9316
 8557TIP3   OH247085   5.343   0.677  12.160  0.0387  0.2080 -0.0278
 8557TIP3    H147086   5.431   0.713  12.152 -0.5674  1.3874 -1.5514
 8557TIP3    H247087   5.327   0.630  12.078 -0.7835  0.0665  0.2007
 8558TIP3   OH247088   2.220   1.417   5.303 -0.4127  0.2671  0.3498
 8558TIP3    H147089   2.203   1.485   5.238 -0.8420  1.0642  1.2721
 8558TIP3    H247090   2.144   1.421   5.362  0.4730  0.3020  1.5199
 8559TIP3   OH247091   1.895   1.971  14.144 -0.1971 -0.3479  0.1393
 8559TIP3    H147092   1.867   1.881  14.159 -1.5541  0.0031 -0.1401
 8559TIP3    H247093   1.898   2.010  14.231  0.7741 -0.7727  0.2928
 8560TIP3   OH247094   0.189   5.419   1.689  0.1089 -0.3369 -0.1115
 8560TIP3    H147095   0.269   5.470   1.697 -0.0653 -0.0474 -0.2182
 8560TIP3    H247096   0.141   5.436   1.770 -0.3525  0.3656 -0.5194
 8561TIP3   OH247097   5.590   5.377  11.498  0.0954  0.2448 -0.0628
 8561TIP3    H147098   5.600   5.311  11.566  1.0699  1.5454  1.0779
 8561TIP3    H247099   5.628   5.338  11.420 -0.0976 -0.8568  0.3964
 8562TIP3   OH247100   1.487   5.510  14.665 -0.6624  0.0701 -0.5036
 8562TIP3    H147101   1.392   5.508  14.656 -0.7007  0.1895 -0.1051
 8562TIP3    H247102   1.512   5.418  14.674 -0.7897  0.0788 -0.0617
 8563TIP3   OH247103   2.277   5.694   6.038 -0.2778  0.4456 -0.9191
 8563TIP3    H147104   2.281   5.718   6.130 -2.5386  0.9441 -0.9215
 8563TIP3    H247105   2.312   5.770   5.991 -2.7159  1.7753 -0.6552
 8564TIP3   OH247106   6.391   3.259   2.722 -0.3208  0.4236  0.1659
 8564TIP3    H147107   6.419   3.333   2.668 -2.2119  1.7840  1.0125
 8564TIP3    H247108   6.390   3.185   2.661  2.9375  0.7520 -0.3723
 8565TIP3   OH247109   3.660   6.090  14.198  0.4829 -0.4486  0.0370
 8565TIP3    H147110   3.716   6.167  14.188  0.4378 -0.3632  0.4192
 8565TIP3    H247111   3.587   6.122  14.251 -0.2116 -0.4125 -0.9264
 8566TIP3   OH247112   4.627   3.483  16.914  0.0903 -0.2378 -0.2844
 8566TIP3    H147113   4.684   3.471  16.990 -0.3951  1.9519  0.4588
 8566TIP3    H247114   4.538   3.482  16.950 -0.2309 -1.0855 -1.0854
 8567TIP3   OH247115   1.979   4.879   6.564 -0.0331 -0.0116  0.1686
 8567TIP3    H147116   1.994   4.955   6.507 -0.0998  1.1821  1.7078
 8567TIP3    H247117   2.063   4.833   6.564 -0.4586 -0.8540 -2.0465
 8568TIP3   OH247118   4.241   4.416  13.307 -0.1252 -0.2074  0.2981
 8568TIP3    H147119   4.268   4.324  13.314  0.0153 -0.1277  0.8511
 8568TIP3    H247120   4.217   4.427  13.215 -2.7960 -1.5248  0.8019
 8569TIP3   OH247121   6.157   4.947  14.987  0.4418  0.0244 -0.1894
 8569TIP3    H147122   6.152   4.973  15.079 -0.9221 -0.1693 -0.2025
 8569TIP3    H247123   6.107   5.013  14.939 -0.4768 -0.9218 -0.5617
 8570TIP3   OH247124   4.192   4.679  12.979  0.2876  0.0055  0.1267
 8570TIP3    H147125   4.227   4.593  12.952  2.2933  0.8276 -0.0231
 8570TIP3    H247126   4.112   4.689  12.927  1.4999 -0.5858 -1.9537
 8571TIP3   OH247127   1.640   0.186  16.674  0.0554 -0.0325 -0.3759
 8571TIP3    H147128   1.692   0.160  16.598  1.4408  0.2115  0.4735
 8571TIP3    H247129   1.628   0.104  16.723 -0.4098 -0.0952 -0.5903
 8572TIP3   OH247130   2.390   4.507  14.854 -0.2463  0.0516  0.7041
 8572TIP3    H147131   2.402   4.419  14.820  0.7206  0.3607  0.2203
 8572TIP3    H247132   2.358   4.558  14.780 -1.9230 -0.1421  1.2815
 8573TIP3   OH247133   2.571   2.314  12.172 -0.2314 -0.1052 -0.4516
 8573TIP3    H147134   2.649   2.326  12.226  0.0494 -0.0442 -0.8730
 8573TIP3    H247135   2.604   2.288  12.086 -0.6963 -0.6064 -0.4848
 8574TIP3   OH247136   6.038   4.045   5.305  0.2042  0.1917 -0.0935
 8574TIP3    H147137   6.088   3.990   5.365  0.1226 -1.7966 -1.7933
 8574TIP3    H247138   6.030   3.993   5.225 -1.5775  1.8904 -1.0798
 8575TIP3   OH247139   4.366   4.109   3.571  0.1636 -0.1682 -0.6683
 8575TIP3    H147140   4.422   4.182   3.595 -0.7126  0.0787  0.6429
 8575TIP3    H247141   4.386   4.041   3.634 -0.3244 -0.4227 -0.7841
 8576TIP3   OH247142   2.107   2.703   4.761  0.2373  0.3349  0.5515
 8576TIP3    H147143   2.039   2.667   4.704 -0.4026  0.5915  1.1520
 8576TIP3    H247144   2.102   2.650   4.841  1.4662 -0.3510  0.1903
 8577TIP3   OH247145   5.738   2.711   0.450 -0.3108 -0.6683  0.2645
 8577TIP3    H147146   5.747   2.740   0.359  0.4216 -0.1579  0.4954
 8577TIP3    H247147   5.685   2.632   0.445  2.6280 -2.6274 -0.9502
 8578TIP3   OH247148   6.009   0.689   5.116 -0.0976 -0.5472 -0.4549
 8578TIP3    H147149   5.940   0.650   5.062  0.1296 -1.7802  0.1303
 8578TIP3    H247150   5.963   0.753   5.170 -0.5646 -0.3798 -1.0400
 8579TIP3   OH247151   3.143   2.672  16.634 -0.3230 -0.3309 -0.1427
 8579TIP3    H147152   3.182   2.757  16.615  1.0491 -0.6027  1.3434
 8579TIP3    H247153   3.051   2.682  16.612  0.0464  1.1813 -1.0764
 8580TIP3   OH247154   4.161   4.883  16.785 -0.1445 -0.0926  0.3442
 8580TIP3    H147155   4.212   4.932  16.720  0.4442 -0.7009  0.3403
 8580TIP3    H247156   4.108   4.950  16.830 -1.5147  0.1834 -1.6161
 8581TIP3   OH247157   5.638   4.344   4.747  0.9488 -0.2335 -0.3363
 8581TIP3    H147158   5.558   4.391   4.770  1.3338  0.4461 -0.3796
 8581TIP3    H247159   5.658   4.291   4.824  1.0851  0.4581  0.1009
 8582TIP3   OH247160   1.626   5.782   1.160 -0.2011 -0.6193 -0.2196
 8582TIP3    H147161   1.545   5.803   1.112 -0.4486 -0.0220  0.4501
 8582TIP3    H247162   1.692   5.841   1.122 -0.4825  0.1191  0.4140
 8583TIP3   OH247163   5.796   2.153   1.065  0.4248  0.0653 -0.5864
 8583TIP3    H147164   5.823   2.180   0.977 -3.0312  2.1714 -1.0979
 8583TIP3    H247165   5.801   2.233   1.117  2.4924 -1.1865  1.1778
 8584TIP3   OH247166   4.577   1.984   2.909  0.5121 -0.0278 -0.3708
 8584TIP3    H147167   4.509   2.040   2.871  0.1865 -0.6580 -0.7430
 8584TIP3    H247168   4.594   2.021   2.996 -1.4897 -0.8256  0.3849
 8585TIP3   OH247169   2.508   4.774  15.480 -0.2813 -0.3042 -0.2540
 8585TIP3    H147170   2.491   4.710  15.410  0.2889 -0.8450  0.0954
 8585TIP3    H247171   2.603   4.771  15.492 -0.2157  0.8224 -0.4297
 8586TIP3   OH247172   5.027   5.401   0.905 -0.4300  0.0825 -0.1291
 8586TIP3    H147173   4.973   5.436   0.976  0.3781 -1.2606  1.1754
 8586TIP3    H247174   5.073   5.477   0.870 -0.7150  0.7378  0.8931
 8587TIP3   OH247175   1.064   0.941  16.938 -0.2892  0.4401 -0.7712
 8587TIP3    H147176   0.982   0.957  16.891 -0.5131 -0.3060 -0.6276
 8587TIP3    H247177   1.131   0.983  16.883 -0.8224  1.5130 -0.6216
 8588TIP3   OH247178   0.071   3.938  10.453 -0.2491  0.3944  0.1602
 8588TIP3    H147179   0.117   3.960  10.534  0.4831 -0.7559  0.0624
 8588TIP3    H247180   0.132   3.960  10.383  0.4035 -1.7072  0.0524
 8589TIP3   OH247181   1.572   1.985  14.014  0.2897  0.0379  0.4191
 8589TIP3    H147182   1.608   1.906  13.974 -0.8565 -0.6607  0.7570
 8589TIP3    H247183   1.583   1.973  14.108 -1.9713 -0.7684  0.6037
 8590TIP3   OH247184   4.739   3.595  15.063 -0.4492  0.4313 -0.3181
 8590TIP3    H147185   4.656   3.561  15.096 -0.7212  0.7897 -0.6225
 8590TIP3    H247186   4.761   3.536  14.990 -0.2486  0.1165 -0.0060
 8591TIP3   OH247187   0.142   3.357  12.550 -0.0053  0.3234 -0.3589
 8591TIP3    H147188   0.064   3.367  12.495 -0.3637  1.1170  0.2830
 8591TIP3    H247189   0.113   3.300  12.622  0.4408 -0.6479 -0.9311
 8592TIP3   OH247190   1.060   2.195   2.127  0.2272 -0.4726 -0.0456
 8592TIP3    H147191   1.006   2.272   2.147 -1.1384 -1.2577 -0.6120
 8592TIP3    H247192   1.146   2.216   2.164  0.6334  2.4134 -2.4541
 8593TIP3   OH247193   1.355   0.054   4.117 -0.5192 -0.1646  0.5026
 8593TIP3    H147194   1.337  -0.029   4.071  1.2800 -0.5517  0.4722
 8593TIP3    H247195   1.301   0.049   4.196 -2.1014 -0.3791 -0.5537
 8594TIP3   OH247196   4.291   0.796  13.201  0.0069 -0.2956 -0.3258
 8594TIP3    H147197   4.293   0.880  13.155  0.1674  0.4837  1.0762
 8594TIP3    H247198   4.209   0.797  13.250 -0.8004 -1.6944 -1.6410
 8595TIP3   OH247199   3.665   4.466  14.340  0.8257  0.9693  0.2205
 8595TIP3    H147200   3.721   4.542  14.356 -1.2816  3.0185 -1.6407
 8595TIP3    H247201   3.578   4.503  14.326 -0.7793 -2.0187  1.7609
 8596TIP3   OH247202   1.778   5.265  14.540  0.3105 -0.1234 -0.5927
 8596TIP3    H147203   1.805   5.242  14.629 -0.1250  2.0520  0.1444
 8596TIP3    H247204   1.774   5.181  14.494 -0.7272 -1.4549  1.7811
 8597TIP3   OH247205   0.882   3.684   3.708 -0.2681  0.8008 -0.5884
 8597TIP3    H147206   0.917   3.632   3.780 -0.5033  0.8022 -0.4725
 8597TIP3    H247207   0.859   3.620   3.641 -0.3897  0.7701 -0.5172
 8598TIP3   OH247208   4.330   1.048  15.628  0.4649  1.0292  0.1066
 8598TIP3    H147209   4.307   1.129  15.674  0.1905  1.4176 -0.7017
 8598TIP3    H247210   4.274   0.982  15.668  0.7073  1.2320  0.7903
 8599TIP3   OH247211   5.021   4.585  16.994  0.2629 -0.1348  0.1292
 8599TIP3    H147212   4.998   4.563  16.904  0.1923 -1.5564  0.4674
 8599TIP3    H247213   4.955   4.539  17.047  1.9638 -1.6362  1.0012
 8600TIP3   OH247214   2.671   0.140  13.385  0.5687 -0.2008  0.1051
 8600TIP3    H147215   2.656   0.061  13.437 -1.5479  0.5495  0.6989
 8600TIP3    H247216   2.611   0.130  13.310 -1.0846  1.6815  1.1495
 8601TIP3   OH247217   3.594   5.826  15.325  0.1638  0.3142 -0.7203
 8601TIP3    H147218   3.660   5.876  15.277 -0.4161  0.4667 -1.3668
 8601TIP3    H247219   3.628   5.737  15.327 -0.2984  0.0925 -2.3202
 8602TIP3   OH247220   3.347   3.880   5.664 -0.0948 -0.0394 -0.2762
 8602TIP3    H147221   3.390   3.941   5.724 -0.1256  0.1726 -0.4739
 8602TIP3    H247222   3.360   3.794   5.705 -1.3626  0.2623  0.7812
 8603TIP3   OH247223   0.630   2.176  16.786  0.8540 -0.1657  0.1875
 8603TIP3    H147224   0.676   2.104  16.829  1.4734  0.4927  0.6332
 8603TIP3    H247225   0.646   2.163  16.693 -0.0606 -1.3031  0.1691
 8604TIP3   OH247226   2.352   6.106   5.059 -0.7894  0.7590  0.5646
 8604TIP3    H147227   2.416   6.104   5.130 -1.4905  0.7966  1.1925
 8604TIP3    H247228   2.292   6.034   5.077 -0.5993  0.3624 -0.3414
 8605TIP3   OH247229   6.204   6.044  12.527 -0.8708 -0.2441  0.4355
 8605TIP3    H147230   6.279   6.082  12.480  0.5332 -0.3827  2.5023
 8605TIP3    H247231   6.244   5.982  12.588 -2.7535 -0.8647  1.0539
 8606TIP3   OH247232   4.873   1.060   0.070 -0.0723 -0.2959 -0.7173
 8606TIP3    H147233   4.914   0.981   0.105  2.6834  0.8195 -1.3480
 8606TIP3    H247234   4.882   1.125   0.141  1.2878  0.5930 -1.6792
 8607TIP3   OH247235   4.034   1.314  16.555  0.7544 -0.6520  0.5312
 8607TIP3    H147236   4.034   1.309  16.459  0.1695 -1.4070  0.5691
 8607TIP3    H247237   3.992   1.398  16.574  0.7001 -0.5853  0.1321
 8608TIP3   OH247238   3.964   0.203   4.323 -0.9506 -0.5278 -0.6500
 8608TIP3    H147239   3.919   0.225   4.241  0.5498 -0.2805 -1.4238
 8608TIP3    H247240   4.034   0.268   4.330  0.1629 -1.7529 -0.1736
 8609TIP3   OH247241   4.104   2.691   4.185 -0.1293  0.0160 -0.0848
 8609TIP3    H147242   4.080   2.605   4.218 -2.7703  0.9737  0.6354
 8609TIP3    H247243   4.088   2.686   4.091  0.5461 -0.5351 -0.1713
 8610TIP3   OH247244   4.909   0.589  12.302  0.3107  0.4267 -0.0930
 8610TIP3    H147245   4.821   0.627  12.308 -0.4773 -1.3992  0.0796
 8610TIP3    H247246   4.963   0.661  12.269 -1.1870  1.6456  0.0214
 8611TIP3   OH247247   0.909   2.677  16.061 -0.3782 -0.3276 -0.1494
 8611TIP3    H147248   0.856   2.635  15.994 -0.1974 -1.1285  0.2044
 8611TIP3    H247249   0.947   2.605  16.111 -0.0666  0.2532  0.4690
 8612TIP3   OH247250   3.505   5.529  11.991 -0.4502 -0.2528  0.1442
 8612TIP3    H147251   3.425   5.551  12.038 -0.9930 -0.8977 -0.4638
 8612TIP3    H247252   3.546   5.461  12.044 -0.0580  0.4096  0.7039
 8613TIP3   OH247253   3.046   5.324   3.115  0.1543 -0.0246 -0.3225
 8613TIP3    H147254   3.045   5.250   3.055  0.8366 -0.5673  0.3361
 8613TIP3    H247255   3.072   5.399   3.060 -1.9540  0.0236 -1.3034
 8614TIP3   OH247256   0.138   2.735  11.671  0.5211  0.0057  0.0197
 8614TIP3    H147257   0.228   2.724  11.703 -0.2631 -0.4040  2.1861
 8614TIP3    H247258   0.105   2.812  11.718 -0.5439 -0.3937 -0.0558
 8615TIP3   OH247259   1.555   5.669   5.494 -0.2328 -0.0561 -0.3313
 8615TIP3    H147260   1.567   5.636   5.583  0.1036 -1.4774 -0.8927
 8615TIP3    H247261   1.583   5.760   5.498  0.9847 -0.4607  0.7449
 8616TIP3   OH247262   0.413   6.653  11.986 -0.4238 -0.0759 -0.2683
 8616TIP3    H147263   0.484   6.706  11.953 -0.7168 -1.4457 -3.2560
 8616TIP3    H247264   0.352   6.715  12.026  0.1076  1.6429 -2.0831
 8617TIP3   OH247265   2.439   3.096   5.804 -0.2139 -0.3862 -0.6135
 8617TIP3    H147266   2.528   3.081   5.772 -0.0846  0.9211 -0.8936
 8617TIP3    H247267   2.398   3.010   5.803  1.3701 -1.1787  0.4867
 8618TIP3   OH247268   3.151   0.030  10.725  0.4903 -0.2350 -0.0925
 8618TIP3    H147269   3.191  -0.035  10.667  0.0240  0.4797 -1.2376
 8618TIP3    H247270   3.088   0.077  10.669 -1.0231 -0.4899  1.3543
 8619TIP3   OH247271   2.289   1.672   1.266 -0.2236 -0.1239 -0.0561
 8619TIP3    H147272   2.384   1.671   1.277 -0.0666  0.8022 -1.1922
 8619TIP3    H247273   2.258   1.596   1.315  1.1694 -0.8302 -0.2495
 8620TIP3   OH247274   4.181   1.927  13.088  0.0168  0.1875 -0.0850
 8620TIP3    H147275   4.174   1.910  12.994 -0.7875 -0.4448  0.0839
 8620TIP3    H247276   4.181   1.840  13.128 -0.4946  0.4792  0.5556
 8621TIP3   OH247277   3.088   2.714   5.257  0.0183  0.2431 -0.1723
 8621TIP3    H147278   3.023   2.776   5.290  0.7141  1.2515 -0.6592
 8621TIP3    H247279   3.155   2.711   5.326 -0.3157 -0.4421  0.1241
 8622TIP3   OH247280   3.087   4.099   2.544  0.6473 -0.5640 -0.1547
 8622TIP3    H147281   3.070   4.186   2.580  1.5202 -0.0386 -1.0148
 8622TIP3    H247282   3.018   4.044   2.582 -0.4829  0.6889 -0.3520
 8623TIP3   OH247283   6.127   4.327  12.136  0.1217  0.0159 -0.6398
 8623TIP3    H147284   6.071   4.404  12.125 -0.4860 -0.4787 -1.0463
 8623TIP3    H247285   6.216   4.361  12.125 -0.0087  1.0271  1.2140
 8624TIP3   OH247286   3.251   3.765   5.192  0.4680  0.3470  0.1354
 8624TIP3    H147287   3.181   3.786   5.253  0.6796  0.1153  0.4625
 8624TIP3    H247288   3.240   3.826   5.120 -1.1763 -0.8822 -0.6764
 8625TIP3   OH247289   6.659   3.917  13.915  0.5251  0.0985 -0.0126
 8625TIP3    H147290   6.674   3.908  14.009  1.4463  0.4780 -0.1190
 8625TIP3    H247291   6.728   3.864  13.875  0.7447  0.7435 -0.4904
 8626TIP3   OH247292   3.493   3.666  12.260  0.3881 -0.6607 -0.0359
 8626TIP3    H147293   3.486   3.714  12.177 -0.5254 -1.9908 -0.7335
 8626TIP3    H247294   3.404   3.668  12.296  0.9829  0.7693  1.4147
 8627TIP3   OH247295   3.848   4.474   1.739  0.5436 -0.0671  0.0623
 8627TIP3    H147296   3.915   4.462   1.806  0.5846 -0.1164  0.0123
 8627TIP3    H247297   3.830   4.568   1.740  0.1425 -0.1461  0.5295
 8628TIP3   OH247298   1.531   6.513   6.070  0.2718  0.0908 -0.8077
 8628TIP3    H147299   1.484   6.467   6.140  0.7412 -0.2543 -0.7145
 8628TIP3    H247300   1.624   6.496   6.088  0.4099  0.2774 -1.3195
 8629TIP3   OH247301   4.811   1.219   4.850  0.6251  0.2459  0.0727
 8629TIP3    H147302   4.755   1.248   4.922  1.3508  1.3884  0.1853
 8629TIP3    H247303   4.899   1.241   4.878  0.8435  1.5721 -1.5635
 8630TIP3   OH247304   4.881   6.282  13.849 -0.1051  0.2301 -0.5930
 8630TIP3    H147305   4.866   6.252  13.759 -0.1383  1.8997 -1.1665
 8630TIP3    H247306   4.943   6.354  13.840  0.0537  0.2647  0.7511
 8631TIP3   OH247307   6.492   2.109   4.192  0.7429  0.0151 -0.3158
 8631TIP3    H147308   6.570   2.055   4.182  1.0614  0.8663 -2.7203
 8631TIP3    H247309   6.520   2.197   4.166 -0.9690  0.3477 -1.1029
 8632TIP3   OH247310   4.904   4.114   0.586 -0.0843  0.4459  0.1683
 8632TIP3    H147311   4.928   4.197   0.545  0.4014  0.4239  0.4027
 8632TIP3    H247312   4.945   4.048   0.531 -0.0939  0.3795  0.2418
 8633TIP3   OH247313   0.483   0.481   1.750  0.2152 -0.2836  0.3335
 8633TIP3    H147314   0.391   0.459   1.766 -0.1050  0.3319 -0.6549
 8633TIP3    H247315   0.483   0.528   1.667  1.3208  0.4907  0.7531
 8634TIP3   OH247316   3.140   2.287  15.673 -0.0692  0.2707  0.0974
 8634TIP3    H147317   3.055   2.313  15.708  0.2331  0.1479  0.9256
 8634TIP3    H247318   3.133   2.302  15.578 -0.2010  2.5188  0.4469
 8635TIP3   OH247319   3.397   4.535  15.870 -0.1328  0.4375 -0.6700
 8635TIP3    H147320   3.487   4.509  15.854 -0.6317 -1.3782 -0.6627
 8635TIP3    H247321   3.357   4.538  15.783 -0.5709 -0.7635 -0.5260
 8636TIP3   OH247322   6.186   6.692   2.359 -0.2753 -0.0984  0.5293
 8636TIP3    H147323   6.095   6.714   2.341  0.7121  3.2231 -0.8979
 8636TIP3    H247324   6.207   6.622   2.297 -1.2315  0.7515 -0.7839
 8637TIP3   OH247325   6.537   0.389  12.988  0.0091  0.0255  0.0436
 8637TIP3    H147326   6.486   0.458  12.946 -1.0149 -1.1933 -0.7616
 8637TIP3    H247327   6.545   0.321  12.921  2.8297  0.2437  0.1097
 8638TIP3   OH247328   4.920   6.072  10.463 -0.0959  0.3856  0.1337
 8638TIP3    H147329   4.946   6.164  10.470 -0.6238  0.5501 -0.0116
 8638TIP3    H247330   4.825   6.075  10.449 -0.1821 -0.1928  0.5736
 8639TIP3   OH247331   6.244   5.962  13.748  0.1025  0.0376  0.5302
 8639TIP3    H147332   6.256   5.873  13.717  2.5584  0.3882  0.3472
 8639TIP3    H247333   6.160   5.961  13.794 -0.2923 -2.1409 -0.2061
 8640TIP3   OH247334   1.917   0.122   4.942 -0.0535  0.2206 -0.4008
 8640TIP3    H147335   2.009   0.097   4.950 -0.3756 -0.7897  0.2203
 8640TIP3    H247336   1.898   0.117   4.849  0.4339  0.1296 -0.4922
 8641TIP3   OH247337   3.055   5.925  12.284 -0.4808 -0.5047  0.3764
 8641TIP3    H147338   3.054   6.020  12.273 -1.3688 -0.5869 -0.2622
 8641TIP3    H247339   2.966   5.903  12.311 -0.5458 -1.2751 -0.4515
 8642TIP3   OH247340   0.455   3.226  15.011  0.1650  0.2094 -0.8575
 8642TIP3    H147341   0.502   3.281  14.949 -0.5264  1.3884 -0.3556
 8642TIP3    H247342   0.465   3.270  15.095  0.1594 -0.7898 -0.3244
 8643TIP3   OH247343   0.039   0.974  13.015  0.3602  0.2261  0.1172
 8643TIP3    H147344  -0.043   1.021  13.032 -0.1494 -0.7479  0.3861
 8643TIP3    H247345   0.026   0.888  13.056  1.5059  0.0571  0.1361
 8644TIP3   OH247346   1.447   6.337   0.234 -0.2056  0.4508 -0.0033
 8644TIP3    H147347   1.508   6.275   0.192 -0.2315 -0.2720  1.0109
 8644TIP3    H247348   1.491   6.421   0.229 -0.4580  0.4931 -2.0075
 8645TIP3   OH247349   1.551   1.135   5.073 -0.1401 -0.0744  0.0964
 8645TIP3    H147350   1.586   1.213   5.117  3.3650 -1.3604 -0.2752
 8645TIP3    H247351   1.522   1.167   4.987 -0.8471  1.2348  0.8180
 8646TIP3   OH247352   1.704   2.502  16.607 -0.5169 -0.2273 -0.1755
 8646TIP3    H147353   1.656   2.452  16.541  0.2649 -1.4401  0.1633
 8646TIP3    H247354   1.638   2.527  16.672 -0.9701 -0.5038 -0.5320
 8647TIP3   OH247355   6.567   3.239  15.243  0.3648  0.5491  0.6212
 8647TIP3    H147356   6.542   3.169  15.182 -0.6911  2.0197 -0.6748
 8647TIP3    H247357   6.643   3.204  15.290  0.4211 -1.0966 -0.6436
 8648TIP3   OH247358   3.996   1.590  16.560 -0.1927  0.6620  0.0306
 8648TIP3    H147359   3.951   1.594  16.475  0.3727  1.0690 -0.2575
 8648TIP3    H247360   4.078   1.637  16.545  0.3191 -0.0713  0.5506
 8649TIP3   OH247361   5.468   5.772  10.928 -0.5587  0.1894  0.5850
 8649TIP3    H147362   5.480   5.679  10.948  1.1662  0.1466 -0.5207
 8649TIP3    H247363   5.481   5.816  11.011 -3.9456 -0.6923  1.6891
 8650TIP3   OH247364   2.551   2.891  13.768  0.0641  0.1422 -0.1945
 8650TIP3    H147365   2.608   2.925  13.837 -0.0027  1.6792 -0.8844
 8650TIP3    H247366   2.518   2.808  13.803  1.1883  0.1909  1.0097
 8651TIP3   OH247367   1.759   0.269  17.017  0.3180 -0.3799  0.8002
 8651TIP3    H147368   1.795   0.299  17.101  1.4980  0.4311  0.0302
 8651TIP3    H247369   1.836   0.261  16.960 -0.4261 -1.3343 -0.0757
 8652TIP3   OH247370   4.609   2.371   4.802 -0.2088  0.2070 -0.2332
 8652TIP3    H147371   4.513   2.373   4.804 -0.1529  1.8139  0.7700
 8652TIP3    H247372   4.629   2.310   4.730 -1.9769  3.1416 -3.3502
 8653TIP3   OH247373   6.623   6.029   2.228  0.2752 -0.5095 -0.8279
 8653TIP3    H147374   6.674   6.018   2.309  1.3334  1.5676 -1.1584
 8653TIP3    H247375   6.672   5.981   2.162 -0.1288 -1.4919 -0.4240
 8654TIP3   OH247376   1.659   6.122   4.913  0.4756  0.1513 -0.0529
 8654TIP3    H147377   1.710   6.076   4.847 -1.0025 -1.7228  0.0603
 8654TIP3    H247378   1.632   6.203   4.871  3.6621  1.2957 -0.0446
 8655TIP3   OH247379   4.492   4.786   3.413 -0.6724  0.8877 -0.3477
 8655TIP3    H147380   4.541   4.751   3.487 -2.7169  0.5157  0.8595
 8655TIP3    H247381   4.560   4.814   3.351  1.0428 -0.6163  0.7907
 8656TIP3   OH247382   3.193   6.494  16.736  0.1289  0.3141  0.0475
 8656TIP3    H147383   3.138   6.475  16.812 -1.8513  2.9308 -0.6581
 8656TIP3    H247384   3.213   6.588  16.744  2.6987 -0.1233 -0.8833
 8657TIP3   OH247385   1.252   3.227   3.619  0.7373 -0.2962 -0.2921
 8657TIP3    H147386   1.309   3.225   3.696  1.0483  3.6674 -0.3348
 8657TIP3    H247387   1.169   3.262   3.652  0.1724 -0.6270 -1.3500
 8658TIP3   OH247388   5.393   1.323   5.261 -0.1563  0.2293 -0.0011
 8658TIP3    H147389   5.333   1.394   5.284 -0.5682  0.4416 -1.6674
 8658TIP3    H247390   5.478   1.366   5.248 -0.1328  0.2412  0.1923
 8659TIP3   OH247391   3.861   3.251   1.810  0.3290  0.9909  0.6388
 8659TIP3    H147392   3.781   3.289   1.846  0.7988  0.6040  2.1183
 8659TIP3    H247393   3.832   3.204   1.731 -1.1862 -0.6176  2.1139
 8660TIP3   OH247394   5.237   4.918   4.066  1.2312 -0.5765 -0.4624
 8660TIP3    H147395   5.222   4.898   3.973  3.4434  1.1325 -1.2270
 8660TIP3    H247396   5.149   4.928   4.102  0.3220  1.0683 -2.9319
 8661TIP3   OH247397   5.260   0.877   6.531 -0.4567 -0.1249 -0.1061
 8661TIP3    H147398   5.308   0.921   6.602  0.3811  0.2969 -0.9209
 8661TIP3    H247399   5.243   0.947   6.468  1.5943 -1.0974 -1.7969
 8662TIP3   OH247400   2.327   2.183   0.177  0.5768 -0.2569 -0.2355
 8662TIP3    H147401   2.281   2.115   0.128 -0.3164  1.2232 -1.4717
 8662TIP3    H247402   2.340   2.145   0.264 -0.4352 -1.7761 -0.7361
 8663TIP3   OH247403   3.262   5.037   3.945 -0.2891 -0.2767 -0.2416
 8663TIP3    H147404   3.198   5.004   3.882 -0.8036 -0.0642  0.1660
 8663TIP3    H247405   3.209   5.065   4.020  0.4844 -2.8007  1.3128
 8664TIP3   OH247406   1.387   5.657  11.100  0.3702  0.0303 -0.8163
 8664TIP3    H147407   1.428   5.741  11.080 -1.5002  1.0342 -0.5541
 8664TIP3    H247408   1.406   5.602  11.024 -2.0908  2.1045 -3.0298
 8665TIP3   OH247409   4.926   5.173   0.235  0.1289 -0.4915  0.5670
 8665TIP3    H147410   4.888   5.107   0.293 -1.3405 -0.1961 -0.0393
 8665TIP3    H247411   4.881   5.160   0.152  1.1261  0.0998 -0.0742
 8666TIP3   OH247412   6.567   6.019   0.847 -0.3053 -0.1156  0.2091
 8666TIP3    H147413   6.656   6.020   0.882  0.4590 -0.4673 -1.6837
 8666TIP3    H247414   6.551   5.928   0.823 -0.3113  0.3636 -1.6252
 8667TIP3   OH247415   0.562   0.312  14.534  0.3308  0.3825  0.0340
 8667TIP3    H147416   0.637   0.363  14.504  0.3906  0.1167 -0.2565
 8667TIP3    H247417   0.508   0.376  14.581 -0.6980  1.2312 -2.2140
 8668TIP3   OH247418   5.886   0.121   5.279 -0.0272 -0.1064  0.2718
 8668TIP3    H147419   5.900   0.206   5.320 -0.5759  0.0720  0.0799
 8668TIP3    H247420   5.857   0.140   5.190  0.7512 -0.4961 -0.0787
 8669TIP3   OH247421   2.068   6.727   5.207  0.2129 -0.1778  0.3619
 8669TIP3    H147422   2.147   6.777   5.228 -0.1738  0.6315 -0.0699
 8669TIP3    H247423   2.007   6.749   5.277  0.4091 -0.8871  0.7547
 8670TIP3   OH247424   0.795   5.313  14.414 -0.2113 -0.7162  0.5441
 8670TIP3    H147425   0.828   5.319  14.325 -0.3566  0.9276  0.5819
 8670TIP3    H247426   0.874   5.313  14.469 -0.0262 -4.0774  0.3423
 8671TIP3   OH247427   0.762   6.252  10.664 -0.4171 -0.8093 -0.0359
 8671TIP3    H147428   0.830   6.315  10.639 -0.3530 -0.8402  0.0604
 8671TIP3    H247429   0.768   6.183  10.597 -0.8806 -0.4224 -0.4800
 8672TIP3   OH247430   6.166   0.418  11.766  0.0715 -0.5210 -0.0207
 8672TIP3    H147431   6.109   0.432  11.691  0.4706  0.1002 -0.2163
 8672TIP3    H247432   6.226   0.349  11.739 -0.7043 -1.3150  0.2584
 8673TIP3   OH247433   3.980   2.571   5.803  0.0107 -0.1453  0.1757
 8673TIP3    H147434   4.049   2.516   5.838  2.5339  1.6188 -1.8257
 8673TIP3    H247435   3.952   2.625   5.878  2.0665  0.3632  0.6014
 8674TIP3   OH247436   1.050   3.083  15.598 -0.0182  0.0352  0.2009
 8674TIP3    H147437   1.089   3.153  15.651  0.6148  1.2935 -1.8470
 8674TIP3    H247438   0.958   3.107  15.590  0.0420  0.2329  0.1071
 8675TIP3   OH247439   1.322   6.677  16.813 -0.0801 -0.7532  0.1885
 8675TIP3    H147440   1.329   6.676  16.718 -3.0001  0.2548 -0.0974
 8675TIP3    H247441   1.305   6.769  16.835  1.0764 -0.8789  1.7463
 8676TIP3   OH247442   6.019   0.180  16.565  0.7493  0.1105 -0.1290
 8676TIP3    H147443   5.939   0.139  16.532  1.8501 -1.6802 -0.6367
 8676TIP3    H247444   5.989   0.260  16.609 -1.0733  0.7018 -2.3638
 8677TIP3   OH247445   0.952   1.553  14.292 -0.0480 -0.5044  0.5037
 8677TIP3    H147446   1.043   1.543  14.321 -0.3093 -0.5209  1.3346
 8677TIP3    H247447   0.935   1.474  14.240 -0.3112 -1.6387  2.2867
 8678TIP3   OH247448   1.899   5.038   5.277 -0.3577 -0.0824 -0.5417
 8678TIP3    H147449   1.981   5.028   5.229  0.7576 -0.2567  1.3116
 8678TIP3    H247450   1.903   5.127   5.312 -1.4465  0.2696 -1.3086
 8679TIP3   OH247451   3.518   6.646   3.233  0.0301 -0.4430 -0.0243
 8679TIP3    H147452   3.506   6.577   3.299  1.0777 -0.1824  0.4383
 8679TIP3    H247453   3.484   6.725   3.274  0.4436 -0.3333  0.1074
 8680TIP3   OH247454   5.759   0.775   0.411  0.5346 -0.8804 -0.3005
 8680TIP3    H147455   5.701   0.715   0.458 -0.0854  0.7340  1.0123
 8680TIP3    H247456   5.744   0.860   0.451  2.0346  0.0159 -1.5850
 8681TIP3   OH247457   1.891   6.773   5.424 -0.4752  0.2627  0.2389
 8681TIP3    H147458   1.847   6.855   5.443  0.2258  0.6717  0.1227
 8681TIP3    H247459   1.966   6.772   5.484 -0.5148 -0.3147  0.2793
 8682TIP3   OH247460   5.551   5.010   2.106  0.4360  0.0534  0.0041
 8682TIP3    H147461   5.510   4.947   2.165 -1.1454  1.3742  0.3503
 8682TIP3    H247462   5.579   4.958   2.031 -0.0412 -1.1895  0.6754
 8683TIP3   OH247463   5.572   6.594  17.055  0.3345  0.1294  0.1158
 8683TIP3    H147464   5.511   6.527  17.086  1.4940  0.0614  2.3940
 8683TIP3    H247465   5.656   6.571  17.096  1.1717  1.9180 -0.5315
 8684TIP3   OH247466   0.231   1.940  16.483 -0.6577  0.0891 -0.1493
 8684TIP3    H147467   0.193   2.021  16.448  0.5247  0.2801 -1.0362
 8684TIP3    H247468   0.322   1.942  16.453 -0.6057 -1.5485 -0.1172
 8685TIP3   OH247469   5.659   1.366  15.241 -0.2356 -0.0852  0.4044
 8685TIP3    H147470   5.627   1.338  15.155  0.7053 -0.3551  0.1329
 8685TIP3    H247471   5.580   1.370  15.295 -0.7599 -0.5327 -0.2998
 8686TIP3   OH247472   4.340   6.524   2.700 -0.3395  0.2093 -0.2688
 8686TIP3    H147473   4.346   6.433   2.730 -0.3470  0.6228  1.0044
 8686TIP3    H247474   4.254   6.530   2.658 -1.3950  0.2606  1.8400
 8687TIP3   OH247475   4.711   6.628  14.991  0.5194 -0.0420 -0.0264
 8687TIP3    H147476   4.627   6.663  14.960  0.7926  1.8659  1.3158
 8687TIP3    H247477   4.701   6.533  14.982 -1.5762  0.1818 -0.4326
 8688TIP3   OH247478   1.700   4.978   3.194  0.3559 -0.6124  0.3177
 8688TIP3    H147479   1.758   4.910   3.230  0.5790 -1.1185 -0.9492
 8688TIP3    H247480   1.613   4.954   3.224  0.5771 -0.8724  0.7555
 8689TIP3   OH247481   4.466   4.193   1.604 -0.0694  0.2113  0.3260
 8689TIP3    H147482   4.410   4.241   1.665  2.2867  3.8458 -0.1478
 8689TIP3    H247483   4.408   4.167   1.532 -1.8404  0.5225  1.6276
 8690TIP3   OH247484   0.118   2.583  16.137  0.2095  0.1379  0.1016
 8690TIP3    H147485   0.209   2.596  16.111  0.5160 -0.4934  0.8424
 8690TIP3    H247486   0.075   2.546  16.060  0.5564  0.4987 -0.2704
 8691TIP3   OH247487   1.325   0.053  13.244  0.2790 -0.6578 -0.2097
 8691TIP3    H147488   1.272  -0.008  13.193  1.4003 -1.2811 -0.6486
 8691TIP3    H247489   1.288   0.050  13.332 -0.7943 -0.6197 -0.6553
 8692TIP3   OH247490   0.435   3.629   1.561 -0.5396  0.4603  0.2720
 8692TIP3    H147491   0.476   3.685   1.627  0.8281  0.1271 -0.2806
 8692TIP3    H247492   0.341   3.649   1.568 -0.1874  2.0382  0.8017
 8693TIP3   OH247493   6.652   3.745  10.430  0.2825 -0.1448  0.2787
 8693TIP3    H147494   6.697   3.661  10.444  0.8008  0.0596 -0.1542
 8693TIP3    H247495   6.720   3.811  10.442 -0.1968  0.2323  0.9335
 8694TIP3   OH247496   1.237   3.829  16.776  0.0355 -0.5472 -0.4362
 8694TIP3    H147497   1.248   3.917  16.812 -2.1838  0.5948 -2.4912
 8694TIP3    H247498   1.184   3.783  16.841  0.4723 -0.1169  0.2316
 8695TIP3   OH247499   0.231   1.226   3.369  0.0043  0.2910 -0.3066
 8695TIP3    H147500   0.158   1.231   3.430 -0.4404  0.4746 -0.8539
 8695TIP3    H247501   0.223   1.139   3.328 -0.7336  0.8543 -1.3898
 8696TIP3   OH247502   5.765   1.028  11.530  0.6484  0.2929 -0.3857
 8696TIP3    H147503   5.733   1.085  11.460 -2.8348 -1.2852 -0.1800
 8696TIP3    H247504   5.778   0.943  11.487  1.4688  0.0825  0.2593
 8697TIP3   OH247505   3.965   5.816  10.364 -0.0549  0.2658 -0.1544
 8697TIP3    H147506   4.021   5.892  10.376  0.9052 -0.4779  0.0798
 8697TIP3    H247507   3.988   5.756  10.435 -0.4097 -0.4868 -0.6535
 8698TIP3   OH247508   4.474   4.703   0.840  0.3667  0.2264  0.0631
 8698TIP3    H147509   4.479   4.662   0.927 -0.5915  0.1119  0.0668
 8698TIP3    H247510   4.515   4.789   0.852 -0.5441  0.5612  0.8457
 8699TIP3   OH247511   3.960   4.329   1.110 -0.0109 -0.8936  0.5777
 8699TIP3    H147512   3.935   4.420   1.094 -0.7893 -1.5086 -1.9149
 8699TIP3    H247513   4.052   4.326   1.085 -0.1682 -0.9554  0.0121
 8700TIP3   OH247514   2.085   2.711   2.299  0.3596  0.5886  0.3693
 8700TIP3    H147515   2.111   2.776   2.234  1.7184  1.6444  1.8957
 8700TIP3    H247516   2.165   2.662   2.318 -0.0960  0.0534  0.9665
 8701TIP3   OH247517   0.828   6.143  17.109  0.2214  0.0735  0.1387
 8701TIP3    H147518   0.749   6.192  17.086  0.7793  0.1194 -1.7827
 8701TIP3    H247519   0.881   6.205  17.160 -2.0789 -0.7899  3.7267
 8702TIP3   OH247520   5.072   4.356  15.504 -0.3590  0.5631  0.6870
 8702TIP3    H147521   5.081   4.400  15.589  1.7207 -1.5929  1.6200
 8702TIP3    H247522   5.005   4.289  15.519 -2.6610  2.5434 -0.4151
 8703TIP3   OH247523   4.092   3.941   1.226 -0.2360 -0.2170 -0.1746
 8703TIP3    H147524   4.036   3.976   1.157  0.9581  1.9383 -0.0975
 8703TIP3    H247525   4.148   3.878   1.182  0.7588  1.3991 -1.3043
 8704TIP3   OH247526   1.644   4.556  14.896 -0.0688  0.2207  1.1480
 8704TIP3    H147527   1.578   4.594  14.838  2.0406 -0.7036 -2.0139
 8704TIP3    H247528   1.645   4.463  14.875 -0.3937 -0.4523  3.9025
 8705TIP3   OH247529   3.115   6.415  11.281 -0.2051  0.2704 -0.1964
 8705TIP3    H147530   3.188   6.404  11.343  1.4122  1.5533 -1.8406
 8705TIP3    H247531   3.157   6.422  11.195 -2.2581  1.3602 -1.1384
 8706TIP3   OH247532   2.309   2.502   5.631 -0.2960  0.2219 -0.2373
 8706TIP3    H147533   2.341   2.578   5.583  0.4987 -0.1923 -0.3680
 8706TIP3    H247534   2.250   2.539   5.697  1.9089  1.1807  1.2670
 8707TIP3   OH247535   1.592   0.721  16.619 -0.3073  0.2648 -0.4696
 8707TIP3    H147536   1.516   0.778  16.620  1.6657  2.9930  2.2604
 8707TIP3    H247537   1.664   0.778  16.591  1.3346 -1.4252  0.2302
 8708TIP3   OH247538   0.303   5.504  10.989 -0.1682 -0.7370  0.3061
 8708TIP3    H147539   0.247   5.550  10.926 -0.4636 -0.6484  0.6363
 8708TIP3    H247540   0.391   5.515  10.953 -0.0863  1.1460  0.9997
 8709TIP3   OH247541   0.593   5.807   1.116 -0.2454  0.5479  0.5979
 8709TIP3    H147542   0.663   5.754   1.077 -1.5163 -1.1937  0.6365
 8709TIP3    H247543   0.571   5.762   1.197  0.0769  2.3070  1.6963
 8710TIP3   OH247544   4.299   2.752   0.904 -0.2955 -0.2352 -0.4663
 8710TIP3    H147545   4.378   2.802   0.922 -0.3029  0.1346 -1.4325
 8710TIP3    H247546   4.331   2.664   0.884 -0.1327 -0.1181 -0.7276
 8711TIP3   OH247547   3.342   6.302   4.294  0.2555  0.1422 -0.1472
 8711TIP3    H147548   3.404   6.232   4.276  0.0039 -0.2823  0.6157
 8711TIP3    H247549   3.396   6.374   4.327  0.5414  0.3970 -1.1591
 8712TIP3   OH247550   4.638   5.108   1.219  0.4947 -0.1126  0.4785
 8712TIP3    H147551   4.709   5.169   1.239  0.4238 -0.3730  1.5434
 8712TIP3    H247552   4.571   5.127   1.285  0.6003 -1.5481  1.0145
 8713TIP3   OH247553   1.028   5.800   2.243  0.1983  0.1786  0.4832
 8713TIP3    H147554   1.010   5.767   2.155  1.9176 -1.4780  0.7213
 8713TIP3    H247555   1.047   5.721   2.295  2.5240  1.3946  1.5344
 8714TIP3   OH247556   6.061   6.058   0.606  0.3563 -0.2686 -0.6835
 8714TIP3    H147557   6.106   6.117   0.667  0.1490 -1.1273  0.3165
 8714TIP3    H247558   5.968   6.071   0.624  0.3259 -1.2763 -0.0968
 8715TIP3   OH247559   2.325   2.400   1.043  0.3675  0.5299  0.9490
 8715TIP3    H147560   2.279   2.349   0.977  2.1944  0.5949 -0.4167
 8715TIP3    H247561   2.256   2.439   1.097 -1.1574  0.9581 -1.2864
 8716TIP3   OH247562   6.126   5.389   2.853  0.2315 -0.3540  0.2551
 8716TIP3    H147563   6.039   5.428   2.841  1.1371  1.5260 -0.5308
 8716TIP3    H247564   6.110   5.295   2.859 -1.4254 -0.4922 -4.4904
 8717TIP3   OH247565   0.279   6.546  10.958 -0.0325 -0.3480  0.1299
 8717TIP3    H147566   0.207   6.487  10.934  0.6053 -0.3938 -1.6983
 8717TIP3    H247567   0.274   6.617  10.894  0.3984  0.6217  1.1507
 8718TIP3   OH247568   3.634   4.747   5.797  0.0129  0.5911 -0.3605
 8718TIP3    H147569   3.619   4.839   5.775 -1.5030  0.1437 -1.2672
 8718TIP3    H247570   3.613   4.699   5.716  0.4838 -0.5823  0.1956
 8719TIP3   OH247571   5.706   2.531  14.980  0.0602 -0.0937  0.6579
 8719TIP3    H147572   5.774   2.464  14.974 -0.1912 -0.2941  0.0328
 8719TIP3    H247573   5.634   2.488  15.027  0.6306  0.3362  1.9364
 8720TIP3   OH247574   2.231   5.658   2.507 -0.6064  0.5442  0.1907
 8720TIP3    H147575   2.266   5.726   2.450 -0.5814  1.2459  1.0278
 8720TIP3    H247576   2.289   5.582   2.493 -0.8594  0.5672 -1.0202
 8721TIP3   OH247577   4.269   0.957   5.667 -0.2550  0.0215  0.3537
 8721TIP3    H147578   4.259   1.050   5.688 -0.6460  0.3064 -1.0861
 8721TIP3    H247579   4.364   0.944   5.665 -0.2033  0.2244  1.2697
 8722TIP3   OH247580   5.106   3.275  11.728  0.7680  0.0157 -0.3040
 8722TIP3    H147581   5.137   3.209  11.791  0.0791 -0.2501 -0.2443
 8722TIP3    H247582   5.109   3.230  11.644 -0.0933 -0.2222 -0.2074
 8723TIP3   OH247583   0.710   4.600   1.737 -0.0590 -0.6698  0.1930
 8723TIP3    H147584   0.686   4.652   1.660  0.9890 -0.3100  0.1063
 8723TIP3    H247585   0.626   4.577   1.777 -0.5299  1.6051  0.5845
 8724TIP3   OH247586   1.565   2.632   3.861 -0.4575 -0.2407 -1.0796
 8724TIP3    H147587   1.624   2.707   3.870  1.7409 -1.9048 -1.2012
 8724TIP3    H247588   1.479   2.666   3.884  0.2220  2.7174 -2.6658
 8725TIP3   OH247589   4.867   6.657   2.238 -0.5813 -0.4760 -0.4025
 8725TIP3    H147590   4.842   6.647   2.330  2.8563  2.8764  1.0195
 8725TIP3    H247591   4.908   6.573   2.215 -1.9676 -1.5371  0.9091
 8726TIP3   OH247592   2.410   5.386   4.948 -0.5116 -0.0969  0.3508
 8726TIP3    H147593   2.497   5.359   4.978  0.2576  0.1742 -1.5691
 8726TIP3    H247594   2.418   5.390   4.853 -1.7773  2.8094  0.3181
 8727TIP3   OH247595   1.587   5.743  16.885  0.1644  0.9204  0.6757
 8727TIP3    H147596   1.624   5.735  16.797 -2.6535 -1.0997 -0.4306
 8727TIP3    H247597   1.633   5.677  16.937  0.4599  0.7442  0.1861
 8728TIP3   OH247598   3.884   4.436   0.766  0.0799 -0.1165 -0.2023
 8728TIP3    H147599   3.944   4.422   0.693 -0.2189 -0.5433 -0.3663
 8728TIP3    H247600   3.900   4.527   0.793  0.5843 -0.1332 -0.4366
 8729TIP3   OH247601   4.394   2.873  10.470  0.1769 -0.0864  0.4655
 8729TIP3    H147602   4.391   2.779  10.455 -1.3289 -0.1633  1.1408
 8729TIP3    H247603   4.346   2.886  10.552  0.4798  1.2485  0.4490
 8730TIP3   OH247604   0.911   5.803  12.264  0.3404  0.0689  0.1584
 8730TIP3    H147605   0.980   5.760  12.315  1.5237 -2.0877 -3.0899
 8730TIP3    H247606   0.958   5.866  12.210 -0.5904  0.5256 -0.1141
 8731TIP3   OH247607   2.667   2.056  16.558  0.7858  0.0234  0.9456
 8731TIP3    H147608   2.611   2.044  16.635 -2.1104  0.3583 -1.0132
 8731TIP3    H247609   2.669   1.970  16.516  0.7959  0.2760  0.4147
 8732TIP3   OH247610   3.247   0.226   2.032  0.0772  0.1529  0.0774
 8732TIP3    H147611   3.206   0.303   2.071  0.7128  0.5068  0.0672
 8732TIP3    H247612   3.298   0.188   2.104  0.6180  0.3593 -0.1855
 8733TIP3   OH247613   0.676   6.454   0.883  0.0863 -0.2456 -0.0892
 8733TIP3    H147614   0.768   6.468   0.862 -0.3520  0.1556 -1.8481
 8733TIP3    H247615   0.662   6.500   0.965  0.8651  1.8515 -1.0932
 8734TIP3   OH247616   3.863   4.513  16.102  0.4527 -0.1727  0.3270
 8734TIP3    H147617   3.868   4.423  16.136 -1.1837  0.0643  1.2345
 8734TIP3    H247618   3.817   4.562  16.170 -0.0655  1.0067 -0.8529
 8735TIP3   OH247619   1.016   1.791   0.439 -0.3159 -0.0994 -0.2302
 8735TIP3    H147620   1.059   1.841   0.508 -0.3669 -1.0779  0.5327
 8735TIP3    H247621   0.939   1.842   0.416 -0.2441  0.2889  0.3819
 8736TIP3   OH247622   6.237   0.007  15.607 -0.3602 -0.1597 -0.2787
 8736TIP3    H147623   6.284   0.087  15.629  0.9068 -0.5655 -1.4266
 8736TIP3    H247624   6.254  -0.052  15.680 -1.4484  0.6632  0.6578
 8737TIP3   OH247625   3.464   0.811   3.987  0.5556  0.4694 -0.0591
 8737TIP3    H147626   3.518   0.747   4.032  0.9898  0.0636 -1.1364
 8737TIP3    H247627   3.428   0.866   4.057  0.4983 -0.6873  0.8327
 8738TIP3   OH247628   1.580   1.281   4.829 -0.3466 -0.2238  0.0588
 8738TIP3    H147629   1.553   1.215   4.766 -0.5408 -0.1138  0.0247
 8738TIP3    H247630   1.527   1.358   4.807 -0.0482 -0.0251  0.0313
 8739TIP3   OH247631   2.913   5.403  11.429 -0.2851 -0.2602  0.2222
 8739TIP3    H147632   2.949   5.316  11.411 -0.3149 -0.6872  2.1173
 8739TIP3    H247633   2.819   5.392  11.417 -0.2399 -0.3492 -0.0659
 8740TIP3   OH247634   3.858   5.224  11.955 -0.4868  0.0610 -0.1952
 8740TIP3    H147635   3.806   5.246  12.032 -0.0702  1.2694 -0.2329
 8740TIP3    H247636   3.943   5.199  11.989 -0.4010  0.2880 -0.2384
 8741TIP3   OH247637   6.476   0.971  14.253 -0.0600 -0.1036  0.1796
 8741TIP3    H147638   6.441   0.882  14.257 -0.9733  0.2897  1.3622
 8741TIP3    H247639   6.566   0.961  14.223 -0.5020 -1.3334 -0.7401
 8742TIP3   OH247640   3.132   1.261   2.093  0.2554 -0.4549 -0.3642
 8742TIP3    H147641   3.195   1.193   2.119  0.7736 -0.2071 -0.9512
 8742TIP3    H247642   3.075   1.271   2.169  0.2796 -1.4286 -0.2043
 8743TIP3   OH247643   6.214   5.294   5.695 -0.5986 -0.2338 -0.6391
 8743TIP3    H147644   6.229   5.389   5.693 -1.4623  0.0351  2.4686
 8743TIP3    H247645   6.296   5.256   5.667  0.5166  1.4226  0.2716
 8744TIP3   OH247646   1.416   5.049   1.037  0.0180 -0.3766  0.3557
 8744TIP3    H147647   1.369   5.084   0.962 -0.7259  1.0269  1.4667
 8744TIP3    H247648   1.386   5.101   1.111  0.0316 -2.3614  1.8017
 8745TIP3   OH247649   3.171   3.130   2.741  0.5498 -0.2178 -0.2629
 8745TIP3    H147650   3.147   3.080   2.663 -0.3941  1.3594 -1.0030
 8745TIP3    H247651   3.158   3.221   2.716  2.3973  0.4289  1.0146
 8746TIP3   OH247652   3.344   3.324   3.491 -0.3637 -0.2400  0.3218
 8746TIP3    H147653   3.271   3.342   3.549 -0.6773 -0.5802  0.0360
 8746TIP3    H247654   3.307   3.334   3.403 -0.0355 -0.2965  0.1768
 8747TIP3   OH247655   6.604   6.232  16.022 -0.2081 -0.7599 -0.2627
 8747TIP3    H147656   6.566   6.230  15.934  1.1872 -1.1687 -0.8656
 8747TIP3    H247657   6.551   6.297  16.069 -0.1431  0.4318 -1.7799
 8748TIP3   OH247658   0.775   4.103  11.691 -0.2373  0.1469  0.0999
 8748TIP3    H147659   0.710   4.063  11.749  0.0108 -0.8246 -0.2789
 8748TIP3    H247660   0.857   4.095  11.738 -0.1406 -0.0585 -0.1018
 8749TIP3   OH247661   2.783   6.564   3.602  0.0710 -0.3630 -0.7534
 8749TIP3    H147662   2.771   6.654   3.633 -0.9189 -0.0115 -2.0694
 8749TIP3    H247663   2.697   6.540   3.566  0.4719 -1.6520 -0.8630
 8750TIP3   OH247664   5.068   1.907  13.031  0.1545 -0.2091 -0.0601
 8750TIP3    H147665   5.144   1.952  13.067  0.1520 -0.0035 -0.3116
 8750TIP3    H247666   5.069   1.929  12.938 -0.2402 -0.1650 -0.0552
 8751TIP3   OH247667   1.372   2.092   0.980  0.2994  0.0265 -0.0604
 8751TIP3    H147668   1.363   2.146   1.058  0.1901  0.4045 -0.3304
 8751TIP3    H247669   1.282   2.071   0.955  0.2197  1.8475 -1.4126
 8752TIP3   OH247670   1.216   3.588   3.557 -0.4923 -0.7195 -0.1126
 8752TIP3    H147671   1.286   3.589   3.492 -0.8722  0.8509 -0.5095
 8752TIP3    H247672   1.141   3.625   3.513 -1.2085 -1.1236  0.7434
 8753TIP3   OH247673   0.873   1.584   5.092 -0.3385  0.6741 -0.6089
 8753TIP3    H147674   0.947   1.631   5.053 -0.4802  1.4021 -0.0151
 8753TIP3    H247675   0.854   1.513   5.030  1.4690 -0.1050 -0.2971
 8754TIP3   OH247676   5.725   0.119  10.586 -0.0249 -0.1287  0.2449
 8754TIP3    H147677   5.744   0.035  10.543 -0.6297  0.2393 -0.7651
 8754TIP3    H247678   5.800   0.174  10.564 -0.4437  0.1338 -0.5660
 8755TIP3   OH247679   6.571   3.923  11.830 -0.4814  0.3901 -0.0389
 8755TIP3    H147680   6.581   3.855  11.763  0.4694  1.1259 -0.6503
 8755TIP3    H247681   6.584   3.876  11.913  0.8773 -0.0570 -0.4848
 8756TIP3   OH247682   1.491   1.031  13.415  0.2474  0.3799 -0.2889
 8756TIP3    H147683   1.519   0.944  13.385  0.9898  0.2842  0.6050
 8756TIP3    H247684   1.542   1.092  13.362 -1.1335  0.2947 -1.7197
 8757TIP3   OH247685   4.441   6.664  15.156  0.7646 -0.6656 -0.1627
 8757TIP3    H147686   4.393   6.587  15.185  0.3921 -1.1339 -1.9903
 8757TIP3    H247687   4.527   6.656  15.198 -0.1959 -0.6181  1.8785
 8758TIP3   OH247688   3.668   1.052  15.581 -0.2107 -0.0976  0.3577
 8758TIP3    H147689   3.593   1.086  15.629  1.2175  1.4363  1.5552
 8758TIP3    H247690   3.665   0.957  15.595 -0.6878  0.1717  2.1794
 8759TIP3   OH247691   4.259   6.137   0.623 -0.2622  0.2518  0.2361
 8759TIP3    H147692   4.253   6.232   0.618  0.6393  0.2342 -1.6575
 8759TIP3    H247693   4.334   6.120   0.680 -1.0697  0.6596  1.4272
 8760TIP3   OH247694   0.874   2.704  15.577  0.2049 -0.3212  0.7049
 8760TIP3    H147695   0.881   2.712  15.482 -0.0670  2.2076  0.8637
 8760TIP3    H247696   0.961   2.675  15.605  0.9018  0.9650 -0.1116
 8761TIP3   OH247697   5.427   1.689  13.526  0.2758  0.1048 -0.2731
 8761TIP3    H147698   5.358   1.707  13.590 -0.2643 -0.2537 -0.7521
 8761TIP3    H247699   5.386   1.632  13.461 -0.5453  4.0885 -3.4116
 8762TIP3   OH247700   0.397   0.554   5.811 -0.1024 -0.6068  0.1194
 8762TIP3    H147701   0.399   0.603   5.729  0.4829 -1.0347 -0.1271
 8762TIP3    H247702   0.487   0.555   5.841 -0.4401  0.1592  1.1295
 8763TIP3   OH247703   2.235   1.864  16.436 -0.0771 -0.3086 -0.6707
 8763TIP3    H147704   2.185   1.790  16.470  0.7734 -0.2414  0.8027
 8763TIP3    H247705   2.311   1.825  16.392  2.3825 -0.3375  3.3110
 8764TIP3   OH247706   4.434   3.372   2.843 -0.2221 -0.0926 -0.1451
 8764TIP3    H147707   4.499   3.387   2.913  1.7517 -0.8937 -1.7410
 8764TIP3    H247708   4.371   3.443   2.854  1.4125  1.2627  0.9265
 8765TIP3   OH247709   3.382   6.276  12.278  0.2402 -0.7591 -0.5025
 8765TIP3    H147710   3.318   6.220  12.236  0.6713 -3.3040  2.0155
 8765TIP3    H247711   3.333   6.323  12.346  0.4246 -0.2761 -0.7003
 8766TIP3   OH247712   6.231   3.364  15.797  0.4460 -0.2838 -0.0524
 8766TIP3    H147713   6.150   3.348  15.749  0.3445 -2.1893  0.7231
 8766TIP3    H247714   6.264   3.446  15.761 -2.0100  0.7300 -0.1148
 8767TIP3   OH247715   3.497   4.375   0.506 -0.5967 -0.0490 -0.5385
 8767TIP3    H147716   3.537   4.419   0.431 -0.7717 -2.8733 -2.3790
 8767TIP3    H247717   3.404   4.374   0.486 -0.8254  0.4828  0.4571
 8768TIP3   OH247718   1.709   1.971  11.507 -1.0425 -0.0733 -0.4755
 8768TIP3    H147719   1.737   1.984  11.417 -0.9925 -0.8137 -0.5705
 8768TIP3    H247720   1.782   2.003  11.561 -0.5910 -0.7067 -0.7076
 8769TIP3   OH247721   2.592   3.350  12.780  0.2232  0.0847 -0.0867
 8769TIP3    H147722   2.545   3.286  12.728  1.4721 -1.6287  0.8129
 8769TIP3    H247723   2.614   3.303  12.861  1.8965  1.3666  0.2379
 8770TIP3   OH247724   1.836   6.450   1.870 -0.8760 -0.5083 -0.5536
 8770TIP3    H147725   1.748   6.474   1.840 -0.0977  0.5264 -2.1000
 8770TIP3    H247726   1.890   6.453   1.791  0.4821 -1.4913  0.3172
 8771TIP3   OH247727   4.709   4.436  14.885 -0.0865 -0.0343  0.2541
 8771TIP3    H147728   4.650   4.466  14.815 -0.8546 -0.0995  0.8649
 8771TIP3    H247729   4.679   4.348  14.906  0.7456 -0.3786  0.0218
 8772TIP3   OH247730   2.546   3.989   5.223  0.1439 -0.1841 -0.0947
 8772TIP3    H147731   2.605   3.915   5.238 -0.5877 -0.4978  1.3200
 8772TIP3    H247732   2.597   4.066   5.248  0.4803 -0.3182 -0.3654
 8773TIP3   OH247733   0.377   4.117   3.605  0.7972  0.4198  0.5352
 8773TIP3    H147734   0.460   4.101   3.559 -0.7261 -1.4045 -1.6690
 8773TIP3    H247735   0.316   4.146   3.537 -0.4603  1.5626  2.0995
 8774TIP3   OH247736   6.024   0.605   0.925 -0.4629 -1.2456 -0.3917
 8774TIP3    H147737   5.978   0.565   0.998  0.0083  0.6042  0.9495
 8774TIP3    H247738   5.956   0.653   0.877 -0.3232 -0.2921  0.3533
 8775TIP3   OH247739   4.150   0.808   4.408  0.0206  0.3516  0.3843
 8775TIP3    H147740   4.086   0.753   4.453 -0.6927  0.5810 -0.3440
 8775TIP3    H247741   4.124   0.898   4.428  0.4337  0.4433  0.5250
 8776TIP3   OH247742   5.764   2.097   2.179  0.4141  0.3710  0.0396
 8776TIP3    H147743   5.841   2.047   2.153  0.0906 -0.4417  0.6026
 8776TIP3    H247744   5.740   2.147   2.101  0.0785 -1.2108 -0.8858
 8777TIP3   OH247745   0.923   4.966   4.750  0.3152  0.2244 -0.2436
 8777TIP3    H147746   0.954   5.007   4.831 -0.0894  0.8109 -0.3820
 8777TIP3    H247747   0.993   4.981   4.687  0.5088  0.0126 -0.0800
 8778TIP3   OH247748   3.249   6.574   0.984 -0.3575  0.2672  0.7008
 8778TIP3    H147749   3.324   6.611   0.937 -0.2265  0.5458  1.1247
 8778TIP3    H247750   3.185   6.645   0.988 -0.2013  0.3824  1.3017
 8779TIP3   OH247751   2.319   0.914   4.497  0.0140 -0.1121  0.8812
 8779TIP3    H147752   2.251   0.913   4.564 -0.4910 -0.6312  0.3651
 8779TIP3    H247753   2.271   0.915   4.414  0.6364 -0.5314  0.5109
 8780TIP3   OH247754   0.178   3.060   6.351 -0.8654  0.2309  0.5921
 8780TIP3    H147755   0.253   3.023   6.304 -2.4307 -1.4571 -0.6517
 8780TIP3    H247756   0.148   2.988   6.407 -1.4076  0.9805  1.2708
 8781TIP3   OH247757   3.357   5.743   4.326  0.1471 -0.9573  0.2331
 8781TIP3    H147758   3.400   5.683   4.266 -0.0083 -0.2736 -0.5680
 8781TIP3    H247759   3.345   5.692   4.407  0.1251 -1.9509 -0.3891
 8782TIP3   OH247760   5.405   3.430  15.527  0.1527  0.3570 -0.3630
 8782TIP3    H147761   5.411   3.514  15.573  0.7647 -0.8039  1.7364
 8782TIP3    H247762   5.317   3.398  15.547  0.6904 -0.5118  0.6795
 8783TIP3   OH247763   6.264   5.861   1.732  0.0118  0.3411 -0.1302
 8783TIP3    H147764   6.324   5.918   1.780  0.5353  0.3091 -0.7479
 8783TIP3    H247765   6.178   5.878   1.772  0.6778 -0.8609  1.9212
 8784TIP3   OH247766   4.294   5.821   0.340  0.1053  0.2385 -0.5745
 8784TIP3    H147767   4.367   5.883   0.333 -0.2436  1.0086  2.2515
 8784TIP3    H247768   4.239   5.856   0.410 -1.2987 -2.0734 -0.4820
 8785TIP3   OH247769   4.645   5.126  13.488 -0.1676 -0.3248  0.0275
 8785TIP3    H147770   4.571   5.186  13.486  1.0495  1.3619  2.5424
 8785TIP3    H247771   4.659   5.108  13.581  1.3909 -2.1215 -0.5251
 8786TIP3   OH247772   6.509   1.012  15.953 -0.6653 -0.1901  0.0456
 8786TIP3    H147773   6.594   1.027  15.911 -0.1981 -0.1236  1.0128
 8786TIP3    H247774   6.445   1.025  15.883  0.1139 -0.1321 -0.6610
 8787TIP3   OH247775   0.819   3.868  11.531  0.6717  0.5136  0.6597
 8787TIP3    H147776   0.906   3.833  11.511 -0.4075 -1.6666 -0.3578
 8787TIP3    H247777   0.837   3.945  11.585  3.1334 -1.8336  3.3639
 8788TIP3   OH247778   3.500   4.137   3.273  0.2798 -0.0326 -0.3270
 8788TIP3    H147779   3.525   4.193   3.346  2.0477 -1.0632 -0.1152
 8788TIP3    H247780   3.497   4.196   3.198  2.3447  0.3367 -0.1506
 8789TIP3   OH247781   3.871   1.040   3.129  0.2387 -0.0911 -0.1104
 8789TIP3    H147782   3.858   1.079   3.042 -1.9697  0.7845  0.5732
 8789TIP3    H247783   3.841   0.950   3.119  1.8530 -0.5575 -0.7572
 8790TIP3   OH247784   2.046   5.761  10.539 -0.0080 -0.7829 -0.5334
 8790TIP3    H147785   2.037   5.828  10.607  1.6245 -0.2559 -0.7971
 8790TIP3    H247786   2.012   5.802  10.460 -0.0512 -0.6722 -0.4567
 8791TIP3   OH247787   4.667   2.307  14.633 -0.7356  0.0151 -0.2376
 8791TIP3    H147788   4.592   2.317  14.692  0.8333  0.9940  1.6288
 8791TIP3    H247789   4.636   2.342  14.549 -2.1601  1.0041  0.6754
 8792TIP3   OH247790   1.112   2.756  16.270 -0.4665 -0.3530 -0.2760
 8792TIP3    H147791   1.162   2.678  16.291  0.9017  0.6913  0.4616
 8792TIP3    H247792   1.063   2.776  16.350 -0.2617 -0.0503 -0.2242
 8793TIP3   OH247793   2.411   1.888  13.460  0.0630 -0.0140 -0.0747
 8793TIP3    H147794   2.347   1.832  13.504 -2.0634  1.2427 -1.5378
 8793TIP3    H247795   2.367   1.920  13.382  2.5042  0.8324 -1.1695
 8794TIP3   OH247796   2.210   0.672   5.336  0.4890  0.3700  0.1631
 8794TIP3    H147797   2.199   0.589   5.290 -1.5311  0.1052  1.0715
 8794TIP3    H247798   2.136   0.676   5.397  0.4209  2.9485 -0.0285
 8795TIP3   OH247799   3.591   5.317   5.479 -0.5907 -0.2468 -0.5168
 8795TIP3    H147800   3.529   5.369   5.531 -0.0748  1.1716 -1.3063
 8795TIP3    H247801   3.572   5.340   5.388  1.0342  0.1614 -0.7703
 8796TIP3   OH247802   2.893   0.672   1.077 -0.1549  0.3554 -0.7364
 8796TIP3    H147803   2.936   0.751   1.109 -0.6882  0.6841 -0.8343
 8796TIP3    H247804   2.800   0.691   1.082 -0.2890 -0.2887 -0.7028
 8797TIP3   OH247805   1.891   0.319   2.242 -0.3432  0.1615  0.6495
 8797TIP3    H147806   1.909   0.407   2.210 -1.5057  0.3652  0.5402
 8797TIP3    H247807   1.977   0.284   2.267  0.5049  0.2580 -1.9894
 8798TIP3   OH247808   3.356   0.920   2.831  0.3891  0.6079 -0.0137
 8798TIP3    H147809   3.340   0.836   2.788 -1.9957  1.4002 -0.7172
 8798TIP3    H247810   3.321   0.909   2.920 -2.2087  1.6432 -0.8824
 8799TIP3   OH247811   1.815   4.164   3.658  0.5852  0.0402  0.2778
 8799TIP3    H147812   1.789   4.228   3.725 -0.2595 -0.8713  0.8244
 8799TIP3    H247813   1.911   4.172   3.654  0.6284  0.2248  1.4730
 8800TIP3   OH247814   1.169   0.618  14.821  0.6003 -0.3453  0.5648
 8800TIP3    H147815   1.224   0.625  14.899  1.5978 -0.7289 -0.0932
 8800TIP3    H247816   1.117   0.539  14.835  2.2247 -1.5299 -0.0590
 8801TIP3   OH247817   4.338   1.280  16.986 -0.0002 -0.4444 -0.0646
 8801TIP3    H147818   4.427   1.252  16.964  0.1230 -0.3077  0.2433
 8801TIP3    H247819   4.338   1.375  16.972  1.3542  0.3627  4.5170
 8802TIP3   OH247820   4.898   0.959   2.844  0.5735 -0.4511 -0.4714
 8802TIP3    H147821   4.939   0.873   2.836  1.4477 -0.0322 -0.5949
 8802TIP3    H247822   4.869   0.963   2.935  1.8540 -0.3076 -0.0538
 8803TIP3   OH247823   5.109   0.352  12.405  0.4258  0.1354  0.0922
 8803TIP3    H147824   5.198   0.374  12.433  0.0516  1.7906  0.0611
 8803TIP3    H247825   5.052   0.408  12.459 -0.4908  0.5909 -1.3032
 8804TIP3   OH247826   3.529   2.385   2.482  0.9779  0.2646  0.2133
 8804TIP3    H147827   3.521   2.480   2.480 -0.3729  0.1378 -1.1834
 8804TIP3    H247828   3.570   2.363   2.398 -0.1056 -0.5003 -0.1146
 8805TIP3   OH247829   6.623   4.325   0.232 -0.7021 -0.3836 -0.3881
 8805TIP3    H147830   6.578   4.406   0.255 -0.5019  0.0644 -1.5577
 8805TIP3    H247831   6.590   4.302   0.145  0.8841 -0.3450 -1.0306
 8806TIP3   OH247832   6.324   2.689  10.839 -0.3918 -0.3750  0.2674
 8806TIP3    H147833   6.236   2.652  10.833 -0.2228 -0.5340 -1.4229
 8806TIP3    H247834   6.366   2.665  10.756  0.3481  1.9901 -0.0862
 8807TIP3   OH247835   1.140   3.071  10.445 -0.3139  0.1875 -0.7629
 8807TIP3    H147836   1.198   3.130  10.492  0.1511 -0.7952 -0.0796
 8807TIP3    H247837   1.198   3.010  10.400 -0.7856 -0.5721 -0.3763
 8808TIP3   OH247838   3.525   2.408  14.801 -0.6951  0.1315 -0.0309
 8808TIP3    H147839   3.465   2.368  14.864  2.4003 -2.8593  1.0988
 8808TIP3    H247840   3.560   2.485  14.846  0.8176 -1.4867  1.5857
 8809TIP3   OH247841   6.481   6.760   4.959 -0.1141  0.5223  0.6012
 8809TIP3    H147842   6.499   6.804   4.876  0.6583  1.6493  1.3647
 8809TIP3    H247843   6.563   6.719   4.984 -1.0569 -2.2401 -0.5847
 8810TIP3   OH247844   4.560   6.762  11.190 -0.1212 -0.7164  0.0057
 8810TIP3    H147845   4.639   6.799  11.152  0.3362 -1.1325  0.5465
 8810TIP3    H247846   4.504   6.742  11.114 -0.0608  0.3674 -0.3223
 8811TIP3   OH247847   4.795   4.007  15.395 -0.1687  0.2782 -0.1618
 8811TIP3    H147848   4.708   3.997  15.356 -1.6177  0.2433  2.9194
 8811TIP3    H247849   4.837   3.923  15.380  0.0404  0.8701 -3.2156
 8812TIP3   OH247850   0.007   6.730  14.228 -0.1892 -0.3936 -0.0472
 8812TIP3    H147851  -0.067   6.791  14.228 -0.0411 -0.2010  1.4762
 8812TIP3    H247852   0.030   6.720  14.136 -0.7195  1.2415 -0.3655
 8813TIP3   OH247853   4.291   2.292  16.801 -0.4158 -0.5304  0.4092
 8813TIP3    H147854   4.329   2.265  16.885 -1.6400 -0.7016  0.9126
 8813TIP3    H247855   4.364   2.334  16.755 -0.0363  0.6874  2.0531
 8814TIP3   OH247856   5.063   4.166   6.147 -0.5909 -0.4347  0.4084
 8814TIP3    H147857   5.053   4.260   6.135 -1.0863 -0.5603 -0.1924
 8814TIP3    H247858   4.974   4.133   6.161 -0.8069 -1.2091 -2.4139
 8815TIP3   OH247859   5.789   1.468   0.678 -0.4809 -0.3969 -0.4756
 8815TIP3    H147860   5.753   1.543   0.632  1.9397  0.8440 -0.4189
 8815TIP3    H247861   5.884   1.478   0.671 -0.1003 -2.8152  0.5507
 8816TIP3   OH247862   1.729   0.657  15.962 -0.4557 -0.5777 -0.4007
 8816TIP3    H147863   1.671   0.662  16.037 -0.8280  0.5665 -0.7594
 8816TIP3    H247864   1.725   0.744  15.922 -0.4769 -1.2459 -1.8892
 8817TIP3   OH247865   4.663   0.247   5.066 -0.4043  0.0744  0.0288
 8817TIP3    H147866   4.719   0.183   5.109  0.8378  1.3821  0.3667
 8817TIP3    H247867   4.589   0.257   5.126  0.6616  0.8856  1.2225
 8818TIP3   OH247868   4.066   5.441  12.401  0.3500 -0.2578 -0.4358
 8818TIP3    H147869   4.049   5.511  12.464  1.0551 -0.2670 -0.2309
 8818TIP3    H247870   4.160   5.446  12.384  0.2537 -0.6014 -1.0761
 8819TIP3   OH247871   0.654   2.933  17.005  0.4763 -0.5391 -0.0945
 8819TIP3    H147872   0.707   3.012  17.011  1.4130 -1.0779 -1.0022
 8819TIP3    H247873   0.624   2.916  17.094  1.6213 -0.0783  0.3789
 8820TIP3   OH247874   4.473   1.178  12.943  0.0159 -0.0184  0.7592
 8820TIP3    H147875   4.486   1.258  12.893 -2.4952  0.2056  0.3987
 8820TIP3    H247876   4.447   1.113  12.877  1.5354 -1.0043  1.1144
 8821TIP3   OH247877   5.202   6.515  15.006 -0.0876  0.1721 -0.1891
 8821TIP3    H147878   5.277   6.469  14.967 -0.0608 -0.6442  0.8192
 8821TIP3    H247879   5.182   6.584  14.943  0.4814 -0.6184 -1.2564
 8822TIP3   OH247880   1.376   5.806   1.039  0.2512  0.1767 -0.3079
 8822TIP3    H147881   1.401   5.868   0.971 -1.1211 -0.8732 -1.7929
 8822TIP3    H247882   1.281   5.798   1.031  0.0507  0.1005  1.7910
 8823TIP3   OH247883   3.305   0.100  11.181 -0.4412 -0.4544  0.3231
 8823TIP3    H147884   3.242   0.053  11.236  0.6266 -0.8765  1.1965
 8823TIP3    H247885   3.302   0.054  11.098 -2.9781  0.9400 -0.4241
 8824TIP3   OH247886   6.235   0.235   2.112  0.5734 -0.1105  0.1937
 8824TIP3    H147887   6.308   0.295   2.100  0.1547  0.1520 -1.1734
 8824TIP3    H247888   6.205   0.215   2.023  0.7144 -2.3573  0.6088
 8825TIP3   OH247889   0.110   2.585   0.020 -0.6108 -0.2254  0.1176
 8825TIP3    H147890   0.153   2.653  -0.032 -0.4935  0.2192  0.7793
 8825TIP3    H247891   0.041   2.551  -0.037  0.4839 -0.7946 -0.8715
 8826TIP3   OH247892   0.088   2.181  16.424 -0.2564  0.5844  0.1596
 8826TIP3    H147893   0.013   2.205  16.479 -1.0313  1.0711 -1.0844
 8826TIP3    H247894   0.072   2.226  16.341 -1.3746 -3.6316 -2.0306
 8827TIP3   OH247895   1.289   6.162  16.188 -0.0147 -0.2031  0.5520
 8827TIP3    H147896   1.296   6.209  16.104 -0.6164 -2.4853 -0.8150
 8827TIP3    H247897   1.202   6.123  16.186 -0.8871  1.4406  3.2246
 8828TIP3   OH247898   2.036   3.638  11.100  0.1754  0.2580 -0.4899
 8828TIP3    H147899   2.055   3.546  11.116  1.6444  0.5765 -0.3440
 8828TIP3    H247900   2.006   3.672  11.184  1.2794  0.3114 -0.1127
 8829TIP3   OH247901   3.265   6.011  15.800  0.5053 -0.4919  0.1192
 8829TIP3    H147902   3.202   5.994  15.870 -0.4558 -1.7425 -1.0196
 8829TIP3    H247903   3.244   6.098  15.768  0.0722 -0.4651  0.4759
 8830TIP3   OH247904   6.685   2.451  13.318  0.4511  0.2648 -0.1091
 8830TIP3    H147905   6.751   2.520  13.319  0.5627  0.1850 -1.6874
 8830TIP3    H247906   6.735   2.371  13.299 -0.0293  0.1265 -0.7926
 8831TIP3   OH247907   2.916   3.500  13.755 -0.3996 -0.0816  0.1663
 8831TIP3    H147908   2.864   3.541  13.824 -0.2240  1.6042 -0.6694
 8831TIP3    H247909   2.962   3.428  13.798 -1.9247 -0.3726  1.3322
 8832TIP3   OH247910   0.793   6.444  12.723  0.4253 -0.2041  0.4806
 8832TIP3    H147911   0.706   6.409  12.742 -0.2391  1.3832  0.4099
 8832TIP3    H247912   0.853   6.375  12.751 -0.8860 -1.8511 -0.6534
 8833TIP3   OH247913   4.923   5.831   5.084  0.3492  0.2080 -0.6051
 8833TIP3    H147914   4.994   5.800   5.140 -0.8243 -1.4102  0.0315
 8833TIP3    H247915   4.964   5.896   5.027  1.9578  0.5650  0.9109
 8834TIP3   OH247916   6.616   5.475  14.788 -0.8217 -0.2490  0.1365
 8834TIP3    H147917   6.632   5.384  14.763  2.3414  0.2867  0.0355
 8834TIP3    H247918   6.562   5.469  14.867 -1.2003 -2.1918 -0.2505
 8835TIP3   OH247919   4.311   0.468   0.252 -0.3620  0.9387 -0.1748
 8835TIP3    H147920   4.216   0.465   0.237 -0.4228  2.8466 -0.2132
 8835TIP3    H247921   4.348   0.417   0.180 -1.1922  2.5583 -1.7783
 8836TIP3   OH247922   4.267   4.759  14.033 -0.2400  0.9248  0.1431
 8836TIP3    H147923   4.278   4.675  13.988 -0.2068  1.5790 -1.0995
 8836TIP3    H247924   4.353   4.800  14.030 -0.6054  1.6503 -0.5766
 8837TIP3   OH247925   4.080   6.655   5.317  0.4341 -0.5017 -0.2715
 8837TIP3    H147926   4.061   6.640   5.224 -0.1138 -0.1938 -0.2110
 8837TIP3    H247927   4.052   6.574   5.360 -1.8156  0.3369 -0.0436
 8838TIP3   OH247928   4.649   3.986  16.756  0.0171  0.0572  0.6414
 8838TIP3    H147929   4.722   3.931  16.726 -0.3409 -0.8700  1.4480
 8838TIP3    H247930   4.579   3.968  16.693  1.1242  2.5183 -1.3652
 8839TIP3   OH247931   2.429   2.793  16.474  0.4893  0.1311 -0.1022
 8839TIP3    H147932   2.339   2.807  16.505  0.0220 -0.1061 -1.3234
 8839TIP3    H247933   2.454   2.708  16.511  0.2721  0.2790  0.3873
 8840TIP3   OH247934   5.460   5.977  12.303  0.2985 -0.1374 -0.3960
 8840TIP3    H147935   5.369   5.950  12.295 -0.3315  1.5232  0.9308
 8840TIP3    H247936   5.500   5.913  12.362 -0.4238  0.1280  0.3734
 8841TIP3   OH247937   4.544   1.090  10.891 -0.4273 -0.0762 -0.5078
 8841TIP3    H147938   4.616   1.147  10.863  0.0818 -0.7795 -0.6456
 8841TIP3    H247939   4.466   1.132  10.856  0.0148  0.1360 -1.2704
 8842TIP3   OH247940   5.045   4.996  15.875  0.1557 -0.0842  0.0035
 8842TIP3    H147941   4.963   5.045  15.873  0.8184  1.0772  0.5450
 8842TIP3    H247942   5.047   4.948  15.792  0.0812  1.8050 -1.1279
 8843TIP3   OH247943   5.546   6.208  11.721 -0.6039  0.5603 -0.3120
 8843TIP3    H147944   5.487   6.259  11.776 -1.4192 -1.0514  0.3510
 8843TIP3    H247945   5.628   6.206  11.770 -1.2664 -0.6930  0.7686
 8844TIP3   OH247946   1.505   5.096  14.280 -0.6482  0.0298 -0.4519
 8844TIP3    H147947   1.466   5.012  14.304 -0.7947  0.3756  0.5517
 8844TIP3    H247948   1.453   5.125  14.205  1.8798 -2.5847 -3.3922
 8845TIP3   OH247949   2.646   5.754  13.890  0.8189 -0.3013 -0.2725
 8845TIP3    H147950   2.678   5.699  13.819 -0.4594  0.1099 -1.1878
 8845TIP3    H247951   2.698   5.834  13.885 -1.1509  0.9093 -2.5878
 8846TIP3   OH247952   0.373   3.951   2.492 -0.4823  0.3603  0.1597
 8846TIP3    H147953   0.404   4.036   2.525  2.4411  0.0180 -1.4925
 8846TIP3    H247954   0.306   3.973   2.428  0.2367  1.4221 -0.2390
 8847TIP3   OH247955   2.327   4.619  12.724 -0.5996 -0.5428  0.4724
 8847TIP3    H147956   2.319   4.698  12.777  2.6932 -0.6970  1.2786
 8847TIP3    H247957   2.366   4.650  12.642 -0.8857 -1.0964  0.1268
 8848TIP3   OH247958   4.185   0.900   1.864  0.0289  0.4265 -0.5358
 8848TIP3    H147959   4.272   0.886   1.827 -0.0238 -1.8257  0.1070
 8848TIP3    H247960   4.125   0.856   1.802 -0.4495  0.2770  0.0237
 8849TIP3   OH247961   3.195   4.284  10.835  0.3798  0.0076  0.1344
 8849TIP3    H147962   3.186   4.265  10.742 -1.3018 -0.3956  0.3560
 8849TIP3    H247963   3.153   4.370  10.846 -2.9573 -1.6486  1.1148
 8850TIP3   OH247964   3.350   1.161  13.254 -0.0901 -0.8140  0.4017
 8850TIP3    H147965   3.307   1.209  13.324 -0.3801 -0.4295 -0.0402
 8850TIP3    H247966   3.431   1.209  13.238 -1.2587  0.6318 -1.3263
 8851TIP3   OH247967   6.202   0.301  14.129 -0.2578 -0.6039  0.2351
 8851TIP3    H147968   6.204   0.294  14.225  0.1755 -1.2286  0.1850
 8851TIP3    H247969   6.294   0.307  14.104 -0.3862 -0.0816 -0.1226
 8852TIP3   OH247970   4.628   5.870  16.352  0.0013 -0.0130  0.2404
 8852TIP3    H147971   4.654   5.827  16.434  1.7437  0.7441  0.1022
 8852TIP3    H247972   4.708   5.913  16.321 -1.6754  3.3186  0.3385
 8853TIP3   OH247973   1.204   5.949  13.101 -0.1422 -0.1663 -0.3527
 8853TIP3    H147974   1.173   5.860  13.118  2.3852 -0.9311  0.4357
 8853TIP3    H247975   1.212   5.989  13.188  1.3948 -0.1225 -0.4915
 8854TIP3   OH247976   4.961   4.589  13.850 -0.0804 -0.4389  0.0166
 8854TIP3    H147977   5.031   4.542  13.896 -1.4287 -0.0069  2.6092
 8854TIP3    H247978   4.893   4.524  13.837 -0.6692  0.0005  0.8042
 8855TIP3   OH247979   1.457   2.633   4.394 -0.1096 -0.3164 -1.1449
 8855TIP3    H147980   1.497   2.603   4.313  0.5240  1.2772 -1.4371
 8855TIP3    H247981   1.478   2.565   4.458  2.4871  0.1298 -1.4590
 8856TIP3   OH247982   5.316   5.128   1.359  0.6763  0.1518  0.8829
 8856TIP3    H147983   5.335   5.034   1.359  0.6923  0.1195  3.4502
 8856TIP3    H247984   5.372   5.164   1.290  2.0690 -1.4691  1.1371
 8857TIP3   OH247985   2.240   6.739  15.707  0.0197 -0.0840 -0.1410
 8857TIP3    H147986   2.199   6.823  15.690 -0.1519 -0.3103 -0.8679
 8857TIP3    H247987   2.334   6.755  15.698  0.3254  0.9501  3.7081
 8858TIP3   OH247988   6.752   5.916   3.838 -0.0163  0.2089  0.3185
 8858TIP3    H147989   6.708   5.859   3.902 -0.9766 -0.6801 -1.1052
 8858TIP3    H247990   6.845   5.900   3.853 -0.2039  0.4936  1.9222
 8859TIP3   OH247991   1.586   1.402   4.463 -0.0451 -0.1407 -0.1412
 8859TIP3    H147992   1.678   1.427   4.465  0.5213 -2.2021  0.3144
 8859TIP3    H247993   1.557   1.425   4.374  1.1442 -0.3126 -0.5807
 8860TIP3   OH247994   4.078   4.030   3.671 -0.0646 -0.2362 -0.1774
 8860TIP3    H147995   4.120   3.994   3.593  0.2636 -0.1317 -0.0524
 8860TIP3    H247996   4.017   4.095   3.637  2.9687  2.7835 -0.2055
 8861TIP3   OH247997   4.405   0.112  15.560  0.2234 -0.6975  0.7977
 8861TIP3    H147998   4.361   0.091  15.477  1.3753 -1.1657  0.2927
 8861TIP3    H247999   4.432   0.203  15.550  1.6481 -1.1870  0.0597
 8862TIP3   OH248000   5.892   2.348  14.183 -0.2034 -0.4560  0.2692
 8862TIP3    H148001   5.945   2.391  14.250 -0.4166 -0.1931  0.2665
 8862TIP3    H248002   5.930   2.378  14.100 -0.6952  0.1540  0.2616
 8863TIP3   OH248003   3.389   5.232  13.414  0.2774  0.2978 -0.4262
 8863TIP3    H148004   3.373   5.327  13.418 -1.2223  0.0700 -0.5650
 8863TIP3    H248005   3.394   5.204  13.506 -0.7140  0.3015 -0.3609
 8864TIP3   OH248006   3.267   5.635   3.149  0.3826  0.1371  0.4313
 8864TIP3    H148007   3.351   5.679   3.164  0.2689  0.5467 -0.1408
 8864TIP3    H248008   3.262   5.624   3.054 -0.6374  0.9602  0.3835
 8865TIP3   OH248009   0.391   2.959  12.417 -0.5032  0.4349  0.4397
 8865TIP3    H148010   0.487   2.957  12.415 -0.5559 -1.1412 -0.9064
 8865TIP3    H248011   0.370   3.051  12.432  1.2104  0.9697 -0.3149
 8866TIP3   OH248012   0.511   0.841   2.658  0.1262  0.3055  0.2094
 8866TIP3    H148013   0.551   0.793   2.731  1.0136  1.1479  0.2832
 8866TIP3    H248014   0.491   0.928   2.695  1.1111  0.9330 -0.7050
 8867TIP3   OH248015   6.104   6.681  14.034  0.0592  0.2982  0.5052
 8867TIP3    H148016   6.056   6.618  14.088  0.5176  0.7766  1.4926
 8867TIP3    H248017   6.036   6.734  13.992 -0.3319 -1.0737 -0.5989
 8868TIP3   OH248018   5.790   4.867  12.846 -0.5455 -0.2845  0.1640
 8868TIP3    H148019   5.714   4.888  12.792 -0.3384 -0.4737 -0.2014
 8868TIP3    H248020   5.789   4.932  12.916 -0.3419  0.4790 -0.5347
 8869TIP3   OH248021   6.472   1.701  11.939  0.3750 -0.1057  0.9023
 8869TIP3    H148022   6.519   1.774  11.978 -0.7932  0.0423  2.0535
 8869TIP3    H248023   6.383   1.733  11.927  0.1744 -0.8997  0.1864
 8870TIP3   OH248024   3.123   2.556   3.301  0.1514 -0.0076 -0.0347
 8870TIP3    H148025   3.217   2.574   3.300  0.2463 -0.0924  2.4243
 8870TIP3    H248026   3.091   2.606   3.377 -1.7417 -0.1582 -0.7206
 8871TIP3   OH248027   0.071   4.686  13.185 -0.1159 -0.8808 -0.1561
 8871TIP3    H148028   0.120   4.703  13.105  1.5139 -3.4407  0.2258
 8871TIP3    H248029   0.006   4.756  13.189  0.2856 -0.2566 -3.2833
 8872TIP3   OH248030   1.482   0.900   5.719 -0.0909 -0.2388 -0.1257
 8872TIP3    H148031   1.495   0.876   5.627  3.4026  1.2955 -0.1330
 8872TIP3    H248032   1.571   0.905   5.755 -1.3022  0.9216  2.8847
 8873TIP3   OH248033   5.729   3.405   1.837 -0.4684  0.0241 -0.1230
 8873TIP3    H148034   5.726   3.428   1.930  1.4085  1.5976 -0.4109
 8873TIP3    H248035   5.738   3.310   1.837 -2.2509 -0.1725  1.2536
 8874TIP3   OH248036   3.870   6.426  13.366  0.2239  0.6696  0.5986
 8874TIP3    H148037   3.800   6.468  13.315  0.2764 -0.9289 -0.8082
 8874TIP3    H248038   3.832   6.415  13.453 -1.6777 -1.1493 -0.4227
 8875TIP3   OH248039   0.704   1.398   4.146  0.2384 -0.0485  0.7423
 8875TIP3    H148040   0.727   1.317   4.192 -0.8449 -0.8891 -0.1666
 8875TIP3    H248041   0.622   1.426   4.187  1.2587  1.3110  1.9284
 8876TIP3   OH248042   3.126   3.631  14.176  0.0775  0.3038  0.5054
 8876TIP3    H148043   3.091   3.667  14.094  0.5778  2.0661  1.0274
 8876TIP3    H248044   3.076   3.676  14.244  0.9515  0.2444  1.1889
 8877TIP3   OH248045   2.811   4.244   3.525 -0.3945 -0.1064  0.1817
 8877TIP3    H148046   2.734   4.197   3.555 -0.7483  0.7147  0.5743
 8877TIP3    H248047   2.883   4.182   3.536 -0.8001 -0.4343  1.0278
 8878TIP3   OH248048   3.038   2.800  16.352 -0.5634 -0.1644  0.1615
 8878TIP3    H148049   3.065   2.857  16.424 -1.0237  0.2209  0.0299
 8878TIP3    H248050   2.957   2.838  16.319  0.8051  0.9572 -2.0188
 8879TIP3   OH248051   3.549   1.543  16.038  0.3583  0.2185  0.3569
 8879TIP3    H148052   3.588   1.628  16.055  0.5406 -0.1489  1.8176
 8879TIP3    H248053   3.473   1.562  15.983 -0.3276  1.4674  1.6943
 8880TIP3   OH248054   6.003   1.260   1.137  0.9712 -0.2490  0.3106
 8880TIP3    H148055   6.096   1.235   1.139  1.4459  1.1910 -1.6540
 8880TIP3    H248056   5.957   1.179   1.115  1.8817 -0.7214  0.1125
 8881TIP3   OH248057   4.074   4.663   3.964  0.2519 -0.1194  0.3503
 8881TIP3    H148058   4.102   4.655   3.873  0.8025 -0.4360  0.5472
 8881TIP3    H248059   4.054   4.756   3.974  0.7172  0.0143  0.0587
 8882TIP3   OH248060   1.431   1.344  17.057 -0.5761 -0.1423 -0.2340
 8882TIP3    H148061   1.458   1.393  17.134  0.3357 -0.7792 -0.1316
 8882TIP3    H248062   1.344   1.378  17.035 -1.2167 -0.5494  1.5712
 8883TIP3   OH248063   2.935   4.781  16.850 -0.0882  0.7651  0.4613
 8883TIP3    H148064   2.850   4.819  16.872 -0.2426  0.0446  1.0939
 8883TIP3    H248065   2.914   4.707  16.793  0.2088  1.5418 -0.6811
 8884TIP3   OH248066   6.624   6.677   5.762 -0.0562 -0.1427  0.1717
 8884TIP3    H148067   6.701   6.697   5.708  0.0051  0.2849  0.4170
 8884TIP3    H248068   6.624   6.582   5.769  0.6442 -0.1264  0.4471
 8885TIP3   OH248069   0.802   1.015  10.558  0.4545 -0.1744 -0.1367
 8885TIP3    H148070   0.845   0.995  10.641 -2.5247 -0.1504  1.4720
 8885TIP3    H248071   0.815   1.109  10.547  0.5200 -0.1064  0.5097
 8886TIP3   OH248072   3.819   5.390   2.054  0.1499  0.3196  0.2248
 8886TIP3    H148073   3.732   5.410   2.020  0.3308  0.6938 -0.0202
 8886TIP3    H248074   3.817   5.419   2.145  0.5498  1.8730 -0.2456
 8887TIP3   OH248075   3.737   3.884   6.133 -0.3278 -0.5125  0.2050
 8887TIP3    H148076   3.810   3.941   6.157 -0.7666  0.5735 -0.9747
 8887TIP3    H248077   3.719   3.833   6.212  0.8111  0.1727  0.9184
 8888TIP3   OH248078   3.460   0.793   6.153 -0.0577  0.2432 -0.0500
 8888TIP3    H148079   3.375   0.787   6.110 -0.9829  1.2878  1.5865
 8888TIP3    H248080   3.450   0.865   6.215  2.0244  0.3747  0.1671
 8889TIP3   OH248081   3.333   5.633  16.330  0.1094 -1.0293  0.0889
 8889TIP3    H148082   3.356   5.673  16.247 -0.8086  0.0470  0.3399
 8889TIP3    H248083   3.260   5.575  16.310 -0.5282 -0.2886  0.2470
 8890TIP3   OH248084   6.467   3.990  14.217 -0.1662 -0.8362  0.4729
 8890TIP3    H148085   6.414   4.024  14.146 -1.5317 -1.4602  1.1812
 8890TIP3    H248086   6.518   4.066  14.247  0.7343 -0.6789 -1.4213
 8891TIP3   OH248087   4.803   5.457   2.905  0.2804 -0.0806  0.3862
 8891TIP3    H148088   4.883   5.441   2.956 -0.9494  0.2547  2.4696
 8891TIP3    H248089   4.835   5.494   2.823  2.2796  0.2598  1.2694
 8892TIP3   OH248090   5.929   5.444   4.007 -0.3121 -0.1728  0.2839
 8892TIP3    H148091   5.919   5.538   4.019 -1.3756 -0.2646  0.2044
 8892TIP3    H248092   5.966   5.412   4.090  0.3991  0.3586  0.1742
 8893TIP3   OH248093   2.277   2.263   2.883  0.6871 -0.0856 -0.3116
 8893TIP3    H148094   2.342   2.328   2.910  0.5009  0.5825 -1.4618
 8893TIP3    H248095   2.221   2.308   2.820  0.1228 -1.1535 -0.6001
 8894TIP3   OH248096   5.853   4.941   3.152  0.1016 -0.3905  0.0861
 8894TIP3    H148097   5.759   4.936   3.137 -0.1218 -1.0078  1.6602
 8894TIP3    H248098   5.892   4.922   3.066 -1.1960 -0.2588 -0.5384
 8895TIP3   OH248099   5.890   2.130   2.960 -0.7314  0.6287 -0.0201
 8895TIP3    H148100   5.984   2.117   2.963 -0.8408 -0.0744  0.2778
 8895TIP3    H248101   5.878   2.223   2.980 -0.1733  0.4921  0.9526
 8896TIP3   OH248102   4.322   6.547  13.091  0.7700  0.5077 -0.4131
 8896TIP3    H148103   4.373   6.467  13.095 -0.4964 -0.2616  0.6057
 8896TIP3    H248104   4.291   6.552  13.000  0.7116 -0.2433 -0.4349
 8897TIP3   OH248105   5.482   5.547   2.316  0.6471  0.2259  0.4629
 8897TIP3    H148106   5.507   5.627   2.362 -0.5875  2.0743 -1.9791
 8897TIP3    H248107   5.556   5.528   2.259  0.6517  0.0106  0.5412
 8898TIP3   OH248108   6.558   2.546   1.416 -0.2575 -0.1983 -0.5203
 8898TIP3    H148109   6.493   2.490   1.374  0.3461 -0.5337 -1.0285
 8898TIP3    H248110   6.507   2.609   1.466 -0.9912 -0.0758 -1.4031
 8899TIP3   OH248111   5.368   0.224   5.856 -0.2737 -0.4269  0.0591
 8899TIP3    H148112   5.361   0.276   5.936  2.4867  0.3667 -0.1629
 8899TIP3    H248113   5.405   0.141   5.884  2.8678  0.6730 -0.6407
 8900TIP3   OH248114   3.876   1.453   3.064  0.3757  0.5169  0.2454
 8900TIP3    H148115   3.800   1.460   3.122 -0.1248  0.2119 -0.3666
 8900TIP3    H248116   3.881   1.538   3.020 -0.6914 -0.0630 -1.0296
 8901TIP3   OH248117   0.600   1.643   0.584 -0.4636 -0.0470  0.2966
 8901TIP3    H148118   0.518   1.653   0.535 -1.7278  0.5416  2.4644
 8901TIP3    H248119   0.649   1.723   0.566 -0.4361 -0.2948 -0.8146
 8902TIP3   OH248120   4.200   1.978   0.492  0.1038 -0.0643 -0.2445
 8902TIP3    H148121   4.216   1.951   0.582  3.5566 -0.3267 -0.8541
 8902TIP3    H248122   4.200   2.073   0.494  1.4185 -0.0540 -0.1158
 8903TIP3   OH248123   1.879   0.212   4.399  0.5249  0.1006 -0.2345
 8903TIP3    H148124   1.939   0.183   4.329  0.4561  0.6076 -0.5054
 8903TIP3    H248125   1.937   0.234   4.472  0.5306 -1.4723  0.2538
 8904TIP3   OH248126   3.563   3.295  13.222  0.3706 -0.1159  0.4159
 8904TIP3    H148127   3.490   3.357  13.227 -0.6792 -1.1498 -1.4943
 8904TIP3    H248128   3.550   3.235  13.295  1.6835  2.1545  2.6079
 8905TIP3   OH248129   2.701   0.773   5.914  0.0728  0.1507 -0.6026
 8905TIP3    H148130   2.657   0.708   5.968  0.0348 -0.6298 -1.5674
 8905TIP3    H248131   2.790   0.740   5.903  0.7943  1.4782  0.9254
 8906TIP3   OH248132   0.331   1.617   5.650 -0.8382  0.2675 -0.1671
 8906TIP3    H148133   0.356   1.624   5.558  1.1990  0.9707  0.3930
 8906TIP3    H248134   0.335   1.707   5.683 -0.4820 -0.0994  0.8402
 8907TIP3   OH248135   5.752   4.563  14.846  0.1297  0.3632  0.0814
 8907TIP3    H148136   5.771   4.657  14.845 -0.2785  0.4638  0.9284
 8907TIP3    H248137   5.669   4.555  14.799  0.9923  0.2275 -1.4183
 8908TIP3   OH248138   5.817   3.220   2.603 -0.0875 -0.4496  0.9232
 8908TIP3    H148139   5.743   3.184   2.554  0.3374 -0.4838  0.3079
 8908TIP3    H248140   5.790   3.214   2.695 -0.2670 -1.7749  0.7921
 8909TIP3   OH248141   4.650   1.953  11.575 -0.0306 -0.2807  0.0887
 8909TIP3    H148142   4.648   2.020  11.506 -0.8092 -0.8379 -0.4469
 8909TIP3    H248143   4.702   1.882  11.538  1.9682  0.5805  1.1967
 8910TIP3   OH248144   4.789   2.569   1.624  0.0713  0.0464 -0.5423
 8910TIP3    H148145   4.849   2.634   1.589  0.5845 -1.0161 -1.6726
 8910TIP3    H248146   4.795   2.495   1.563 -0.7519 -0.9251  0.5238
 8911TIP3   OH248147   0.915   3.116   4.804 -0.2210  0.2488 -0.3678
 8911TIP3    H148148   0.885   3.028   4.782  1.5752 -1.1073  2.3610
 8911TIP3    H248149   1.004   3.120   4.770  0.4424  0.2510  1.3512
 8912TIP3   OH248150   0.570   0.166   3.826 -0.6578 -0.3917  0.1758
 8912TIP3    H148151   0.560   0.260   3.839 -2.0841 -0.5447  0.1768
 8912TIP3    H248152   0.571   0.155   3.731 -0.0246 -0.3332  0.1720
 8913TIP3   OH248153   6.019   3.310  14.111  0.4432 -0.1691  0.1815
 8913TIP3    H148154   5.953   3.370  14.146  0.3565  0.7702 -1.5377
 8913TIP3    H248155   6.009   3.316  14.016  0.3000 -3.0758 -0.0206
 8914TIP3   OH248156   6.610   2.885   4.765  0.4434 -0.7127 -0.7814
 8914TIP3    H148157   6.582   2.818   4.827  2.4750 -0.0018  0.9567
 8914TIP3    H248158   6.538   2.948   4.764 -1.2285 -2.5614 -1.9879
 8915TIP3   OH248159   3.486   3.910   2.794  0.4689  0.1484 -0.0188
 8915TIP3    H148160   3.566   3.962   2.790  0.1432  0.6467 -0.1438
 8915TIP3    H248161   3.499   3.841   2.729  0.5963  0.5180 -0.3877
 8916TIP3   OH248162   4.390   2.102  13.134  0.2998 -0.2513 -0.1906
 8916TIP3    H148163   4.433   2.055  13.205  1.8633 -2.5126 -2.5179
 8916TIP3    H248164   4.318   2.044  13.108 -0.7584  0.9326  0.0652
 8917TIP3   OH248165   2.882   0.840  12.244  0.2316  0.2592  0.3163
 8917TIP3    H148166   2.887   0.864  12.151 -1.6046 -0.0536  0.1004
 8917TIP3    H248167   2.889   0.923  12.291  1.3889  0.3956 -0.0884
 8918TIP3   OH248168   6.528   5.652  16.579  0.1447  0.5871  0.3042
 8918TIP3    H148169   6.620   5.674  16.593  0.4445 -0.2444 -0.2999
 8918TIP3    H248170   6.515   5.662  16.485 -0.0474 -0.4876  0.2052
 8919TIP3   OH248171   6.043   2.011   3.947  0.6454 -0.0201 -0.4523
 8919TIP3    H148172   6.038   2.050   3.859  0.5660 -1.4941 -1.1265
 8919TIP3    H248173   5.974   1.944   3.947  0.2893  0.3444  0.9304
 8920TIP3   OH248174   2.529   3.915   4.215  0.1517  0.2740  0.5338
 8920TIP3    H148175   2.439   3.948   4.213 -0.2845 -0.9413 -0.2792
 8920TIP3    H248176   2.537   3.861   4.136  2.0840  1.6262 -0.2443
 8921TIP3   OH248177   3.665   1.781   4.646 -0.4468  0.1811  0.1830
 8921TIP3    H148178   3.645   1.833   4.569 -0.8973 -0.0070  0.1722
 8921TIP3    H248179   3.684   1.845   4.714 -3.9980  0.4909  1.0143
 8922TIP3   OH248180   2.885   0.594  16.615 -0.1419  0.2710 -0.0412
 8922TIP3    H148181   2.978   0.572  16.619 -0.5676 -1.9394 -1.5536
 8922TIP3    H248182   2.847   0.551  16.692  0.0363  0.9365  0.4200
 8923TIP3   OH248183   5.994   0.751  13.791  0.3961  0.5708  0.3801
 8923TIP3    H148184   5.900   0.758  13.781  0.4027  0.2947  0.1453
 8923TIP3    H248185   6.014   0.659  13.776  0.8222  0.8066 -0.5616
 8924TIP3   OH248186   6.442   5.553  13.156  0.1467 -0.1908  0.1280
 8924TIP3    H148187   6.351   5.524  13.163  0.7614 -1.8757  1.3860
 8924TIP3    H248188   6.472   5.562  13.246  0.1913  3.8606 -0.1721
 8925TIP3   OH248189   6.385   6.300  15.832  0.0693  0.7277  0.4753
 8925TIP3    H148190   6.301   6.258  15.811  1.3245 -2.9591  2.2486
 8925TIP3    H248191   6.447   6.263  15.769  0.7141  2.0809  0.2981
 8926TIP3   OH248192   0.091   2.398   4.664 -0.0069 -0.1851  0.0314
 8926TIP3    H148193   0.010   2.348   4.655 -0.2298  0.3293 -1.0362
 8926TIP3    H248194   0.160   2.333   4.661 -0.4014 -0.6915  1.6291
 8927TIP3   OH248195   3.189   6.540   3.169  0.2318 -0.1902 -0.3892
 8927TIP3    H148196   3.260   6.476   3.159  1.8834  1.5755 -0.1403
 8927TIP3    H248197   3.218   6.597   3.241 -0.7330  1.4535 -1.2858
 8928TIP3   OH248198   3.619   4.225   1.581  0.1000  0.2839 -0.5665
 8928TIP3    H148199   3.665   4.304   1.553 -0.0393 -0.0483 -1.7475
 8928TIP3    H248200   3.610   4.235   1.676 -0.5144  2.0049 -0.7817
 8929TIP3   OH248201   1.599   0.520   5.066  0.0494 -0.3685  0.3039
 8929TIP3    H148202   1.654   0.488   4.994  0.8347 -0.7875  1.0773
 8929TIP3    H248203   1.510   0.495   5.041  0.4473 -1.5484  0.0190
 8930TIP3   OH248204   3.688   2.534  12.143  0.0104  0.1584  0.2673
 8930TIP3    H148205   3.763   2.475  12.142 -0.3296 -0.2698 -0.3793
 8930TIP3    H248206   3.623   2.489  12.197  0.4881  0.8719  1.4489
 8931TIP3   OH248207   4.697   2.805   2.862 -0.1150  0.2762  0.5740
 8931TIP3    H148208   4.723   2.720   2.827 -1.3005  0.6344 -1.2550
 8931TIP3    H248209   4.767   2.864   2.837 -0.7423  0.4366 -0.8494
 8932TIP3   OH248210   1.038   6.183   5.598  0.4621 -0.3506  0.0861
 8932TIP3    H148211   1.027   6.178   5.503  1.2371  0.6911 -0.0716
 8932TIP3    H248212   1.120   6.230   5.610  0.7690 -1.1831  1.2747
 8933TIP3   OH248213   5.626   6.629  14.631  0.3904 -0.0449 -0.6093
 8933TIP3    H148214   5.604   6.623  14.538 -1.1738 -1.0600 -0.2074
 8933TIP3    H248215   5.655   6.541  14.655  1.3048  0.3477 -0.2556
 8934TIP3   OH248216   4.392   2.217  15.727  0.4877  0.1428  0.2045
 8934TIP3    H148217   4.402   2.178  15.640  1.1376  0.1707  0.2637
 8934TIP3    H248218   4.302   2.196  15.753  0.6648 -0.8869  0.0203
 8935TIP3   OH248219   4.136   4.639   3.690 -0.7050 -0.1896  0.7041
 8935TIP3    H148220   4.154   4.729   3.661  0.8042 -0.2351  1.4290
 8935TIP3    H248221   4.181   4.584   3.626 -3.2690 -0.5279 -0.8832
 8936TIP3   OH248222   5.043   6.022  15.553 -0.7085 -0.1490 -0.4077
 8936TIP3    H148223   5.131   6.025  15.589 -0.6665 -0.0536 -0.5177
 8936TIP3    H248224   5.028   6.111  15.519 -2.0922  0.7861  2.5472
 8937TIP3   OH248225   6.309   0.159  10.452  0.2452 -0.3591  0.8095
 8937TIP3    H148226   6.366   0.090  10.419  1.0018  0.2801  0.7681
 8937TIP3    H248227   6.367   0.232  10.470 -0.4176 -0.0323  1.7185
 8938TIP3   OH248228   0.280   5.932  15.066 -0.2854 -0.5505  0.1798
 8938TIP3    H148229   0.233   5.856  15.031  1.3908 -0.5400 -2.1717
 8938TIP3    H248230   0.211   5.987  15.103 -1.7060 -2.3556  0.3058
 8939TIP3   OH248231   6.726   6.701  16.727 -0.1540 -0.6028  0.4974
 8939TIP3    H148232   6.749   6.703  16.820 -1.7854  0.5026  0.8866
 8939TIP3    H248233   6.647   6.647  16.723 -0.2692 -0.3804 -0.2147
 8940TIP3   OH248234   5.871   3.927  16.932  0.8079 -0.2502 -0.1883
 8940TIP3    H148235   5.849   3.855  16.992  0.3771  0.9843  1.1681
 8940TIP3    H248236   5.881   3.885  16.847 -3.7154 -1.3183 -0.2978
 8941TIP3   OH248237   2.996   1.077   6.397 -0.7574 -0.6437 -0.2978
 8941TIP3    H148238   3.068   1.023   6.430 -1.5386 -3.5292 -3.1203
 8941TIP3    H248239   3.034   1.165   6.391  1.4526 -1.4079  1.6005
 8942TIP3   OH248240   0.577   2.040  11.735 -1.0944 -0.3055  0.4887
 8942TIP3    H148241   0.553   2.014  11.646 -0.2639  1.6549 -0.3286
 8942TIP3    H248242   0.494   2.066  11.776 -1.1609  1.2013 -0.5525
 8943TIP3   OH248243   4.360   1.228  16.448 -0.2144 -0.0688  0.3936
 8943TIP3    H148244   4.327   1.245  16.536  3.1444  0.5393  1.6013
 8943TIP3    H248245   4.401   1.310  16.422  0.3488 -0.7949 -1.0297
 8944TIP3   OH248246   2.336   6.644  14.060  0.0128  0.3935  0.3733
 8944TIP3    H148247   2.343   6.671  14.152 -1.5010  2.1578  0.0042
 8944TIP3    H248248   2.314   6.551  14.064 -0.6808  0.6025  1.8101
 8945TIP3   OH248249   4.355   5.516  11.605 -0.9816 -0.7497 -0.5834
 8945TIP3    H148250   4.310   5.574  11.544 -0.1504 -0.6752 -1.1308
 8945TIP3    H248251   4.419   5.572  11.648 -1.1393 -0.9454 -0.0928
 8946TIP3   OH248252   6.479   0.954  13.601  0.5281  0.3157  0.1842
 8946TIP3    H148253   6.414   0.944  13.670  0.6386 -0.4356  0.1834
 8946TIP3    H248254   6.542   1.016  13.636  0.7997 -0.3719  0.9169
 8947TIP3   OH248255   6.251   2.814  16.750  0.6659 -0.1410  0.5975
 8947TIP3    H148256   6.256   2.875  16.676  1.5381  0.1804  0.9224
 8947TIP3    H248257   6.252   2.870  16.827  0.8637 -0.5417  0.8862
 8948TIP3   OH248258   1.239   5.328  11.897  0.0985 -0.0762  0.3229
 8948TIP3    H148259   1.182   5.252  11.906 -0.7251  0.5401  0.3055
 8948TIP3    H248260   1.302   5.302  11.829  1.5162 -1.7708  2.2286
 8949TIP3   OH248261   5.996   2.876   3.765  0.1752  0.0111 -0.1444
 8949TIP3    H148262   5.912   2.897   3.806  0.7184  0.2861  0.8405
 8949TIP3    H248263   5.991   2.782   3.747 -0.0919 -0.1010  0.4971
 8950TIP3   OH248264   3.320   1.037  15.392  0.1052 -0.4756  0.0351
 8950TIP3    H148265   3.378   1.002  15.324  1.6428 -0.8661  1.5027
 8950TIP3    H248266   3.276   0.960  15.428  0.5837 -0.4589  0.6499
 8951TIP3   OH248267   1.443   0.861  13.003 -0.4049  0.0581 -0.5828
 8951TIP3    H148268   1.500   0.821  12.937  0.1168 -0.3803  0.1333
 8951TIP3    H248269   1.490   0.940  13.031  0.5634 -1.0900  1.0906
 8952TIP3   OH248270   1.146   5.802   6.655 -0.3021  0.1020  0.3919
 8952TIP3    H148271   1.200   5.741   6.706 -0.1756 -0.7206 -0.7182
 8952TIP3    H248272   1.177   5.888   6.680  1.0342 -0.3524  0.3035
 8953TIP3   OH248273   5.432   4.980   1.613  0.0364 -0.4816  0.2747
 8953TIP3    H148274   5.418   4.887   1.595 -3.1298 -0.5622  2.7277
 8953TIP3    H248275   5.516   4.983   1.659 -0.2021 -2.2028  0.8410
 8954TIP3   OH248276   6.534   3.730  15.691 -0.6402 -0.0001  0.3111
 8954TIP3    H148277   6.604   3.667  15.674 -0.6589 -0.0950  0.5783
 8954TIP3    H248278   6.552   3.803  15.631  0.0652  0.2655  0.8394
 8955TIP3   OH248279   1.453   4.126  11.499  0.0407  0.4767  0.5437
 8955TIP3    H148280   1.475   4.119  11.407  2.8754 -0.5621  1.2637
 8955TIP3    H248281   1.437   4.036  11.527 -0.1241  0.7102  1.2187
 8956TIP3   OH248282   4.859   1.634  16.782  0.4079  0.6154  0.4815
 8956TIP3    H148283   4.865   1.682  16.864 -1.3546  0.5640  0.6617
 8956TIP3    H248284   4.839   1.700  16.716 -0.3461  0.3786  0.4618
 8957TIP3   OH248285   1.968   6.297   4.289  0.1816 -0.2154  0.2611
 8957TIP3    H148286   1.893   6.314   4.346  0.2016 -1.0796  0.5544
 8957TIP3    H248287   1.936   6.237   4.223  0.0382  1.1567 -0.9415
 8958TIP3   OH248288   4.491   2.770   3.036  0.0381  0.3346 -0.3813
 8958TIP3    H148289   4.435   2.723   2.975 -1.9174  1.0955  0.7459
 8958TIP3    H248290   4.572   2.785   2.989  0.0668 -2.6074 -1.3559
 8959TIP3   OH248291   4.920   2.266   2.868  0.2309  0.5452  0.0903
 8959TIP3    H148292   4.984   2.237   2.803  0.3451 -1.6743  1.1578
 8959TIP3    H248293   4.941   2.215   2.947 -1.5104  1.3449  1.0883
 8960TIP3   OH248294   6.295   3.132   5.942  0.2504  0.4418  0.7262
 8960TIP3    H148295   6.368   3.190   5.921  0.0278  0.0808 -1.1140
 8960TIP3    H248296   6.255   3.172   6.019  0.9909  1.9193  0.3670
 8961TIP3   OH248297   3.687   3.921  11.549  0.1037 -0.3941  0.1266
 8961TIP3    H148298   3.765   3.902  11.602  0.7828 -1.8226 -1.3420
 8961TIP3    H248299   3.650   3.835  11.529  0.9087  0.0109 -3.2589
 8962TIP3   OH248300   4.529   6.159  10.525 -0.0329 -0.4200  0.4569
 8962TIP3    H148301   4.531   6.243  10.479 -0.7761 -0.1866  0.8450
 8962TIP3    H248302   4.440   6.152  10.559 -0.0725 -1.5234  0.1460
 8963TIP3   OH248303   4.197   4.737  15.819  0.2616 -0.8053 -0.3074
 8963TIP3    H148304   4.216   4.811  15.877 -2.2801  1.2216 -1.9488
 8963TIP3    H248305   4.105   4.717  15.836  0.0263 -1.4481 -2.2542
 8964TIP3   OH248306   3.882   0.700  16.578 -0.6518 -0.2403 -0.3527
 8964TIP3    H148307   3.877   0.607  16.555 -0.5639 -0.6411  1.1861
 8964TIP3    H248308   3.918   0.742  16.500 -1.0925 -1.4405 -1.2163
 8965TIP3   OH248309   3.908   5.365  10.513 -0.2750 -0.2013 -0.0383
 8965TIP3    H148310   3.967   5.436  10.535  0.1815 -0.5999  0.0269
 8965TIP3    H248311   3.918   5.353  10.418  0.2109 -0.6803  0.0717
 8966TIP3   OH248312   3.910   2.687  11.939  0.5008  0.0811 -0.1782
 8966TIP3    H148313   3.827   2.646  11.915 -0.2749  0.5704  1.6090
 8966TIP3    H248314   3.918   2.762  11.880  0.4621 -0.8642 -1.4147
 8967TIP3   OH248315   2.306   4.519   2.795 -0.3467  0.8249  0.7354
 8967TIP3    H148316   2.372   4.560   2.738 -0.6884  0.8053  0.3232
 8967TIP3    H248317   2.246   4.590   2.817 -0.2455  0.8197  1.0330
 8968TIP3   OH248318   3.467   0.980  13.857 -0.4204 -0.0480  0.4007
 8968TIP3    H148319   3.384   0.933  13.843  0.1501 -0.7271 -0.7347
 8968TIP3    H248320   3.512   0.929  13.925 -0.7467  0.0854  0.7187
 8969TIP3   OH248321   6.378   5.630  15.488  0.3067  0.2223  0.1298
 8969TIP3    H148322   6.382   5.702  15.425  0.2356  2.5056  2.6881
 8969TIP3    H248323   6.299   5.581  15.463 -2.3819  3.8069  1.2529
 8970TIP3   OH248324   3.322   0.103   3.740 -0.0667  0.2395  0.2135
 8970TIP3    H148325   3.240   0.065   3.770  0.3373 -0.1529  0.8254
 8970TIP3    H248326   3.390   0.054   3.786  0.4905  0.9838  0.1977
 8971TIP3   OH248327   3.648   6.239  14.745  0.5228  0.4128  0.3772
 8971TIP3    H148328   3.668   6.196  14.828  1.4838  0.6446  0.2666
 8971TIP3    H248329   3.630   6.330  14.769  0.0077  0.3017  0.4232
 8972TIP3   OH248330   6.400   1.075   5.126 -0.1218  0.4052  0.1790
 8972TIP3    H148331   6.318   1.112   5.093  0.9216  1.9843 -0.7469
 8972TIP3    H248332   6.467   1.139   5.099  1.4758 -1.1568  0.3809
 8973TIP3   OH248333   0.441   4.701   1.995  0.2712  0.0870 -0.4237
 8973TIP3    H148334   0.414   4.724   2.084  1.4489  1.0016 -0.2869
 8973TIP3    H248335   0.359   4.692   1.947 -0.3397  1.0505  0.4041
 8974TIP3   OH248336   2.663   1.522   2.585 -0.2326 -0.3475  0.4785
 8974TIP3    H148337   2.755   1.550   2.581 -0.2879 -0.4153 -1.7489
 8974TIP3    H248338   2.661   1.457   2.655  1.6365 -1.0600 -0.0857
 8975TIP3   OH248339   2.671   2.964   4.420  0.3322 -0.2011 -0.5337
 8975TIP3    H148340   2.620   3.027   4.368 -0.9880 -0.9275 -0.1501
 8975TIP3    H248341   2.684   3.008   4.504 -1.0250 -0.6208 -0.0897
 8976TIP3   OH248342   0.743   6.381  13.501  0.2448 -0.1702 -0.4452
 8976TIP3    H148343   0.731   6.439  13.425  0.3553 -1.3601 -1.3702
 8976TIP3    H248344   0.734   6.293  13.466  1.7177 -0.7772  0.6760
 8977TIP3   OH248345   5.383   5.196  16.826  0.2574 -0.2819 -0.5863
 8977TIP3    H148346   5.460   5.231  16.781 -1.0868  1.5465 -1.5068
 8977TIP3    H248347   5.343   5.135  16.764  0.8379 -1.1054 -0.1697
 8978TIP3   OH248348   3.248   5.306   6.176  0.3180 -0.4092 -0.1590
 8978TIP3    H148349   3.204   5.346   6.251  1.0177  0.4935 -0.2137
 8978TIP3    H248350   3.267   5.380   6.118  1.2798 -0.8794 -0.4490
 8979TIP3   OH248351   2.720   0.900  15.495  0.6520  0.4175  0.4590
 8979TIP3    H148352   2.693   0.863  15.579 -0.8819  0.7174  0.1154
 8979TIP3    H248353   2.662   0.976  15.482 -0.4388 -0.7314 -1.7508
 8980TIP3   OH248354   5.319   2.196  16.969 -0.2178  0.6657  0.4668
 8980TIP3    H148355   5.308   2.250  16.891  0.4648  0.2649  0.0881
 8980TIP3    H248356   5.404   2.152  16.957 -0.5051 -0.0641  1.0257
 8981TIP3   OH248357   3.743   1.267  12.388  0.4203  0.5860 -0.1023
 8981TIP3    H148358   3.796   1.192  12.361  0.7891  0.6192  0.5243
 8981TIP3    H248359   3.661   1.257  12.340 -0.1145 -1.0486  1.1299
 8982TIP3   OH248360   4.529   5.264   4.009  0.1487 -0.3010 -0.4593
 8982TIP3    H148361   4.508   5.171   4.018 -3.0365  0.2995 -0.9424
 8982TIP3    H248362   4.556   5.290   4.097 -0.2350 -1.3928  0.0001
 8983TIP3   OH248363   4.249   0.119  12.388 -0.8096  0.0519  0.4403
 8983TIP3    H148364   4.229   0.208  12.359  0.1308  0.2105  0.2675
 8983TIP3    H248365   4.323   0.129  12.447  0.7484 -0.8376 -1.3103
 8984TIP3   OH248366   4.011   2.477  13.431  0.5604 -0.4000 -0.3630
 8984TIP3    H148367   3.986   2.567  13.450  1.8613  0.0137 -0.5791
 8984TIP3    H248368   3.994   2.465  13.338  2.9692  0.4821 -0.9258
 8985TIP3   OH248369   3.242   4.492   2.527 -0.2040 -0.3576 -0.4070
 8985TIP3    H148370   3.334   4.515   2.512 -0.3128  0.1622 -0.2979
 8985TIP3    H248371   3.203   4.495   2.439 -0.0339 -0.9644 -0.5062
 8986TIP3   OH248372   3.145   2.512   6.637 -0.0794 -0.8323 -0.0023
 8986TIP3    H148373   3.131   2.500   6.731  2.4983 -0.1887  0.4978
 8986TIP3    H248374   3.216   2.451   6.615  0.5659  0.3104 -1.1637
 8987TIP3   OH248375   3.651   2.791  16.393 -0.0715  0.1807 -0.1606
 8987TIP3    H148376   3.745   2.773  16.385  0.2811  1.6075  0.6348
 8987TIP3    H248377   3.647   2.879  16.430 -1.7375  0.6028 -1.3077
 8988TIP3   OH248378   0.832   1.414  16.526 -0.5108 -0.0194  0.1210
 8988TIP3    H148379   0.921   1.450  16.533 -0.6515  0.4635 -0.4712
 8988TIP3    H248380   0.835   1.333  16.576  0.9265 -1.2102 -1.8061
 8989TIP3   OH248381   4.082   4.367  13.042 -0.0067  0.2653  0.5101
 8989TIP3    H148382   4.092   4.272  13.034 -0.1833  0.3295 -0.5254
 8989TIP3    H248383   3.987   4.381  13.046 -0.1013  0.5822 -2.0007
 8990TIP3   OH248384   3.355   5.779  14.398 -0.0760  0.0400 -0.0518
 8990TIP3    H148385   3.269   5.739  14.414  0.3211 -0.6910  0.2686
 8990TIP3    H248386   3.345   5.824  14.315 -0.5919 -0.5508 -0.3179
 8991TIP3   OH248387   4.380   2.219   3.540 -0.0162 -0.5878 -0.3563
 8991TIP3    H148388   4.462   2.179   3.512  0.3881 -1.1795  1.6239
 8991TIP3    H248389   4.386   2.310   3.508  1.0967 -0.8119 -0.8128
 8992TIP3   OH248390   0.430   2.513  16.382 -0.2177 -0.5602  0.1018
 8992TIP3    H148391   0.420   2.600  16.420 -0.9465 -1.0299  0.9904
 8992TIP3    H248392   0.498   2.524  16.315  0.0477  0.5755  0.5464
 8993TIP3   OH248393   4.655   5.333   3.776 -0.7136  0.3202  0.2359
 8993TIP3    H148394   4.696   5.251   3.748 -0.0684  0.2988  1.2264
 8993TIP3    H248395   4.597   5.307   3.847 -3.2885  0.1884 -1.8147
 8994TIP3   OH248396   3.352   5.720  16.591  0.0180 -0.0435  0.5361
 8994TIP3    H148397   3.292   5.794  16.578 -0.5027 -0.4956  0.3802
 8994TIP3    H248398   3.367   5.685  16.504  0.4846  0.0432  0.5790
 8995TIP3   OH248399   3.293   0.968  14.812  0.0565  0.5315 -0.0910
 8995TIP3    H148400   3.255   0.880  14.817  0.5202  0.3162 -0.3034
 8995TIP3    H248401   3.282   1.004  14.900 -0.5255  0.4268 -0.1177
 8996TIP3   OH248402   2.725   5.598   1.111 -0.0681  0.3045  0.6252
 8996TIP3    H148403   2.794   5.589   1.045 -1.0298 -0.9178 -0.2363
 8996TIP3    H248404   2.769   5.638   1.186  0.7318  3.0457 -1.2287
 8997TIP3   OH248405   4.287   0.473  14.917  0.0943 -0.8817 -0.1697
 8997TIP3    H148406   4.318   0.505  15.002  0.7728  0.1334 -0.7847
 8997TIP3    H248407   4.364   0.430  14.879 -0.5293 -2.3572  0.2072
 8998TIP3   OH248408   4.789   5.850  15.683  0.3103  0.4072  0.1399
 8998TIP3    H148409   4.740   5.931  15.665  1.2811  0.6871 -1.2472
 8998TIP3    H248410   4.851   5.874  15.752  1.8376  1.3188 -1.5425
 8999TIP3   OH248411   2.047   3.439   5.996 -0.3517 -0.1862 -0.0773
 8999TIP3    H148412   1.960   3.426   5.958 -0.0543  0.5344 -1.0255
 8999TIP3    H248413   2.107   3.398   5.934 -0.0752 -1.5950  1.0898
 9000TIP3   OH248414   2.988   1.604   0.711  0.1024 -0.4599  0.3626
 9000TIP3    H148415   3.029   1.525   0.745  1.0605  0.4860  1.4651
 9000TIP3    H248416   3.052   1.641   0.650 -0.2551 -0.4139  0.0062
 9001TIP3   OH248417   4.142   1.096  12.036 -0.3852 -0.2084  0.2914
 9001TIP3    H148418   4.097   1.177  12.059  0.2820  0.0760  0.6150
 9001TIP3    H248419   4.075   1.041  11.995 -0.7027  0.7420 -0.4626
 9002TIP3   OH248420   1.925   3.732  11.350  0.2446  0.0561 -0.4480
 9002TIP3    H148421   1.848   3.787  11.337  0.7768  0.7516 -0.7319
 9002TIP3    H248422   1.986   3.787  11.399  0.6652 -0.3901 -0.4598
 9003TIP3   OH248423   0.049   1.335  13.594 -0.1521  0.1499  0.2936
 9003TIP3    H148424   0.141   1.341  13.621  0.0937  0.7702 -0.6763
 9003TIP3    H248425   0.046   1.259  13.535 -0.3775 -0.2185  0.7746
 9004TIP3   OH248426   5.921   2.076  14.223 -0.2094  0.1653 -0.1778
 9004TIP3    H148427   5.962   2.052  14.140  0.3395 -0.0142  0.1436
 9004TIP3    H248428   5.913   2.171  14.220 -1.2494  0.0594 -0.9283
 9005TIP3   OH248429   2.482   4.399  15.079 -0.4863  0.3900 -0.2469
 9005TIP3    H148430   2.430   4.418  15.001  1.6405  0.9627 -1.5546
 9005TIP3    H248431   2.542   4.329  15.053 -0.0309  0.2971  0.9932
 9006TIP3   OH248432   1.105   3.326  16.654 -0.3732 -0.5418  0.0024
 9006TIP3    H148433   1.191   3.285  16.652 -0.9819 -1.8717  0.0854
 9006TIP3    H248434   1.082   3.337  16.561  0.4653  1.0770 -0.0104
 9007TIP3   OH248435   4.482   4.755   1.348  0.0041 -0.3852 -0.5500
 9007TIP3    H148436   4.470   4.845   1.319 -2.2346 -0.2583  0.6299
 9007TIP3    H248437   4.557   4.758   1.407  0.4181  0.5604 -1.1184
 9008TIP3   OH248438   2.899   2.145   2.042 -0.1267 -0.0517  0.2709
 9008TIP3    H148439   2.867   2.227   2.080 -1.0564 -0.1160 -0.3629
 9008TIP3    H248440   2.907   2.086   2.116 -0.4391  0.3036  0.5899
 9009TIP3   OH248441   0.553   1.443   3.554  0.4536 -0.0148 -0.2161
 9009TIP3    H148442   0.527   1.470   3.642  0.3535 -2.7864  0.6679
 9009TIP3    H248443   0.647   1.429   3.560  0.2748 -1.2785 -0.2330
 9010TIP3   OH248444   1.703   6.036   1.672  0.4838  0.2491  0.1732
 9010TIP3    H148445   1.631   6.064   1.728  1.9328  2.3731  1.0302
 9010TIP3    H248446   1.689   6.082   1.590  0.5857  0.2382  0.1499
 9011TIP3   OH248447   6.783   4.616   2.269 -0.8781 -0.1178 -0.1574
 9011TIP3    H148448   6.694   4.620   2.303 -0.9624 -0.6275 -0.3261
 9011TIP3    H248449   6.778   4.556   2.195 -0.4489  0.0643 -0.3369
 9012TIP3   OH248450   4.788   0.416   4.886 -0.4020  0.1422  0.4275
 9012TIP3    H148451   4.743   0.365   4.953 -1.0008  0.2637  0.1288
 9012TIP3    H248452   4.719   0.439   4.823  0.2937 -0.6712 -0.6660
 9013TIP3   OH248453   2.620   2.629  11.840  0.4637 -0.3323 -0.6438
 9013TIP3    H148454   2.548   2.598  11.784 -0.4818  2.3338 -0.9474
 9013TIP3    H248455   2.694   2.641  11.781  0.6246 -1.2226 -0.6422
 9014TIP3   OH248456   0.113   6.512  15.447  0.1312 -0.0284  0.3121
 9014TIP3    H148457   0.134   6.551  15.532  2.0994 -2.4006  0.9714
 9014TIP3    H248458   0.099   6.419  15.466 -1.0902 -0.2757 -1.7023
 9015TIP3   OH248459   4.705   5.049  14.644  0.0750 -0.5937 -0.1249
 9015TIP3    H148460   4.741   5.012  14.564  1.7392 -0.6886  0.6545
 9015TIP3    H248461   4.611   5.056  14.626  0.2709 -1.5908 -1.6889
 9016TIP3   OH248462   2.297   4.703   1.666 -0.3400 -0.0287  0.7811
 9016TIP3    H148463   2.315   4.673   1.755  0.1826 -0.9065  0.3842
 9016TIP3    H248464   2.236   4.776   1.677 -0.0905  0.0216  1.8721
 9017TIP3   OH248465   2.755   1.214   2.346  0.0206 -0.0675  0.1643
 9017TIP3    H148466   2.833   1.244   2.392 -0.2276  0.4865  0.2265
 9017TIP3    H248467   2.788   1.175   2.265  0.3065  0.9206 -0.2044
 9018TIP3   OH248468   6.481   1.228  16.721 -0.3871  0.1229  0.5512
 9018TIP3    H148469   6.412   1.178  16.765 -0.6432 -1.7700 -1.9310
 9018TIP3    H248470   6.517   1.284  16.790 -2.4201 -0.9810  2.5807
 9019TIP3   OH248471   0.402   4.086  14.935  0.2694  0.4034 -0.7338
 9019TIP3    H148472   0.377   4.178  14.926 -2.0890 -0.1847 -0.6636
 9019TIP3    H248473   0.326   4.045  14.977  1.1840 -1.6212 -1.0132
 9020TIP3   OH248474   5.582   2.151  15.042  0.4630  0.2207 -0.3895
 9020TIP3    H148475   5.585   2.241  15.075  2.2917 -0.0380  0.1972
 9020TIP3    H248476   5.549   2.159  14.952  1.4160  1.5658 -0.6320
 9021TIP3   OH248477   2.436   0.103   3.556 -0.3780  0.1376  0.3600
 9021TIP3    H148478   2.416   0.189   3.519  0.2398  1.2264  2.4953
 9021TIP3    H248479   2.405   0.041   3.490 -1.0280  1.9841 -1.1124
 9022TIP3   OH248480   3.312   3.307  16.453 -0.0687 -0.0501  0.0123
 9022TIP3    H148481   3.278   3.288  16.366  1.2895 -1.0604 -0.3335
 9022TIP3    H248482   3.236   3.332  16.505 -0.6145  2.6090 -1.9823
 9023TIP3   OH248483   1.135   5.787   0.933  0.6200  0.7154 -0.0191
 9023TIP3    H148484   1.161   5.778   0.841  2.1933 -1.1512  0.5822
 9023TIP3    H248485   1.048   5.826   0.929  0.6445  0.6216 -2.3051
 9024TIP3   OH248486   5.990   3.264  16.038 -0.1059  0.1263  0.0372
 9024TIP3    H148487   6.002   3.272  15.944 -0.2971 -0.6646 -0.0617
 9024TIP3    H248488   5.920   3.200  16.048 -0.4806  0.6338  0.7071
 9025TIP3   OH248489   1.013   5.474   1.031 -0.5157 -0.3531 -0.4108
 9025TIP3    H148490   1.029   5.419   1.108 -0.8413  0.5849  0.3353
 9025TIP3    H248491   0.973   5.553   1.066 -1.7639 -0.4053 -1.6853
 9026TIP3   OH248492   4.166   0.298  15.161  0.3544 -0.4356  0.5108
 9026TIP3    H148493   4.196   0.216  15.200  1.6214 -0.0230  0.4513
 9026TIP3    H248494   4.159   0.280  15.068 -0.7412 -0.8657  0.6693
 9027TIP3   OH248495   2.204   6.277  15.177  0.1604 -0.3677  0.4636
 9027TIP3    H148496   2.134   6.338  15.157  1.5554  1.9677  2.5045
 9027TIP3    H248497   2.282   6.331  15.184  1.4596 -2.3905  2.1722
 9028TIP3   OH248498   5.063   6.645  12.764  0.0670  0.1711  0.1785
 9028TIP3    H148499   5.088   6.715  12.824 -1.1854  0.3014  0.5636
 9028TIP3    H248500   4.969   6.655  12.754 -0.1891 -1.6971  0.5497
 9029TIP3   OH248501   2.523   5.850   5.008 -0.4238  0.4386 -0.0683
 9029TIP3    H148502   2.519   5.773   4.951  1.2657  1.6290 -1.8673
 9029TIP3    H248503   2.501   5.923   4.950 -3.2083  1.2352  1.8945
 9030TIP3   OH248504   5.404   3.186  17.145 -0.2478  0.0630 -0.1312
 9030TIP3    H148505   5.427   3.279  17.153  0.7022 -0.1894  0.1484
 9030TIP3    H248506   5.369   3.162  17.231  3.2849 -0.8419  1.1333
 9031TIP3   OH248507   3.176   4.721  15.885 -0.4034 -0.2967 -0.0969
 9031TIP3    H148508   3.261   4.698  15.922  0.2037  0.8715 -0.7111
 9031TIP3    H248509   3.184   4.814  15.863 -1.8080 -0.2000 -0.2577
 9032TIP3   OH248510   0.514   2.033  16.464 -0.0037  0.0282  0.5546
 9032TIP3    H148511   0.597   2.032  16.511  0.8949  0.7237 -0.9910
 9032TIP3    H248512   0.511   2.120  16.424  0.3628 -1.3784 -2.6383
 9033TIP3   OH248513   3.616   6.362  16.732  0.0519 -0.8623  0.1910
 9033TIP3    H148514   3.707   6.338  16.718  0.5828  0.4779  1.1893
 9033TIP3    H248515   3.613   6.392  16.823 -0.6415  2.2304 -0.7967
 9034TIP3   OH248516   4.205   5.020  13.833 -0.1277  0.0337  0.1119
 9034TIP3    H148517   4.143   5.036  13.762  0.7440  2.3918 -0.1630
 9034TIP3    H248518   4.270   4.961  13.796 -1.0119 -0.7075 -0.2739
 9035TIP3   OH248519   0.018   3.842  12.240 -0.6804  0.6714 -0.0542
 9035TIP3    H148520   0.020   3.775  12.308  0.6862 -0.2254 -0.9368
 9035TIP3    H248521   0.008   3.792  12.158  3.3876  1.2558 -1.0137
 9036TIP3   OH248522   3.304   3.366  11.196 -0.3664 -0.4499  0.0855
 9036TIP3    H148523   3.235   3.387  11.134 -0.4954  0.7772  0.6248
 9036TIP3    H248524   3.330   3.277  11.174 -1.7586 -0.7371 -0.4610
 9037TIP3   OH248525   6.544   0.762  12.931  0.7167  0.1114 -0.5897
 9037TIP3    H148526   6.580   0.779  13.018 -0.6911  0.8360 -0.1403
 9037TIP3    H248527   6.602   0.696  12.894  1.1668 -0.4196  1.0081
 9038TIP3   OH248528   6.744   5.723  12.747  0.1838 -0.1488  0.0483
 9038TIP3    H148529   6.692   5.726  12.827  1.2025 -1.1198  0.7654
 9038TIP3    H248530   6.710   5.795  12.694  0.5114  1.4864  1.9799
 9039TIP3   OH248531   3.940   1.429  14.710  0.0223  0.6603  0.1002
 9039TIP3    H148532   3.951   1.342  14.747 -1.7745  0.3805  0.0619
 9039TIP3    H248533   3.865   1.420  14.650  1.2212  1.7074 -1.5940
 9040TIP3   OH248534   5.460   3.609   5.941  0.5580  0.0201  0.0373
 9040TIP3    H148535   5.512   3.673   5.990 -0.3658  0.8708 -0.0836
 9040TIP3    H248536   5.525   3.558   5.893  1.3328  0.5902  0.4596
 9041TIP3   OH248537   1.642   0.897  11.905 -0.0504  0.5062 -0.4130
 9041TIP3    H148538   1.701   0.960  11.946 -1.0348  0.9978  0.2680
 9041TIP3    H248539   1.696   0.819  11.893  1.0615  1.3299 -0.8855
 9042TIP3   OH248540   4.146   5.463   2.648 -0.1416  0.2186 -0.4393
 9042TIP3    H148541   4.146   5.552   2.683 -1.0250  0.3383 -0.7149
 9042TIP3    H248542   4.084   5.415   2.705 -1.0618  0.2459 -1.4013
 9043TIP3   OH248543   0.691   4.720  16.607 -0.1548 -0.4530  0.2000
 9043TIP3    H148544   0.690   4.760  16.521 -1.6978 -2.0755 -0.5813
 9043TIP3    H248545   0.784   4.706  16.626  0.2604  1.0728 -0.6207
 9044TIP3   OH248546   5.803   4.936   0.780  0.3700  0.2177  0.2602
 9044TIP3    H148547   5.878   4.921   0.837  1.6166  0.9748 -1.1411
 9044TIP3    H248548   5.759   5.013   0.817  1.1292  0.6612  0.2458
 9045TIP3   OH248549   0.415   5.863   2.837 -0.2848  0.1238  0.2324
 9045TIP3    H148550   0.331   5.863   2.882  0.5445 -2.4039  1.9065
 9045TIP3    H248551   0.394   5.838   2.747 -1.3694  0.0028  0.5113
 9046TIP3   OH248552   5.234   2.468  11.969  0.0526  0.2334  0.1587
 9046TIP3    H148553   5.322   2.477  11.933  0.3889 -4.0610 -0.4179
 9046TIP3    H248554   5.240   2.508  12.056  2.8125 -0.5752  0.4143
 9047TIP3   OH248555   0.228   3.464  14.294 -0.0062  0.0453  0.3309
 9047TIP3    H148556   0.199   3.467  14.203 -3.2552  0.9731  1.3473
 9047TIP3    H248557   0.237   3.556  14.319 -1.0821 -0.1792  1.5444
 9048TIP3   OH248558   5.048   4.710   3.768 -0.0465  0.1686 -0.5397
 9048TIP3    H148559   5.091   4.625   3.764 -1.0612 -0.3219 -1.7217
 9048TIP3    H248560   4.990   4.704   3.843  1.0319  0.3881  0.3171
 9049TIP3   OH248561   1.726   5.586   0.915 -0.1015 -0.0697 -0.4027
 9049TIP3    H148562   1.747   5.532   0.838  0.4837 -0.0288 -0.2730
 9049TIP3    H248563   1.810   5.600   0.957 -0.3091  0.6519 -0.2357
 9050TIP3   OH248564   2.493   1.846  11.145  0.5546  0.5779  0.4291
 9050TIP3    H148565   2.536   1.760  11.144  0.6231  0.6154  0.0836
 9050TIP3    H248566   2.525   1.890  11.066  0.0027  0.6608  0.2445
 9051TIP3   OH248567   2.900   5.779   2.296  0.2115  0.2922 -0.5457
 9051TIP3    H148568   2.824   5.790   2.239  0.4228 -0.7250 -1.0424
 9051TIP3    H248569   2.973   5.760   2.236  0.8298  1.1123 -0.0630
 9052TIP3   OH248570   1.833   6.554  14.780  0.6193  0.5124 -0.0215
 9052TIP3    H148571   1.810   6.639  14.818  2.7507  0.6884  0.9448
 9052TIP3    H248572   1.768   6.540  14.711 -1.4230  1.6573  1.6191
 9053TIP3   OH248573   3.828   3.700   0.173 -0.0238 -0.1289 -0.1334
 9053TIP3    H148574   3.878   3.782   0.179 -2.6071  1.5239 -0.2440
 9053TIP3    H248575   3.826   3.680   0.079 -1.1134  0.8201 -0.3232
 9054TIP3   OH248576   4.554   3.905   5.420  0.4710 -0.6225 -0.2715
 9054TIP3    H148577   4.570   3.811   5.417 -0.1259 -0.7093 -0.6599
 9054TIP3    H248578   4.633   3.941   5.461  1.3570 -1.1351 -1.4995
 9055TIP3   OH248579   2.932   3.157  12.120  0.5549  0.1066  0.0236
 9055TIP3    H148580   2.907   3.135  12.030  2.0323 -1.1284 -0.1122
 9055TIP3    H248581   2.892   3.088  12.173 -2.3673  2.1982  0.6058
 9056TIP3   OH248582   6.678   4.606   3.874 -1.0024  0.2632  0.8883
 9056TIP3    H148583   6.601   4.607   3.818 -1.1405  2.4454  1.0828
 9056TIP3    H248584   6.654   4.658   3.951  0.8124  1.4271  0.7073
 9057TIP3   OH248585   2.899   2.012  16.016 -0.1540 -0.5019 -0.1382
 9057TIP3    H148586   2.809   2.042  16.017 -0.7170 -1.9657 -2.1554
 9057TIP3    H248587   2.940   2.054  16.091 -2.5012  0.1987  0.7822
 9058TIP3   OH248588   4.325   5.409  12.920 -0.4213 -0.1837 -0.4221
 9058TIP3    H148589   4.267   5.332  12.920 -0.4291 -0.1782 -0.2387
 9058TIP3    H248590   4.284   5.469  12.982  0.1851 -0.4892  0.2888
 9059TIP3   OH248591   5.739   0.155   2.770 -0.0538 -1.6858 -0.3158
 9059TIP3    H148592   5.765   0.063   2.763  2.4519 -1.0701  0.6310
 9059TIP3    H248593   5.784   0.198   2.698  0.5121 -0.8199  0.5527
 9060TIP3   OH248594   4.192   0.533   5.794  0.2979 -0.0720  0.5616
 9060TIP3    H148595   4.253   0.545   5.866  0.9371  2.6340 -0.3933
 9060TIP3    H248596   4.246   0.503   5.721  0.2395  0.7592  0.1737
 9061TIP3   OH248597   6.713   0.979   4.481  0.1227  0.1571 -0.2309
 9061TIP3    H148598   6.796   1.011   4.446 -0.4854  0.8602 -1.0784
 9061TIP3    H248599   6.672   1.057   4.520  0.6048 -0.5326  1.6994
 9062TIP3   OH248600   2.441   1.761  15.309  0.0228 -0.3383 -0.1271
 9062TIP3    H148601   2.516   1.765  15.368 -0.4806 -1.6792  0.6160
 9062TIP3    H248602   2.370   1.726  15.362 -0.6470 -0.8299 -1.3223
 9063TIP3   OH248603   6.131   6.345  11.619 -0.3738 -0.0278 -0.2494
 9063TIP3    H148604   6.082   6.384  11.691  1.2230  1.8094 -0.1039
 9063TIP3    H248605   6.167   6.264  11.655  1.5902  1.5683  1.5229
 9064TIP3   OH248606   3.750   5.120   1.540  0.6866 -0.6017 -0.0482
 9064TIP3    H148607   3.806   5.162   1.605 -0.1680  0.0158  0.2982
 9064TIP3    H248608   3.677   5.181   1.528  1.0881 -0.4570 -1.9672
 9065TIP3   OH248609   1.935   4.682  12.231 -0.3633  0.0760 -0.8424
 9065TIP3    H148610   2.007   4.729  12.273  0.9140 -1.0506 -1.7439
 9065TIP3    H248611   1.915   4.735  12.153 -0.4957  0.3770 -0.6053
 9066TIP3   OH248612   5.531   4.790  12.779  0.1634 -0.5135 -0.5766
 9066TIP3    H148613   5.446   4.817  12.745  0.7649  0.6210 -1.1879
 9066TIP3    H248614   5.509   4.728  12.850 -1.1463 -0.5564 -0.9959
 9067TIP3   OH248615   5.363   3.562  12.745 -0.1701  0.1648  0.2426
 9067TIP3    H148616   5.352   3.544  12.652 -0.6882 -1.8541  0.6859
 9067TIP3    H248617   5.458   3.562  12.758  0.0065  2.8141 -0.7076
 9068TIP3   OH248618   5.837   3.614   0.642 -0.5371  0.1177 -0.1038
 9068TIP3    H148619   5.915   3.668   0.633 -0.5505  0.3528  1.1185
 9068TIP3    H248620   5.806   3.602   0.552  0.5275  0.5635 -0.5423
 9069TIP3   OH248621   0.810   3.625   4.676  0.2725 -0.0809  0.5539
 9069TIP3    H148622   0.757   3.605   4.754 -0.3812  0.3828  0.2261
 9069TIP3    H248623   0.763   3.582   4.604  0.9197 -0.5745  0.4195
 9070TIP3   OH248624   0.945   5.233   4.007 -0.3816  0.1220 -0.1226
 9070TIP3    H148625   0.882   5.297   4.040 -0.8567 -0.9034  1.0437
 9070TIP3    H248626   1.019   5.238   4.068 -0.3191 -0.2509 -0.1627
 9071TIP3   OH248627   3.241   4.819  14.608 -0.5885  0.2284  0.2391
 9071TIP3    H148628   3.181   4.785  14.674  1.4534 -2.3919  0.8076
 9071TIP3    H248629   3.326   4.822  14.651  0.1843  1.5401 -1.3065
 9072TIP3   OH248630   1.228   5.046  11.199  0.0519 -0.4945  0.3184
 9072TIP3    H148631   1.267   5.106  11.135  0.4957  0.4613  1.4664
 9072TIP3    H248632   1.134   5.056  11.187  0.1410 -1.2628 -1.0506
 9073TIP3   OH248633   0.900   2.508  13.215  0.1507  0.4746  0.1509
 9073TIP3    H148634   0.806   2.491  13.219  0.1780  0.0099 -0.9954
 9073TIP3    H248635   0.937   2.427  13.179  0.6821  1.6445 -1.9987
 9074TIP3   OH248636   0.243   5.978  17.180 -0.0835 -0.1708 -0.1627
 9074TIP3    H148637   0.173   6.008  17.124 -1.3255 -0.4690  1.1870
 9074TIP3    H248638   0.211   5.895  17.215  0.6340  0.0377  1.0145
 9075TIP3   OH248639   2.284   1.457   2.682  0.2256 -0.3139 -0.5376
 9075TIP3    H148640   2.290   1.468   2.777 -2.0596  1.0973 -0.5128
 9075TIP3    H248641   2.209   1.398   2.669 -0.2087  0.4317 -1.4992
 9076TIP3   OH248642   1.452   0.016  15.085  0.2797 -0.8054  0.5760
 9076TIP3    H148643   1.372   0.029  15.033 -0.1825  0.7575  1.6533
 9076TIP3    H248644   1.511   0.085  15.056  0.3885 -0.5480  1.4017
 9077TIP3   OH248645   3.472   4.953  13.984  0.0768  1.0501 -0.6289
 9077TIP3    H148646   3.408   4.981  14.049  2.1151  1.5445  1.2092
 9077TIP3    H248647   3.542   5.018  13.989  2.4309 -1.4384 -0.0101
 9078TIP3   OH248648   3.335   3.440  11.994 -0.1742 -0.0112 -0.3914
 9078TIP3    H148649   3.420   3.406  12.021 -0.0898 -0.0544 -0.7100
 9078TIP3    H248650   3.289   3.365  11.957 -0.1471  0.1285 -0.7098
 9079TIP3   OH248651   4.463   5.506   2.643  0.7717  0.3126  0.4069
 9079TIP3    H148652   4.548   5.538   2.611  0.5715  0.2894 -0.1455
 9079TIP3    H248653   4.401   5.526   2.573 -0.1673  2.6497  1.8627
 9080TIP3   OH248654   1.000   1.168  11.271  0.0213  0.0168 -0.4813
 9080TIP3    H148655   1.091   1.184  11.243 -0.5467  1.9055 -1.3793
 9080TIP3    H248656   1.005   1.089  11.325  1.9947 -0.6560 -1.5861
 9081TIP3   OH248657   2.969   4.154  13.452 -0.2317 -0.6915  0.3888
 9081TIP3    H148658   3.042   4.122  13.505 -0.0614 -1.8288 -0.4934
 9081TIP3    H248659   2.917   4.207  13.512  0.0716 -1.7761  1.6380
 9082TIP3   OH248660   6.436   2.281  15.274 -0.3701 -0.2474  0.3073
 9082TIP3    H148661   6.392   2.365  15.281 -0.0363 -0.1257  0.9905
 9082TIP3    H248662   6.530   2.303  15.273 -0.1556 -0.7535  3.3007
 9083TIP3   OH248663   0.038   2.563   3.178 -0.3912  0.1325  0.7326
 9083TIP3    H148664   0.073   2.639   3.131 -0.3360 -0.5197 -0.2911
 9083TIP3    H248665   0.094   2.490   3.150 -0.9753 -0.4412  1.0544
 9084TIP3   OH248666   4.275   6.210   3.325  0.3226  0.3242  0.6353
 9084TIP3    H148667   4.298   6.301   3.303 -1.0985  1.3155  3.0987
 9084TIP3    H248668   4.186   6.200   3.293  0.4464 -0.2001  0.4479
 9085TIP3   OH248669   2.974   5.694   5.045 -0.1133  0.2655  0.6903
 9085TIP3    H148670   3.030   5.749   5.100  0.9007 -1.1007  1.0780
 9085TIP3    H248671   2.901   5.670   5.102  0.5327 -0.5015  1.2192
 9086TIP3   OH248672   6.415   4.242  14.832 -0.6222  0.4177 -0.1587
 9086TIP3    H148673   6.336   4.194  14.859 -0.2191 -0.5359 -0.6646
 9086TIP3    H248674   6.460   4.262  14.914 -1.6223  1.4013  0.1764
 9087TIP3   OH248675   3.329   1.165  12.075 -0.2052 -0.3081 -0.1248
 9087TIP3    H148676   3.324   1.076  12.108  1.9453 -0.8396 -1.1140
 9087TIP3    H248677   3.274   1.165  11.996 -1.7265 -0.2260  0.9162
 9088TIP3   OH248678   0.990   6.461   5.246 -0.1926  0.0683  0.4725
 9088TIP3    H148679   1.083   6.450   5.265 -0.3578 -1.7095  0.3276
 9088TIP3    H248680   0.965   6.541   5.292  1.0133 -0.3772  1.9324
 9089TIP3   OH248681   3.160   1.849   1.416  0.3072  0.0223 -0.6184
 9089TIP3    H148682   3.192   1.829   1.328  2.9901  1.1046  0.0815
 9089TIP3    H248683   3.203   1.786   1.473 -0.9296 -0.2648  0.0209
 9090TIP3   OH248684   3.986   6.749   1.855  0.0152  0.3035  0.4420
 9090TIP3    H148685   4.010   6.689   1.785 -0.4585 -0.2666  0.7624
 9090TIP3    H248686   4.069   6.776   1.894  0.3002  0.9492 -0.6032
 9091TIP3   OH248687   5.987   2.037   3.670 -0.1874  0.3388  0.3624
 9091TIP3    H148688   6.040   2.053   3.592  1.1915  0.2177  1.2522
 9091TIP3    H248689   5.976   1.942   3.673 -0.8366  0.3992 -0.0652
 9092TIP3   OH248690   1.738   3.958   1.677  0.4030  0.4567  0.3724
 9092TIP3    H148691   1.812   3.922   1.629 -0.0739 -0.5839  0.3976
 9092TIP3    H248692   1.713   3.888   1.738  0.0387  1.1795  1.0574
 9093TIP3   OH248693   5.668   5.620  16.375  0.0208  0.0209  0.1792
 9093TIP3    H148694   5.752   5.573  16.372  0.7490  1.3107 -0.5359
 9093TIP3    H248695   5.665   5.668  16.292  0.2065  2.6979  1.6760
 9094TIP3   OH248696   3.449   5.719  13.954  0.2452  0.0369  0.0713
 9094TIP3    H148697   3.386   5.667  13.905 -0.2495  0.3016  0.4255
 9094TIP3    H248698   3.521   5.658  13.973 -0.3400 -0.5190  0.4976
 9095TIP3   OH248699   6.025   3.074   4.526 -0.0710  0.1322  0.0036
 9095TIP3    H148700   6.015   2.980   4.514  1.5000 -0.1685  0.9373
 9095TIP3    H248701   5.936   3.106   4.542 -1.0310 -0.7352 -3.2391
 9096TIP3   OH248702   1.591   6.019  17.205  0.7903 -0.0299 -0.0294
 9096TIP3    H148703   1.587   5.925  17.224  0.0894  0.1202  0.6239
 9096TIP3    H248704   1.504   6.040  17.171  1.0517  0.3195 -0.4809
 9097TIP3   OH248705   3.040   5.187   5.071  0.0558 -0.6459  1.0813
 9097TIP3    H148706   3.057   5.125   5.142  1.9775 -1.0325  0.3129
 9097TIP3    H248707   2.967   5.150   5.023 -0.9845 -0.6008  2.5990
 9098TIP3   OH248708   1.768   3.300   4.701 -0.1505  0.1151 -0.3299
 9098TIP3    H148709   1.769   3.285   4.607  0.2204  2.3381 -0.7093
 9098TIP3    H248710   1.858   3.281   4.729 -0.0705  0.1756 -0.5449
 9099TIP3   OH248711   0.898   1.246  14.376 -0.0240 -0.4118 -0.1529
 9099TIP3    H148712   0.888   1.289  14.291  0.1677  0.1877  0.1273
 9099TIP3    H248713   0.930   1.159  14.355  1.8304  0.3606 -0.5899
 9100TIP3   OH248714   5.967   3.013   0.509 -0.1086  0.6486  1.3339
 9100TIP3    H148715   5.973   3.058   0.593  2.1137  2.1389  0.4330
 9100TIP3    H248716   6.019   2.934   0.520  1.5206  1.6318  0.9162
 9101TIP3   OH248717   4.088   6.669  10.885  0.2276  0.4469 -0.3825
 9101TIP3    H148718   4.131   6.701  10.806 -2.3666 -0.1900 -2.1054
 9101TIP3    H248719   4.025   6.737  10.908 -1.6650 -1.0307 -1.0682
 9102TIP3   OH248720   2.304   4.269  14.101 -0.3315 -0.1349 -0.3014
 9102TIP3    H148721   2.275   4.208  14.033 -0.4497 -0.3154 -0.0899
 9102TIP3    H248722   2.223   4.291  14.148 -0.1421 -0.5697  0.2362
 9103TIP3   OH248723   0.423   4.074   3.330 -0.3225  0.1594 -0.1643
 9103TIP3    H148724   0.502   4.040   3.288 -0.9440 -1.4627 -0.0248
 9103TIP3    H248725   0.377   4.120   3.259  0.0691 -0.0764 -0.5730
 9104TIP3   OH248726   0.773   0.912  11.455  0.7869  0.1110  0.0250
 9104TIP3    H148727   0.754   0.975  11.525  1.0112  0.7336 -0.4737
 9104TIP3    H248728   0.687   0.874  11.434  0.6296  0.3525  0.2241
 9105TIP3   OH248729   5.857   2.256  13.750  0.7931 -0.2199 -0.4586
 9105TIP3    H148730   5.775   2.276  13.704  0.8885  1.7300  0.1537
 9105TIP3    H248731   5.831   2.251  13.842  1.0874 -1.2719 -0.4292
 9106TIP3   OH248732   1.610   3.821   6.672  0.0215 -0.2521 -0.5942
 9106TIP3    H148733   1.522   3.821   6.710  0.3157  1.2687  0.1021
 9106TIP3    H248734   1.656   3.751   6.720 -1.0653 -1.6962 -1.6158
 9107TIP3   OH248735   4.897   3.030   2.129 -0.0786  0.0196  0.2339
 9107TIP3    H148736   4.958   2.965   2.096 -1.1107 -1.1380  0.5635
 9107TIP3    H248737   4.901   3.102   2.066  1.2201 -0.2732 -0.0195
 9108TIP3   OH248738   5.288   2.815  13.166  0.6094  0.0067  0.4781
 9108TIP3    H148739   5.289   2.749  13.096 -3.1167  0.4535 -0.0930
 9108TIP3    H248740   5.370   2.799  13.214  2.1077 -1.8754 -2.4929
 9109TIP3   OH248741   6.682   5.778   1.265  0.0159  0.2057 -0.2085
 9109TIP3    H148742   6.715   5.848   1.321 -1.0423 -0.4178  1.2207
 9109TIP3    H248743   6.650   5.711   1.326 -0.2752 -0.9086 -1.5516
 9110TIP3   OH248744   0.356   4.685  11.494 -0.2689 -0.2585 -0.1270
 9110TIP3    H148745   0.419   4.665  11.563  0.4722 -1.1283 -1.0369
 9110TIP3    H248746   0.380   4.626  11.422 -0.6442  1.0611 -1.3516
 9111TIP3   OH248747   6.162   6.609   4.742  0.5788  0.2174  0.3674
 9111TIP3    H148748   6.251   6.637   4.720  0.2060  0.7492 -0.4712
 9111TIP3    H248749   6.111   6.623   4.662 -0.2592 -0.1134  0.8305
 9112TIP3   OH248750   5.850   4.125  13.357  0.2655 -0.4213 -0.2028
 9112TIP3    H148751   5.864   4.070  13.280 -0.4714 -4.1446  2.1765
 9112TIP3    H248752   5.932   4.116  13.407  0.1910  0.7740  0.1348
 9113TIP3   OH248753   2.846   5.130   4.828 -0.1439  0.5757  0.1867
 9113TIP3    H148754   2.916   5.145   4.764 -1.3657 -0.0797 -1.3497
 9113TIP3    H248755   2.828   5.036   4.821 -1.4825  0.8269  0.2216
 9114TIP3   OH248756   5.724   4.012  15.434  0.2535  0.6130 -0.7102
 9114TIP3    H148757   5.641   3.964  15.423  0.3897  0.5285 -1.4268
 9114TIP3    H248758   5.700   4.103  15.418 -0.0039  0.7816  0.6488
 9115TIP3   OH248759   2.579   6.330  13.727  0.3354  0.1167 -0.0150
 9115TIP3    H148760   2.539   6.365  13.648 -0.7951  0.0090  0.5107
 9115TIP3    H248761   2.561   6.396  13.794 -2.0334 -1.5688  1.0473
 9116TIP3   OH248762   1.763   4.639  13.205  0.3055 -0.2535 -0.3574
 9116TIP3    H148763   1.787   4.611  13.294 -2.6947 -0.1002  0.5437
 9116TIP3    H248764   1.811   4.579  13.148  3.7207  0.7976  1.2856
 9117TIP3   OH248765   4.846   4.770  15.238 -0.4738 -0.2552  0.2188
 9117TIP3    H148766   4.779   4.712  15.199  0.8318 -0.7515 -1.3495
 9117TIP3    H248767   4.915   4.711  15.266  0.9046  0.5263 -1.4562
 9118TIP3   OH248768   3.883   2.281   0.079 -0.1603 -0.2371  0.5373
 9118TIP3    H148769   3.933   2.201   0.064  1.6551  1.1861 -1.1255
 9118TIP3    H248770   3.795   2.260   0.048  0.6167 -1.1675 -1.0672
 9119TIP3   OH248771   3.842   5.243   2.494 -0.2074 -0.3257 -0.3547
 9119TIP3    H148772   3.776   5.213   2.431 -0.3600  0.4265 -0.5587
 9119TIP3    H248773   3.812   5.207   2.578 -0.9213  0.0812 -0.4311
 9120TIP3   OH248774   1.883   0.312  10.762  0.2296  0.1952 -0.3049
 9120TIP3    H148775   1.842   0.353  10.686 -0.9533 -0.1064  0.1554
 9120TIP3    H248776   1.822   0.242  10.787  0.8003  0.0395  0.6719
 9121TIP3   OH248777   3.197   3.095  16.734  0.3217  0.1764  0.2080
 9121TIP3    H148778   3.161   3.183  16.727 -0.0300  0.2029  1.9485
 9121TIP3    H248779   3.275   3.096  16.679  0.3312  1.5850  0.2383
 9122TIP3   OH248780   6.467   0.650   4.840 -0.2837 -0.0656  0.4931
 9122TIP3    H148781   6.448   0.556   4.842 -0.1091 -0.1356 -0.9659
 9122TIP3    H248782   6.416   0.686   4.913 -2.5416 -0.9026 -0.6144
 9123TIP3   OH248783   5.454   2.479  14.146 -0.7540  0.6707  0.2078
 9123TIP3    H148784   5.539   2.520  14.156  0.1769 -0.5511 -2.2706
 9123TIP3    H248785   5.424   2.463  14.236  1.2159  1.9228  1.1118
 9124TIP3   OH248786   1.933   6.081   0.046  0.1739  0.1579  0.1007
 9124TIP3    H148787   1.894   6.048  -0.035  0.1508  0.6971 -0.1060
 9124TIP3    H248788   2.016   6.121   0.019 -0.0810  0.8031  0.2707
 9125TIP3   OH248789   4.102   2.339  13.625 -0.7121 -0.1531  0.4146
 9125TIP3    H148790   4.090   2.386  13.543 -1.0270 -0.3716  0.3353
 9125TIP3    H248791   4.036   2.269  13.623 -0.6976 -0.1813  0.8332
 9126TIP3   OH248792   5.441   5.419  12.100  0.5986  0.0753 -0.3680
 9126TIP3    H148793   5.424   5.485  12.166  0.7258  0.6106 -0.8644
 9126TIP3    H248794   5.485   5.466  12.029 -1.3093 -0.0849 -1.7035
 9127TIP3   OH248795   1.114   6.676   2.827  0.1383 -0.6047 -0.2737
 9127TIP3    H148796   1.135   6.585   2.807  2.0379 -0.4627  0.9512
 9127TIP3    H248797   1.139   6.724   2.748  1.6768 -0.8269  0.0631
 9128TIP3   OH248798   6.089   4.989   5.198 -0.3230  0.3983 -0.3417
 9128TIP3    H148799   6.145   4.990   5.121  0.3168 -1.5610  0.0619
 9128TIP3    H248800   6.008   5.033   5.170  0.8811  2.0432 -1.3207
 9129TIP3   OH248801   1.296   0.320  14.668  0.6038 -0.4529 -0.0997
 9129TIP3    H148802   1.282   0.389  14.604 -1.1867 -0.2336  0.5105
 9129TIP3    H248803   1.346   0.361  14.738  0.5669 -0.0831 -0.2924
 9130TIP3   OH248804   1.211   4.250  11.949  0.0519 -0.1193  0.6403
 9130TIP3    H148805   1.264   4.173  11.930 -0.0928 -0.0328 -0.1316
 9130TIP3    H248806   1.222   4.307  11.872 -0.0578  0.5024  1.0807
 9131TIP3   OH248807   5.527   6.625  11.245 -0.4409 -0.0774  0.4780
 9131TIP3    H148808   5.582   6.598  11.171 -0.4062 -0.8128  0.7704
 9131TIP3    H248809   5.476   6.698  11.211 -1.8155 -1.6307 -0.8528
 9132TIP3   OH248810   2.639   4.224   3.834  0.1001  0.4177 -0.4246
 9132TIP3    H148811   2.733   4.236   3.825  0.2496 -1.4522 -1.5253
 9132TIP3    H248812   2.623   4.133   3.809 -1.9322  0.5516  0.2634
 9133TIP3   OH248813   5.191   0.796  10.789  0.4252 -0.0163 -0.2100
 9133TIP3    H148814   5.260   0.860  10.773  0.1774  0.1914 -0.4576
 9133TIP3    H248815   5.138   0.798  10.709 -0.1920  0.2357  0.2086
 9134TIP3   OH248816   3.785   0.185  11.004  0.3906  0.3252  0.3105
 9134TIP3    H148817   3.801   0.112  11.064  2.4604 -0.1706 -0.7894
 9134TIP3    H248818   3.736   0.147  10.932 -0.5339  0.5399  0.8135
 9135TIP3   OH248819   1.590   6.167  12.451 -0.3414 -0.4064  0.0095
 9135TIP3    H148820   1.606   6.169  12.357 -0.0890 -1.5134  0.0280
 9135TIP3    H248821   1.506   6.211  12.462  0.5073  1.4098 -0.5337
 9136TIP3   OH248822   0.481   2.207   3.070 -0.1690 -0.4659 -0.2479
 9136TIP3    H148823   0.569   2.174   3.090 -0.4962 -1.5117 -0.5236
 9136TIP3    H248824   0.496   2.280   3.010  0.5261 -0.4100 -0.0200
 9137TIP3   OH248825   2.957   1.548  15.330  0.0690  0.4872 -0.6024
 9137TIP3    H148826   2.891   1.541  15.262  0.9169  1.2291 -1.5106
 9137TIP3    H248827   2.931   1.626  15.380 -0.3262  0.1754 -0.3207
 9138TIP3   OH248828   2.109   5.396  10.778 -0.5662 -0.2256 -0.3830
 9138TIP3    H148829   2.099   5.307  10.813  0.6027  0.4218  1.6401
 9138TIP3    H248830   2.195   5.395  10.736 -0.0622  0.2935  0.6507
 9139TIP3   OH248831   2.941   4.324  11.834 -0.4193  0.5575  0.0578
 9139TIP3    H148832   3.001   4.261  11.874  0.2192  0.1926 -1.4190
 9139TIP3    H248833   2.924   4.288  11.747 -3.9280 -0.0701  0.9330
 9140TIP3   OH248834   5.605   0.400  16.063 -0.1820  0.0841  0.4581
 9140TIP3    H148835   5.512   0.383  16.082  0.1073 -0.7893  1.1268
 9140TIP3    H248836   5.604   0.445  15.979 -1.2495  0.4936  0.6785
 9141TIP3   OH248837   5.426   5.774  15.287  0.7803  0.0060  0.2237
 9141TIP3    H148838   5.386   5.835  15.348  1.9303  0.1789  0.8300
 9141TIP3    H248839   5.363   5.766  15.215  0.4673  1.6159  0.3048
 9142TIP3   OH248840   3.796   5.123   2.787  0.5769 -0.1269 -0.9157
 9142TIP3    H148841   3.731   5.054   2.773  0.7717 -0.6406  0.5444
 9142TIP3    H248842   3.868   5.078   2.832  0.6833  1.0339  0.0860
 9143TIP3   OH248843   3.004   2.304  14.291 -0.4642  0.1919  0.4260
 9143TIP3    H148844   2.980   2.273  14.203 -1.5029 -0.6625  1.0068
 9143TIP3    H248845   3.059   2.381  14.274 -0.1224 -0.3379 -0.9832
 9144TIP3   OH248846   6.208   6.636  14.923 -0.1744 -0.3497  0.4585
 9144TIP3    H148847   6.212   6.652  15.017  0.3835  1.2076  0.1861
 9144TIP3    H248848   6.277   6.690  14.886 -1.0235 -0.1797 -0.9365
 9145TIP3   OH248849   3.237   0.757   5.937 -0.1699 -0.3827 -0.7703
 9145TIP3    H148850   3.266   0.667   5.947  2.0351  0.1423 -2.0124
 9145TIP3    H248851   3.272   0.785   5.853 -0.1011  1.8879 -0.0479
 9146TIP3   OH248852   5.490   0.128   1.634 -0.4886 -0.4438 -0.6470
 9146TIP3    H148853   5.444   0.073   1.571 -1.2519  1.5366 -1.8843
 9146TIP3    H248854   5.423   0.189   1.665  0.4683  0.1583  0.2588
 9147TIP3   OH248855   3.849   6.471   3.683 -0.3042 -0.4636 -0.1209
 9147TIP3    H148856   3.890   6.461   3.769 -0.4155 -1.4707 -0.1880
 9147TIP3    H248857   3.774   6.412   3.684 -1.2591  0.7278 -0.3213
 9148TIP3   OH248858   5.169   4.202   3.528 -0.2019 -0.5651  0.0302
 9148TIP3    H148859   5.226   4.126   3.514 -0.7060 -1.1742  1.2089
 9148TIP3    H248860   5.188   4.230   3.618  0.4806  1.1452 -0.6284
 9149TIP3   OH248861   1.726   2.327  11.413  1.0148  0.1865  0.0618
 9149TIP3    H148862   1.634   2.333  11.439  0.6111 -1.1808 -1.0003
 9149TIP3    H248863   1.723   2.293  11.324  2.5478  0.5308 -0.1349
 9150TIP3   OH248864   1.087   1.456  16.604 -0.2953 -0.0736  0.0660
 9150TIP3    H148865   1.179   1.430  16.605  0.5061  2.5633  3.5158
 9150TIP3    H248866   1.047   1.402  16.673 -0.8610  0.3381  0.0569
 9151TIP3   OH248867   5.250   0.276   1.677  0.2358  0.5173 -0.1533
 9151TIP3    H148868   5.185   0.342   1.651 -0.9619 -0.3310  0.6147
 9151TIP3    H248869   5.273   0.299   1.766 -0.0930 -0.0278  0.0741
 9152TIP3   OH248870   1.876   0.874   1.569  1.0317 -0.2285  0.3973
 9152TIP3    H148871   1.938   0.804   1.590  0.9297  0.1978  2.2027
 9152TIP3    H248872   1.790   0.835   1.587  0.9086 -0.0054  0.2892
 9153TIP3   OH248873   4.006   6.391  13.137 -0.1238 -0.0895 -0.4168
 9153TIP3    H148874   3.977   6.388  13.228 -0.0176 -0.3984 -0.3903
 9153TIP3    H248875   4.091   6.347  13.138  0.8621  1.7820 -0.2981
 9154TIP3   OH248876   2.730   6.404  11.021 -0.0162  0.4676 -0.1972
 9154TIP3    H148877   2.804   6.349  10.996 -0.1740  0.2057 -0.0920
 9154TIP3    H248878   2.676   6.408  10.942 -1.2559 -1.5514  0.4867
 9155TIP3   OH248879   2.507   4.599  12.264 -0.0801 -0.0375 -0.6021
 9155TIP3    H148880   2.521   4.582  12.171 -0.3404 -0.7395 -0.5151
 9155TIP3    H248881   2.576   4.550  12.308 -1.7911 -2.2012 -0.2654
 9156TIP3   OH248882   3.177   4.497   5.089 -0.2339 -0.1552  0.3584
 9156TIP3    H148883   3.116   4.509   5.016 -0.2150 -0.6048  0.2644
 9156TIP3    H248884   3.261   4.527   5.056 -0.5812  1.3109  0.7871
 9157TIP3   OH248885   3.708   0.945   5.004 -0.0014 -0.5358 -0.1813
 9157TIP3    H148886   3.678   1.035   4.994  0.2360 -0.4547 -0.1581
 9157TIP3    H248887   3.747   0.942   5.091  0.8480 -0.4176 -0.5502
 9158TIP3   OH248888   6.076   3.808   1.465 -0.8615 -0.5841 -0.0921
 9158TIP3    H148889   6.070   3.870   1.537 -1.2639  0.2181 -0.8021
 9158TIP3    H248890   6.165   3.774   1.469 -0.2321  1.0078 -0.4694
 9159TIP3   OH248891   2.316   3.153   5.182 -0.0289 -0.0571  0.5234
 9159TIP3    H148892   2.322   3.164   5.088 -0.6726  3.2566  0.8195
 9159TIP3    H248893   2.238   3.099   5.194  0.3465 -0.9266 -0.8554
 9160TIP3   OH248894   0.081   0.320   1.979  0.1032 -0.0371  0.0838
 9160TIP3    H148895   0.009   0.265   1.950 -1.8458  2.2576  0.4524
 9160TIP3    H248896   0.098   0.379   1.906  1.9582 -0.8353 -0.1774
 9161TIP3   OH248897   2.752   1.472  12.231  0.0163  0.4113 -0.1014
 9161TIP3    H148898   2.827   1.512  12.273 -0.3198  0.1317  0.7719
 9161TIP3    H248899   2.677   1.500  12.284 -0.3062 -0.6966  0.0365
 9162TIP3   OH248900   0.619   0.732   2.914  0.2833 -0.0602 -0.2021
 9162TIP3    H148901   0.671   0.780   2.979  0.3757 -1.6553  0.9324
 9162TIP3    H248902   0.683   0.705   2.848  0.6553 -0.7913  0.4562
 9163TIP3   OH248903   5.046   3.564  11.506  0.2333 -0.0494  0.5114
 9163TIP3    H148904   5.034   3.638  11.447 -0.9028  0.5752  1.5014
 9163TIP3    H248905   4.967   3.511  11.493  0.5688 -0.5637  0.5547
 9164TIP3   OH248906   0.240   3.758   4.360  0.2894  0.3048  0.4571
 9164TIP3    H148907   0.186   3.684   4.389 -0.8277  0.6742 -0.6054
 9164TIP3    H248908   0.177   3.827   4.339  1.2050  0.9405 -0.2890
 9165TIP3   OH248909   5.535   6.531   5.047 -0.2368 -0.5577 -0.3706
 9165TIP3    H148910   5.596   6.497   5.112 -0.8885  3.3035  2.4394
 9165TIP3    H248911   5.452   6.487   5.067  0.0324 -0.8221  0.1649
 9166TIP3   OH248912   6.145   3.675   0.657  0.4630 -0.3081  0.2708
 9166TIP3    H148913   6.141   3.661   0.752 -0.5184  0.6707  0.3847
 9166TIP3    H248914   6.236   3.656   0.634  0.8079 -0.1927  1.4759
 9167TIP3   OH248915   6.678   1.987   3.520 -0.1970  0.2621  0.5265
 9167TIP3    H148916   6.692   1.893   3.515  0.8726  0.4422 -0.1279
 9167TIP3    H248917   6.766   2.025   3.508 -0.6630  1.3387  0.4424
 9168TIP3   OH248918   4.240   5.854   5.541 -0.0477  0.0276  0.3185
 9168TIP3    H148919   4.334   5.867   5.557 -0.2093  2.2982 -0.5004
 9168TIP3    H248920   4.233   5.842   5.447 -0.3240 -2.7479  0.6482
 9169TIP3   OH248921   5.094   0.745   0.034  0.1992 -0.2371 -0.4081
 9169TIP3    H148922   5.081   0.716  -0.057  2.3404 -0.8073 -0.5493
 9169TIP3    H248923   5.180   0.787   0.034  0.3404 -0.4831  1.4093
 9170TIP3   OH248924   5.544   4.499  14.663  0.5684 -0.0294  0.3591
 9170TIP3    H148925   5.558   4.420  14.610  0.2678  0.3492 -0.2907
 9170TIP3    H248926   5.490   4.556  14.608  3.4292  1.9778 -0.5047
 9171TIP3   OH248927   4.996   2.029  12.503  0.2558  0.6151 -0.0751
 9171TIP3    H148928   5.051   2.079  12.443  0.5050 -1.2073 -1.4507
 9171TIP3    H248929   4.911   2.073  12.500 -0.1836 -0.2938 -3.0163
 9172TIP3   OH248930   5.620   6.134  14.126 -0.6739 -0.5162  0.4046
 9172TIP3    H148931   5.611   6.085  14.208 -1.5226  2.8462  2.3918
 9172TIP3    H248932   5.695   6.192  14.140  0.1915 -1.0412 -1.8298
 9173TIP3   OH248933   5.884   5.742   1.677  0.0962 -0.0296  0.0354
 9173TIP3    H148934   5.910   5.672   1.617  0.8994  0.0249  0.3213
 9173TIP3    H248935   5.864   5.697   1.759  0.4172  0.0562  0.1600
 9174TIP3   OH248936   3.624   1.851   3.202  0.0862 -0.2216  0.0037
 9174TIP3    H148937   3.566   1.921   3.171  2.0004  2.1089  1.4082
 9174TIP3    H248938   3.567   1.790   3.247 -1.5721  0.8182 -0.6529
 9175TIP3   OH248939   5.257   0.336  14.925  0.1199 -0.3839 -0.1382
 9175TIP3    H148940   5.247   0.418  14.877 -2.7379 -1.1280 -0.8953
 9175TIP3    H248941   5.324   0.288  14.877  1.1951  1.1441 -0.1893
 9176TIP3   OH248942   1.035   3.569  15.760 -0.7752  0.6796 -0.5471
 9176TIP3    H148943   1.104   3.582  15.825 -0.4657  0.4899 -0.8396
 9176TIP3    H248944   1.081   3.557  15.677 -1.0576 -1.9545 -0.3599
 9177TIP3   OH248945   5.411   5.442  16.326 -0.3131  0.4067  0.2596
 9177TIP3    H148946   5.444   5.358  16.357 -2.3084 -0.3092  0.4864
 9177TIP3    H248947   5.473   5.506  16.362  0.5234 -0.8546  1.1170
 9178TIP3   OH248948   0.224   1.525  12.205  0.0284 -0.1505 -0.5536
 9178TIP3    H148949   0.317   1.546  12.195  0.2439 -0.3909  0.8009
 9178TIP3    H248950   0.211   1.449  12.148  0.7520 -0.3381 -0.4824
 9179TIP3   OH248951   5.621   3.858  15.681  0.5048  0.2464 -0.0320
 9179TIP3    H148952   5.669   3.859  15.764 -1.3691  2.1445  1.0743
 9179TIP3    H248953   5.663   3.927  15.629  0.1880  0.6417  0.2332
 9180TIP3   OH248954   6.182   1.809  16.362 -0.0342  0.4551 -0.1429
 9180TIP3    H148955   6.228   1.772  16.438 -0.2149 -0.1035 -0.3007
 9180TIP3    H248956   6.097   1.835  16.397 -0.2027 -0.0112 -0.2002
 9181TIP3   OH248957   3.669   0.067  15.371  0.1939 -0.3935  0.6868
 9181TIP3    H148958   3.612  -0.009  15.381 -0.4740 -0.3174 -2.0596
 9181TIP3    H248959   3.757   0.034  15.391 -0.3837 -1.3273  1.7198
 9182TIP3   OH248960   1.623   6.604   3.337 -0.3528  0.0376  0.1526
 9182TIP3    H148961   1.548   6.584   3.280 -0.9462 -0.8434  1.2258
 9182TIP3    H248962   1.613   6.697   3.359 -1.3933 -0.1862  0.6556
 9183TIP3   OH248963   2.285   6.145   2.212  0.3265 -0.0160  0.3846
 9183TIP3    H148964   2.260   6.087   2.283 -0.6392 -0.4410 -0.2842
 9183TIP3    H248965   2.296   6.088   2.136 -0.6621  0.6498 -0.2844
 9184TIP3   OH248966   0.098   0.855  15.973  0.6654  0.0029 -0.4427
 9184TIP3    H148967   0.049   0.867  15.892 -0.6750  0.3525  0.4110
 9184TIP3    H248968   0.039   0.806  16.030 -0.0751  3.3746  1.8141
 9185TIP3   OH248969   5.418   3.169  14.934 -0.0860 -0.9996 -0.2704
 9185TIP3    H148970   5.410   3.119  15.015  1.3564 -0.5557  0.1586
 9185TIP3    H248971   5.507   3.151  14.904 -0.7152 -1.4129 -1.9270
 9186TIP3   OH248972   2.871   6.560   0.022  0.5411 -0.5550  0.2570
 9186TIP3    H148973   2.789   6.551   0.070 -0.9388 -1.0625 -2.2494
 9186TIP3    H248974   2.887   6.473  -0.015  0.9225  0.1226 -1.2255
 9187TIP3   OH248975   6.058   6.635   5.857 -0.3161  0.3771 -0.0872
 9187TIP3    H148976   6.150   6.610   5.845 -0.6343 -1.9063  1.7985
 9187TIP3    H248977   6.052   6.662   5.948 -1.2748  1.7668 -0.5471
 9188TIP3   OH248978   1.497   3.202  14.681  0.2974 -0.3235  0.0628
 9188TIP3    H148979   1.586   3.183  14.709  1.1399  0.7264 -1.7928
 9188TIP3    H248980   1.473   3.283  14.727  0.9757  0.3583 -0.7607
 9189TIP3   OH248981   3.994   0.573   3.877 -0.2641 -0.1107 -0.7224
 9189TIP3    H148982   3.918   0.628   3.856  0.9218  1.6470 -0.5599
 9189TIP3    H248983   4.047   0.628   3.935 -0.5622 -2.6345  2.0590
 9190TIP3   OH248984   2.826   3.306  11.280  0.6416  0.7087  0.3686
 9190TIP3    H148985   2.868   3.294  11.194 -0.2309  0.1643  0.0085
 9190TIP3    H248986   2.863   3.237  11.334  1.4407  1.2567  0.5265
 9191TIP3   OH248987   5.216   5.481   4.898 -0.6079  0.8717  0.2653
 9191TIP3    H148988   5.214   5.410   4.962  0.5308  1.1868  0.6582
 9191TIP3    H248989   5.139   5.534   4.919 -0.5749  0.6396  0.9824
 9192TIP3   OH248990   6.049   3.712   3.809  0.1752  0.3130 -0.2786
 9192TIP3    H148991   6.025   3.804   3.800 -0.9158  0.1550  0.7606
 9192TIP3    H248992   6.036   3.675   3.722  0.3242  1.0686 -0.6317
 9193TIP3   OH248993   4.946   5.779   0.184  0.2477 -0.1304  0.0504
 9193TIP3    H148994   4.941   5.684   0.178  2.0808 -0.3494  1.5459
 9193TIP3    H248995   4.993   5.806   0.105  2.7709 -0.8088  1.2578
 9194TIP3   OH248996   1.648   4.541  10.566 -0.2816 -0.3107 -0.0046
 9194TIP3    H148997   1.705   4.552  10.642 -0.5828  2.5227 -0.1147
 9194TIP3    H248998   1.671   4.456  10.530  2.6752  0.0586  0.9225
 9195TIP3   OH248999   3.522   1.397  17.096 -0.1908  0.2788 -0.1066
 9195TIP3    H149000   3.601   1.427  17.051 -0.4044  0.7345 -0.1807
 9195TIP3    H249001   3.550   1.318  17.143  0.2809  0.3729 -0.2235
 9196TIP3   OH249002   6.430   3.246  13.493 -0.4948  1.1119 -0.5602
 9196TIP3    H149003   6.394   3.180  13.434  0.3105  0.7661 -0.6722
 9196TIP3    H249004   6.461   3.316  13.435  0.0424  0.8978 -0.5323
 9197TIP3   OH249005   0.898   3.016   0.296 -0.1186 -0.3474 -0.2378
 9197TIP3    H149006   0.903   2.922   0.277 -0.1104 -0.1961 -1.0250
 9197TIP3    H249007   0.867   3.021   0.386 -0.1441 -1.1093 -0.2008
 9198TIP3   OH249008   5.909   6.382   0.125 -0.0465  1.1495  0.1204
 9198TIP3    H149009   5.898   6.301   0.074  1.0903 -0.3724  2.1816
 9198TIP3    H249010   5.872   6.361   0.210 -1.2515  3.4015  0.1744
 9199TIP3   OH249011   5.855   1.849   4.222 -0.2411 -0.3452 -0.3951
 9199TIP3    H149012   5.812   1.790   4.160 -0.4634  0.6186 -1.1642
 9199TIP3    H249013   5.946   1.853   4.193 -0.7349  1.5449 -1.7946
 9200TIP3   OH249014   1.993   6.400  11.233  0.2474  0.3786 -0.4745
 9200TIP3    H149015   1.970   6.435  11.147  0.8930  2.7071  0.2737
 9200TIP3    H249016   2.084   6.426  11.247  0.4186 -0.7098  0.5503
 9201TIP3   OH249017   0.878   6.028  14.163  0.3906 -0.9189 -0.8172
 9201TIP3    H149018   0.825   6.015  14.242  0.4320 -1.2454 -0.8450
 9201TIP3    H249019   0.814   6.030  14.092  0.1274  1.5163 -0.5696
 9202TIP3   OH249020   5.390   4.014  14.331  0.1637 -0.3740 -0.2335
 9202TIP3    H149021   5.475   3.972  14.319  0.2169  0.2243 -2.0560
 9202TIP3    H249022   5.400   4.100  14.291 -1.3858 -0.4019 -0.7074
 9203TIP3   OH249023   1.973   0.353   6.397  0.5641 -0.4467  0.4526
 9203TIP3    H149024   1.972   0.347   6.492 -0.3537 -1.5000  0.3845
 9203TIP3    H249025   1.943   0.442   6.378 -0.4618 -0.6508  1.1079
 9204TIP3   OH249026   1.579   5.708   2.561 -0.7327 -0.3249  0.2964
 9204TIP3    H149027   1.498   5.703   2.611  0.3452 -0.0628  2.1388
 9204TIP3    H249028   1.612   5.797   2.578 -0.7797  0.0674 -1.6023
 9205TIP3   OH249029   2.061   6.761  11.829 -0.7105 -0.5020 -0.1364
 9205TIP3    H149030   2.017   6.817  11.893 -1.3936  1.8824 -2.6035
 9205TIP3    H249031   1.990   6.725  11.776 -0.0552 -1.3492 -0.4452
 9206TIP3   OH249032   3.883   2.056   1.144 -0.5460  0.0453  0.1742
 9206TIP3    H149033   3.933   2.034   1.065 -1.0038 -2.6317  0.5965
 9206TIP3    H249034   3.794   2.073   1.111 -0.1691  1.3850 -0.1682
 9207TIP3   OH249035   3.846   0.384  12.709 -0.4326 -0.3385 -0.7628
 9207TIP3    H149036   3.845   0.291  12.686  3.2242 -0.9824  1.3077
 9207TIP3    H249037   3.807   0.388  12.796  1.0289 -0.2011 -0.1031
 9208TIP3   OH249038   5.559   4.956   3.626 -0.0902 -0.1790  0.1275
 9208TIP3    H149039   5.540   4.979   3.717 -0.5845 -1.7908  0.4579
 9208TIP3    H249040   5.640   5.002   3.605  0.6371 -0.6900  1.7491
 9209TIP3   OH249041   5.724   0.949   1.456 -0.4994 -0.1562 -0.2358
 9209TIP3    H149042   5.696   0.861   1.479  2.6822 -1.0133  0.5822
 9209TIP3    H249043   5.770   0.939   1.373 -2.2531  1.1539 -1.3951
 9210TIP3   OH249044   0.708   0.332   3.004 -0.0914 -0.4723  0.3163
 9210TIP3    H149045   0.749   0.246   3.011  1.0766  0.1185  0.9681
 9210TIP3    H249046   0.766   0.390   3.053 -0.8898  0.6799 -0.0768
 9211TIP3   OH249047   2.753   6.465   4.440  0.0466 -0.5434 -0.0407
 9211TIP3    H149048   2.814   6.408   4.393 -2.1095  0.2389 -3.9931
 9211TIP3    H249049   2.801   6.547   4.451  0.9126 -1.0415 -0.0472
 9212TIP3   OH249050   0.018   2.483   2.628 -0.1502  0.0520  0.1767
 9212TIP3    H149051   0.045   2.573   2.644  1.4602 -0.4216  0.2216
 9212TIP3    H249052   0.099   2.432   2.633 -0.9135 -1.2893 -0.7034
 9213TIP3   OH249053   1.045   4.156  13.289 -0.1304 -0.1213 -0.0764
 9213TIP3    H149054   1.139   4.140  13.283 -0.0536  1.2125 -2.8355
 9213TIP3    H249055   1.035   4.210  13.368  1.1890 -1.6712  1.1832
 9214TIP3   OH249056   6.126   3.758  11.760  0.1268  0.1242 -0.2709
 9214TIP3    H149057   6.085   3.706  11.690 -0.1211  0.8881 -0.6913
 9214TIP3    H249058   6.140   3.844  11.722 -0.5279  0.7142  0.7899
 9215TIP3   OH249059   0.178   4.312   1.170 -0.6205 -0.1924  0.3109
 9215TIP3    H149060   0.139   4.308   1.257  0.2186 -2.1061  0.6041
 9215TIP3    H249061   0.216   4.400   1.165  0.5053 -0.5501  2.3755
 9216TIP3   OH249062   5.819   5.921  14.775 -0.5896 -0.0932  0.5640
 9216TIP3    H149063   5.742   5.888  14.729 -1.6549 -1.6387  3.3538
 9216TIP3    H249064   5.786   5.991  14.831  0.7847  2.1466 -1.3465
 9217TIP3   OH249065   4.639   6.115   3.662  0.4627 -0.2709  0.2260
 9217TIP3    H149066   4.707   6.156   3.609  0.6044 -1.2515 -0.3655
 9217TIP3    H249067   4.560   6.118   3.608  0.5451 -1.0376  0.0536
 9218TIP3   OH249068   1.670   5.673  16.155 -0.1072  0.0941 -0.2950
 9218TIP3    H149069   1.742   5.617  16.183 -0.8144 -0.5523  0.2241
 9218TIP3    H249070   1.710   5.759  16.145  0.6200 -0.1416  0.5212
 9219TIP3   OH249071   6.705   1.821   1.117 -0.3294 -0.2909 -0.1861
 9219TIP3    H149072   6.687   1.859   1.203 -0.8659 -0.3495 -0.2669
 9219TIP3    H249073   6.706   1.726   1.133  1.1236 -0.2459  0.0368
 9220TIP3   OH249074   2.423   0.653  16.268 -0.0102  0.0385 -0.0217
 9220TIP3    H149075   2.450   0.602  16.191 -1.0930  0.9785 -1.0337
 9220TIP3    H249076   2.328   0.643  16.271 -0.0883  0.9167  0.5536
 9221TIP3   OH249077   5.832   3.285  15.208 -0.1236  0.4930  0.0176
 9221TIP3    H149078   5.835   3.308  15.115  3.2455 -0.3673 -0.1761
 9221TIP3    H249079   5.740   3.265  15.226 -1.1095  2.4122 -2.6809
 9222TIP3   OH249080   0.611   2.532  13.196  0.0970  0.0075  0.4606
 9222TIP3    H149081   0.553   2.577  13.258 -1.1197 -2.1835  0.9545
 9222TIP3    H249082   0.556   2.518  13.118  0.3592 -0.9285  0.4453
 9223TIP3   OH249083   2.125   3.807  12.933  0.2612 -0.5857 -0.6326
 9223TIP3    H149084   2.185   3.737  12.907  1.5281 -0.4787  1.7538
 9223TIP3    H249085   2.183   3.881  12.951 -0.5522 -0.4804  1.7048
 9224TIP3   OH249086   6.374   2.794   3.479  0.3468 -0.4193 -0.4306
 9224TIP3    H149087   6.378   2.796   3.383  2.4287 -0.1068 -0.3616
 9224TIP3    H249088   6.334   2.877   3.503  0.4916 -0.1792 -0.9990
 9225TIP3   OH249089   3.587   4.671   5.395 -0.1080  0.4764  0.0084
 9225TIP3    H149090   3.631   4.617   5.461  1.2820  1.6441  0.0804
 9225TIP3    H249091   3.658   4.720   5.354 -1.0764  0.4837 -1.6932
 9226TIP3   OH249092   0.502   2.012   1.167 -0.1590  0.2777  0.1711
 9226TIP3    H149093   0.489   2.100   1.202 -1.4145  0.1586  0.0523
 9226TIP3    H249094   0.595   1.994   1.181  0.7366  2.6547 -2.1897
 9227TIP3   OH249095   5.591   6.320  14.901  0.2825  0.2993  0.2521
 9227TIP3    H149096   5.667   6.341  14.846  0.0283 -2.1008 -1.0986
 9227TIP3    H249097   5.517   6.322  14.841 -0.4009  0.3454  1.0932
 9228TIP3   OH249098   1.333   2.562   1.996  0.1544  0.1949  0.2114
 9228TIP3    H149099   1.289   2.600   1.920  0.1806 -2.7237 -1.3342
 9228TIP3    H249100   1.313   2.622   2.068 -3.0101  1.0537 -1.3020
 9229TIP3   OH249101   2.374   2.494  13.296  0.2201 -1.0262 -0.1213
 9229TIP3    H149102   2.409   2.573  13.337 -1.6405  0.4910 -1.3647
 9229TIP3    H249103   2.400   2.501  13.204 -0.7102 -1.4144 -0.4208
 9230TIP3   OH249104   0.702   5.956  15.013 -0.5089  0.4228 -0.1947
 9230TIP3    H149105   0.786   6.001  15.002 -0.0159 -0.2616  0.7041
 9230TIP3    H249106   0.645   5.996  14.948  0.6197  0.6345 -1.0730
 9231TIP3   OH249107   5.402   4.744   3.889 -0.2735  0.3303 -0.3565
 9231TIP3    H149108   5.374   4.828   3.852 -2.2930  0.3134  1.0338
 9231TIP3    H249109   5.353   4.738   3.971 -1.1745 -2.8506 -1.0934
 9232TIP3   OH249110   3.202   2.771   3.973  0.2995 -0.4942  0.2324
 9232TIP3    H149111   3.166   2.694   3.930 -2.0269  0.2381  0.7615
 9232TIP3    H249112   3.162   2.845   3.928 -0.6557  0.3168  2.3154
 9233TIP3   OH249113   5.284   2.192  14.259  0.3347 -0.6989  0.2521
 9233TIP3    H149114   5.355   2.193  14.324  0.3081  0.5490  0.2727
 9233TIP3    H249115   5.329   2.186  14.174  0.4115 -1.1780  0.3248
 9234TIP3   OH249116   3.938   4.434   5.754 -0.2243  0.7208  0.8804
 9234TIP3    H149117   3.992   4.504   5.716  1.2383  0.2454  2.0145
 9234TIP3    H249118   4.001   4.367   5.779 -1.6273 -1.0835 -0.3027
 9235TIP3   OH249119   1.377   0.165  16.809 -0.0266 -0.1999 -0.0581
 9235TIP3    H149120   1.419   0.208  16.735  0.3534 -1.2223 -0.4516
 9235TIP3    H249121   1.408   0.213  16.886  0.6998 -0.0190 -0.4558
 9236TIP3   OH249122   2.495   2.712   2.713  0.1497 -0.2604 -0.1470
 9236TIP3    H149123   2.433   2.779   2.687  0.8044 -0.0635 -1.2137
 9236TIP3    H249124   2.545   2.693   2.634  0.6659 -1.2556  0.4047
 9237TIP3   OH249125   1.911   1.369  12.743 -0.5634 -1.0902 -0.2158
 9237TIP3    H149126   1.867   1.427  12.681  0.5933 -0.5622 -0.5569
 9237TIP3    H249127   1.974   1.321  12.690 -0.0643 -1.1576  0.4316
 9238TIP3   OH249128   0.970   3.818  15.554 -0.1671  0.5399 -0.0253
 9238TIP3    H149129   0.917   3.894  15.574 -1.5016 -0.5364  0.6247
 9238TIP3    H249130   0.963   3.762  15.631  1.8775  0.3352  0.0530
 9239TIP3   OH249131   4.692   6.583  15.629  0.2043 -0.0967 -0.0595
 9239TIP3    H149132   4.681   6.545  15.716 -0.3189 -1.7639 -0.8325
 9239TIP3    H249133   4.785   6.572  15.610  0.2936  0.1473  0.2425
 9240TIP3   OH249134   0.707   2.733   5.616 -0.1680  0.2343 -0.1532
 9240TIP3    H149135   0.697   2.770   5.528  0.9988  0.5984 -0.1316
 9240TIP3    H249136   0.706   2.638   5.601 -0.0741  0.2921 -0.5526
 9241TIP3   OH249137   4.747   1.907  15.299  0.1219  0.5352 -0.4440
 9241TIP3    H149138   4.764   1.843  15.368  1.9189  0.2518 -1.1143
 9241TIP3    H249139   4.800   1.877  15.224 -1.1778  1.2648 -1.6884
 9242TIP3   OH249140   0.194   4.118   0.281  0.1759  0.0421 -0.2520
 9242TIP3    H149141   0.240   4.040   0.310  1.6577  1.1955  0.5644
 9242TIP3    H249142   0.123   4.131   0.345 -0.6846 -1.1706 -0.9480
 9243TIP3   OH249143   1.452   2.868  11.828  0.3706 -0.2852  0.5676
 9243TIP3    H149144   1.429   2.827  11.745 -0.7363  1.2009  0.1102
 9243TIP3    H249145   1.495   2.950  11.804 -1.9038  1.2186  1.3979
 9244TIP3   OH249146   6.508   2.318   2.105 -0.0207 -0.1799  0.2184
 9244TIP3    H149147   6.433   2.265   2.133  0.9273 -1.0489  1.1595
 9244TIP3    H249148   6.583   2.260   2.115  0.8526  0.8744 -0.1651
 9245TIP3   OH249149   1.932   2.024  11.707  0.1253 -0.0319 -0.5095
 9245TIP3    H149150   2.000   2.079  11.669 -0.8553  1.3918 -0.2285
 9245TIP3    H249151   1.952   1.936  11.676  0.5178  0.7910 -2.6438
 9246TIP3   OH249152   1.372   2.305  16.793 -0.5745  0.1305  0.5679
 9246TIP3    H149153   1.352   2.398  16.781  0.8772  0.1280 -2.1360
 9246TIP3    H249154   1.464   2.304  16.820 -1.2055 -0.4417  2.8313
 9247TIP3   OH249155   1.089   3.864  13.058  0.1498 -0.1179  0.2596
 9247TIP3    H149156   1.115   3.777  13.027  1.1454  0.0908  0.5038
 9247TIP3    H249157   1.070   3.851  13.151 -0.4234 -0.2249  0.1311
 9248TIP3   OH249158   2.535   4.974  15.716 -0.1011 -0.2501  0.2131
 9248TIP3    H149159   2.562   5.055  15.673 -1.0412  0.2467  0.5264
 9248TIP3    H249160   2.487   4.926  15.648 -0.5119 -0.0316  0.3464
 9249TIP3   OH249161   3.291   2.880   5.068 -0.0219  0.2577 -0.6931
 9249TIP3    H149162   3.260   2.969   5.086 -0.2383 -0.0807  0.6057
 9249TIP3    H249163   3.235   2.823   5.121  1.3572 -0.5266 -0.0557
 9250TIP3   OH249164   6.298   0.558   0.258  0.2006 -0.6242  0.2360
 9250TIP3    H149165   6.345   0.519   0.331  0.6195  1.6554  1.2233
 9250TIP3    H249166   6.217   0.592   0.297  0.2678  0.2984 -0.4195
 9251TIP3   OH249167   4.515   5.589  13.628 -0.3041  0.6713 -0.6112
 9251TIP3    H149168   4.518   5.678  13.664  1.5765 -0.5506  2.5279
 9251TIP3    H249169   4.605   5.572  13.599  0.1345 -1.1836  1.6241
 9252TIP3   OH249170   0.628   0.281  13.803 -0.0378  0.2536  0.7988
 9252TIP3    H149171   0.608   0.361  13.754 -2.2853 -0.9031 -0.2302
 9252TIP3    H249172   0.543   0.248  13.831  0.9041 -1.4886  1.6949
 9253TIP3   OH249173   4.832   1.929   1.777  0.1770 -0.2282 -0.1704
 9253TIP3    H149174   4.863   1.986   1.707  2.0892  1.0910  1.6880
 9253TIP3    H249175   4.738   1.923   1.763  0.4260  0.6541 -2.3807
 9254TIP3   OH249176   1.765   2.336   2.775 -0.1196 -0.1237 -0.1767
 9254TIP3    H149177   1.802   2.351   2.689 -0.7427  2.0013 -0.1162
 9254TIP3    H249178   1.712   2.257   2.766  2.0925 -1.5459 -0.9784
 9255TIP3   OH249179   5.302   1.259  11.901  0.4426  0.2971  0.1042
 9255TIP3    H149180   5.376   1.201  11.921  0.3553 -0.0219 -0.4937
 9255TIP3    H249181   5.253   1.213  11.834 -0.1966  0.6015  0.3590
 9256TIP3   OH249182   4.537   0.715   4.041  0.4242 -0.0634  1.1694
 9256TIP3    H149183   4.500   0.716   4.129  1.8760  2.2201  1.7948
 9256TIP3    H249184   4.629   0.737   4.053  0.9645 -1.0851 -0.7941
 9257TIP3   OH249185   6.466   5.810   4.610 -0.7632 -0.2360  0.4225
 9257TIP3    H149186   6.505   5.736   4.657 -0.9781  0.9725  2.5867
 9257TIP3    H249187   6.541   5.859   4.577 -0.6243 -1.8162 -1.7600
 9258TIP3   OH249188   4.542   5.764  12.037 -0.2588 -0.4665 -0.3006
 9258TIP3    H149189   4.611   5.796  12.095 -0.2484  0.1214 -0.6297
 9258TIP3    H249190   4.461   5.783  12.085 -0.3858  2.1393 -1.4304
 9259TIP3   OH249191   2.301   0.294   0.533  0.1186 -0.0947  0.3197
 9259TIP3    H149192   2.268   0.258   0.450 -0.1115 -0.0399  0.3858
 9259TIP3    H249193   2.227   0.287   0.593  0.1226  0.3359  0.3766
 9260TIP3   OH249194   4.523   4.455   1.723 -0.1936 -0.3138  0.1205
 9260TIP3    H149195   4.477   4.448   1.640  0.8069 -0.3823 -0.4365
 9260TIP3    H249196   4.454   4.468   1.788 -0.9737 -0.2038 -0.7244
 9261TIP3   OH249197   0.804   5.533   6.152  0.3153  0.4751  0.4054
 9261TIP3    H149198   0.882   5.480   6.167 -0.4356 -0.8852 -0.4430
 9261TIP3    H249199   0.753   5.524   6.232 -0.4621 -1.2323 -0.2576
 9262TIP3   OH249200   6.025   0.300   3.746 -0.3524  0.7652 -0.1668
 9262TIP3    H149201   5.998   0.245   3.673  0.1461  1.1285 -0.6329
 9262TIP3    H249202   6.091   0.359   3.709 -1.0633  1.8529  0.2579
 9263TIP3   OH249203   1.588   1.627   4.202  0.8538 -0.4276 -0.1203
 9263TIP3    H149204   1.583   1.708   4.151  0.1445  0.8029  1.8771
 9263TIP3    H249205   1.517   1.573   4.169  1.5162 -0.3735 -1.6727
 9264TIP3   OH249206   2.066   4.843   2.584 -0.3438  0.5622 -0.0577
 9264TIP3    H149207   2.141   4.809   2.535 -0.5507  2.0633 -1.4875
 9264TIP3    H249208   2.063   4.791   2.664  1.0675 -0.7906 -0.8599
 9265TIP3   OH249209   5.227   6.686  16.756  0.0037  0.4111  0.5718
 9265TIP3    H149210   5.279   6.669  16.835 -0.5051 -2.0113  0.4167
 9265TIP3    H249211   5.138   6.696  16.788 -0.1686 -0.3449  0.3389
 9266TIP3   OH249212   1.811   6.533  16.752  0.6081 -0.1099  0.2047
 9266TIP3    H149213   1.882   6.575  16.800  0.7522  0.1428 -0.2333
 9266TIP3    H249214   1.741   6.599  16.751  0.2115 -0.4990  0.9837
 9267TIP3   OH249215   0.764   0.736  14.875 -0.0562 -0.4758  0.2616
 9267TIP3    H149216   0.730   0.649  14.898 -3.0087  0.6554  0.4433
 9267TIP3    H249217   0.714   0.761  14.797 -0.1998  1.6060  0.9785
 9268TIP3   OH249218   3.868   6.566   2.467 -0.0669  0.4564  0.0832
 9268TIP3    H149219   3.868   6.494   2.404 -0.9461  0.7479 -0.2691
 9268TIP3    H249220   3.776   6.572   2.495 -0.5949  3.2421 -1.9940
 9269TIP3   OH249221   4.836   6.140  12.679  0.0085 -0.3176  0.9554
 9269TIP3    H149222   4.814   6.179  12.594 -1.0150  0.5450  1.6006
 9269TIP3    H249223   4.911   6.189  12.710 -0.3134  0.1075  1.0583
 9270TIP3   OH249224   4.207   1.276   0.168  0.1165  0.0063  0.3957
 9270TIP3    H149225   4.219   1.210   0.236  1.5789  0.6050  0.7280
 9270TIP3    H249226   4.259   1.243   0.094  0.7858  0.7531  0.5369
 9271TIP3   OH249227   3.718   6.521  14.450  0.6155 -0.2297 -0.1717
 9271TIP3    H149228   3.736   6.580  14.377 -0.5718 -1.3094 -1.3474
 9271TIP3    H249229   3.765   6.441  14.427 -2.3806 -1.7036 -1.3523
 9272TIP3   OH249230   2.341   5.004  11.690 -0.3276  0.6726 -0.4864
 9272TIP3    H149231   2.376   5.041  11.610  0.5322 -0.4468 -0.6427
 9272TIP3    H249232   2.323   5.079  11.746 -0.1025  1.4051 -1.3930
 9273TIP3   OH249233   5.497   1.165  15.961 -0.3716 -0.1275 -0.3073
 9273TIP3    H149234   5.410   1.166  16.000 -0.2441 -0.1370 -0.0219
 9273TIP3    H249235   5.495   1.233  15.894 -0.2638  0.5990  0.4156
 9274TIP3   OH249236   2.983   5.237  14.491  0.2896 -0.3343  0.6925
 9274TIP3    H149237   3.019   5.232  14.580  1.0490 -0.2474  0.3853
 9274TIP3    H249238   2.920   5.310  14.495  0.9676  0.2429  0.9238
 9275TIP3   OH249239   2.708   2.413   4.345 -0.2255  0.2196  0.0040
 9275TIP3    H149240   2.673   2.366   4.421 -2.1900  1.1727 -0.2857
 9275TIP3    H249241   2.639   2.475   4.321  1.6359  2.0916 -0.6652
 9276TIP3   OH249242   2.300   1.737  16.112  0.0084  0.0764 -0.8069
 9276TIP3    H149243   2.362   1.700  16.175 -0.3211  0.9924  0.0630
 9276TIP3    H249244   2.214   1.714  16.147 -0.1882  1.1806 -0.5538
 9277TIP3   OH249245   4.432   3.833   4.607  0.1413  0.3496  0.2272
 9277TIP3    H149246   4.513   3.782   4.608 -0.0252  0.0898  1.6636
 9277TIP3    H249247   4.389   3.808   4.526 -0.1641 -2.1671  1.1056
 9278TIP3   OH249248   3.111   4.359  16.487  0.6666 -0.3099 -0.3464
 9278TIP3    H149249   3.102   4.453  16.497  0.2189 -0.3608 -0.2552
 9278TIP3    H249250   3.089   4.324  16.573  1.4358 -0.4625 -0.2024
 9279TIP3   OH249251   0.851   4.091   2.206  0.4373  0.7229 -0.9021
 9279TIP3    H149252   0.854   4.001   2.238  0.3032  0.5627 -1.3437
 9279TIP3    H249253   0.916   4.137   2.259  1.2020  0.1507 -1.3341
 9280TIP3   OH249254   6.369   4.863   1.413 -0.0676 -0.0903  0.6172
 9280TIP3    H149255   6.415   4.880   1.495  1.2528 -1.1823  0.1402
 9280TIP3    H249256   6.377   4.768   1.401 -1.2898 -0.0980 -0.1590
 9281TIP3   OH249257   4.779   6.355   1.036 -0.3551 -0.2139  0.4321
 9281TIP3    H149258   4.828   6.332   0.957 -0.5214  0.0218  0.2614
 9281TIP3    H249259   4.778   6.451   1.037  0.8046 -0.1974  1.4299
 9282TIP3   OH249260   4.748   6.360   3.195  0.0161  0.2193 -0.4986
 9282TIP3    H149261   4.783   6.429   3.138  1.9982  1.7973  2.5025
 9282TIP3    H249262   4.663   6.393   3.223  0.9927  1.5336  0.9887
 9283TIP3   OH249263   6.625   4.858  12.025  0.0755 -0.8254 -0.1006
 9283TIP3    H149264   6.680   4.859  11.947 -0.7269 -1.5956 -0.6858
 9283TIP3    H249265   6.638   4.944  12.065  2.2128 -1.2191  0.1249
 9284TIP3   OH249266   0.128   1.702  13.155 -0.4308 -0.3369 -0.0656
 9284TIP3    H149267   0.119   1.618  13.201  0.7567 -0.7627 -0.5855
 9284TIP3    H249268   0.202   1.745  13.197 -1.7191  0.9356  0.9129
 9285TIP3   OH249269   0.211   1.189   1.837 -0.7077 -0.3894  0.0617
 9285TIP3    H149270   0.298   1.166   1.869  0.0934  0.3933 -1.4752
 9285TIP3    H249271   0.197   1.130   1.762 -0.9292  0.3735 -0.5094
 9286TIP3   OH249272   3.663   6.003  17.235 -0.1525 -0.5388 -0.3350
 9286TIP3    H149273   3.568   6.000  17.245 -0.0027  0.3008  1.5700
 9286TIP3    H249274   3.696   6.009  17.324  1.6681 -0.1603 -1.0201
 9287TIP3   OH249275   2.867   1.997   2.718  0.5791  0.1500 -0.7447
 9287TIP3    H149276   2.865   1.909   2.757  0.8969 -0.0421 -1.1465
 9287TIP3    H249277   2.947   2.037   2.752 -0.0211  0.6127  0.1279
 9288TIP3   OH249278   3.624   0.784  15.632 -0.0727 -0.1111 -0.2233
 9288TIP3    H149279   3.578   0.783  15.548 -2.4833 -1.3532  1.0450
 9288TIP3    H249280   3.560   0.750  15.695  1.9686 -0.0510  1.9765
 9289TIP3   OH249281   2.471   4.521  11.641  0.1812 -0.2177 -0.2028
 9289TIP3    H149282   2.389   4.472  11.652 -0.6593  1.2288  0.1452
 9289TIP3    H249283   2.499   4.538  11.731  1.0742 -1.0272 -0.3227
 9290TIP3   OH249284   2.443   2.970  16.866  0.4890 -0.1538 -0.4105
 9290TIP3    H149285   2.478   2.977  16.954 -0.1955 -0.4163 -0.1139
 9290TIP3    H249286   2.464   3.054  16.825 -1.5650  1.0448  0.8880
 9291TIP3   OH249287   2.488   2.522  11.572 -0.0001  0.7869  0.2021
 9291TIP3    H149288   2.394   2.507  11.583  0.4530 -2.4805  0.2564
 9291TIP3    H249289   2.508   2.486  11.486  0.8870  3.3166 -0.6934
 9292TIP3   OH249290   5.235   1.447  15.293 -0.9780 -0.0623  0.2723
 9292TIP3    H149291   5.245   1.480  15.382  0.8284  1.2873 -0.3898
 9292TIP3    H249292   5.299   1.375  15.288 -0.3487  0.5250 -0.2259
 9293TIP3   OH249293   5.788   3.618  16.801  0.1887  0.2360  0.2841
 9293TIP3    H149294   5.821   3.679  16.734 -0.5077  1.1343  0.7552
 9293TIP3    H249295   5.703   3.654  16.826  0.8452  0.4304  2.3267
 9294TIP3   OH249296   4.180   4.164  15.470  0.5140  0.0001 -0.4825
 9294TIP3    H149297   4.230   4.213  15.536 -0.3534  0.9338 -0.5086
 9294TIP3    H249298   4.116   4.226  15.438  0.0310 -0.8773 -1.2260
 9295TIP3   OH249299   5.028   3.458  14.308  0.1247 -0.2354  0.0665
 9295TIP3    H149300   5.119   3.468  14.282 -0.6053  1.6626 -1.9927
 9295TIP3    H249301   5.024   3.493  14.397  1.6092 -1.4167  0.6044
 9296TIP3   OH249302   2.573   4.815  11.540 -0.4121 -0.5419 -0.1963
 9296TIP3    H149303   2.506   4.778  11.598 -1.5729  0.8183 -0.6400
 9296TIP3    H249304   2.525   4.840  11.461  0.3844  1.4965 -0.0654
 9297TIP3   OH249305   4.595   0.899   4.858  0.4409  0.1657  0.5309
 9297TIP3    H149306   4.648   0.914   4.936  2.3949  0.3897 -0.8201
 9297TIP3    H249307   4.651   0.848   4.801 -1.1925 -0.4792 -0.5026
 9298TIP3   OH249308   1.976   0.516   1.887 -0.1676  0.6285  0.0541
 9298TIP3    H149309   1.935   0.456   1.950  0.2027  0.5251  0.1956
 9298TIP3    H249310   2.070   0.505   1.900 -0.0920  0.8870 -0.2550
 9299TIP3   OH249311   3.445   3.784  12.973  0.3220 -0.0858  0.5720
 9299TIP3    H149312   3.442   3.810  13.065 -1.1753  5.0690 -0.7733
 9299TIP3    H249313   3.528   3.819  12.941  0.3312 -0.8953 -0.3071
 9300TIP3   OH249314   6.022   3.097   5.196 -0.3916  0.4286 -0.2797
 9300TIP3    H149315   6.093   3.118   5.257 -0.6790 -0.3919  0.3409
 9300TIP3    H249316   5.966   3.175   5.198  0.1640  0.8328 -0.3091
 9301TIP3   OH249317   1.207   6.545   0.584 -0.0756 -0.0090  0.1247
 9301TIP3    H149318   1.122   6.575   0.553  0.1203 -0.5752 -1.0101
 9301TIP3    H249319   1.220   6.461   0.540 -0.0525 -1.1408  2.2513
 9302TIP3   OH249320   2.382   1.808   5.754 -0.1781 -0.3985  1.0763
 9302TIP3    H149321   2.290   1.792   5.734 -0.0208  1.3229 -1.3185
 9302TIP3    H249322   2.386   1.901   5.778  0.9126 -0.4461  1.1218
 9303TIP3   OH249323   1.849   5.176  13.388 -0.1359  0.4441  0.2051
 9303TIP3    H149324   1.888   5.122  13.319 -1.0308  0.6859 -0.5000
 9303TIP3    H249325   1.911   5.171  13.461 -0.1653 -1.5003  0.1252
 9304TIP3   OH249326   4.764   2.567   2.101  0.1187  0.0459  0.0255
 9304TIP3    H149327   4.687   2.531   2.145 -0.6266  0.9158 -0.5429
 9304TIP3    H249328   4.777   2.512   2.024  0.9035 -0.9456  0.8511
 9305TIP3   OH249329   4.256   4.527  12.600 -0.2066  0.3907 -0.3869
 9305TIP3    H149330   4.327   4.471  12.634 -1.5934 -1.7045 -0.8673
 9305TIP3    H249331   4.249   4.597  12.665  0.7861 -0.6125  0.8594
 9306TIP3   OH249332   3.236   6.559  14.877  0.3492 -0.3618  0.0342
 9306TIP3    H149333   3.219   6.467  14.855 -0.3202 -0.1989 -0.1055
 9306TIP3    H249334   3.245   6.603  14.792  2.2966 -0.5986  0.0875
 9307TIP3   OH249335   2.639   4.728   1.993 -0.9468 -0.1761  0.2285
 9307TIP3    H149336   2.582   4.805   2.003  0.3940  0.9179 -0.3796
 9307TIP3    H249337   2.644   4.714   1.899  2.4878  1.8619  0.0166
 9308TIP3   OH249338   5.051   0.263   0.549  0.0872  0.4807 -0.2679
 9308TIP3    H149339   5.145   0.248   0.539 -0.5093 -2.5950 -1.7145
 9308TIP3    H249340   5.034   0.341   0.496  1.6048  0.3222 -1.0244
 9309TIP3   OH249341   0.949   3.043  16.154  0.3528  0.0651 -0.0526
 9309TIP3    H149342   0.872   3.064  16.100  0.5617 -1.0807 -0.8061
 9309TIP3    H249343   0.926   3.076  16.241 -0.8817 -0.0179 -0.3360
 9310TIP3   OH249344   0.114   4.648  12.416 -0.6452  0.4636 -0.8723
 9310TIP3    H149345   0.076   4.725  12.459 -0.7820  0.2114 -0.5357
 9310TIP3    H249346   0.204   4.673  12.396  0.1831 -0.2787  1.7911
 9311TIP3   OH249347   6.633   0.938  13.992  0.0338 -0.1672 -0.0737
 9311TIP3    H149348   6.668   0.910  13.908 -0.6437  0.5105 -0.5941
 9311TIP3    H249349   6.558   0.994  13.969 -0.5605 -0.5158  0.9895
 9312TIP3   OH249350   4.075   5.509  13.400  0.1612  0.2717 -0.6793
 9312TIP3    H149351   4.164   5.533  13.375  1.1133 -0.4733  1.8654
 9312TIP3    H249352   4.081   5.417  13.424 -1.3405  0.1776 -0.6288
 9313TIP3   OH249353   3.460   0.996   5.323  0.3179  0.2268  0.3048
 9313TIP3    H149354   3.554   1.001   5.307  0.2941  0.4368  0.2279
 9313TIP3    H249355   3.443   0.903   5.340  0.5822  0.2303  0.5930
 9314TIP3   OH249356   2.798   4.220   5.656  0.0169  0.5292 -0.3686
 9314TIP3    H149357   2.703   4.224   5.667  0.2096  0.3200  1.5131
 9314TIP3    H249358   2.824   4.140   5.702  1.1533  0.7955 -0.5404
 9315TIP3   OH249359   6.118   2.164   5.002  0.1175  0.2951  0.0298
 9315TIP3    H149360   6.195   2.195   4.954 -0.8570  0.4221 -1.4941
 9315TIP3    H249361   6.134   2.190   5.093  2.4069 -0.7262 -0.0474
 9316TIP3   OH249362   0.603   6.378   1.593 -0.2213 -0.3652 -0.1160
 9316TIP3    H149363   0.662   6.308   1.620  1.3172  1.0006  0.1743
 9316TIP3    H249364   0.588   6.363   1.500  1.7314  0.0599 -0.5138
 9317TIP3   OH249365   0.356   5.969  15.374  0.1924  0.0027  0.3920
 9317TIP3    H149366   0.437   5.933  15.410 -0.2248 -1.3822 -0.0238
 9317TIP3    H249367   0.373   5.976  15.280 -0.6449 -1.6522  0.0922
 9318TIP3   OH249368   5.559   4.418   2.478  0.4481  0.1140 -0.0303
 9318TIP3    H149369   5.541   4.398   2.386  0.6643 -0.9182  0.1405
 9318TIP3    H249370   5.493   4.368   2.527 -0.4951  1.6909  0.3273
 9319TIP3   OH249371   1.256   2.094   4.043 -0.1932 -0.1563  0.2188
 9319TIP3    H149372   1.223   2.049   3.965 -1.1489 -1.1406  1.1773
 9319TIP3    H249373   1.181   2.098   4.102  0.1287  1.9013  0.5178
 9320TIP3   OH249374   3.700   1.496   4.067 -0.2669 -0.1907  0.3917
 9320TIP3    H149375   3.621   1.465   4.024 -0.5486  0.4212  0.4722
 9320TIP3    H249376   3.669   1.540   4.146  0.2035 -0.7125  0.8722
 9321TIP3   OH249377   4.814   0.595   5.815  0.0657 -0.3788  0.4620
 9321TIP3    H149378   4.831   0.686   5.792 -2.0045 -0.2161 -0.5154
 9321TIP3    H249379   4.761   0.599   5.894  0.2274 -0.7481  0.5931
 9322TIP3   OH249380   1.064   3.265  12.679  0.1037 -0.6158 -0.0783
 9322TIP3    H149381   1.003   3.196  12.652 -0.3275  0.0654 -0.8447
 9322TIP3    H249382   1.009   3.335  12.711  0.5932 -1.2136  2.1650
 9323TIP3   OH249383   1.276   5.721   4.423 -0.0200 -0.3185 -0.0142
 9323TIP3    H149384   1.183   5.734   4.410 -0.0837  0.0729  0.7480
 9323TIP3    H249385   1.299   5.644   4.370 -0.8424 -0.6266  0.0799
 9324TIP3   OH249386   5.161   1.809  15.727  0.2672  0.3653 -0.1691
 9324TIP3    H149387   5.248   1.816  15.765  0.4250  0.3303 -0.5330
 9324TIP3    H249388   5.102   1.831  15.800  0.5369 -0.5226  0.3283
 9325TIP3   OH249389   0.360   2.283  11.119 -0.0202 -0.0252 -0.4674
 9325TIP3    H149390   0.447   2.268  11.156  0.0130 -0.1620 -0.6046
 9325TIP3    H249391   0.369   2.262  11.026  0.4842  2.5232 -1.0398
 9326TIP3   OH249392   2.753   2.531  11.616 -0.3657 -0.5364 -0.0741
 9326TIP3    H149393   2.804   2.514  11.537 -0.9808 -2.1973 -0.1263
 9326TIP3    H249394   2.663   2.537  11.586 -0.3148  1.8388  0.1033
 9327TIP3   OH249395   4.241   5.473  10.769  0.6111 -0.3166  0.3490
 9327TIP3    H149396   4.218   5.448  10.858  0.6483 -0.4045  0.3342
 9327TIP3    H249397   4.335   5.457  10.763  0.7939  0.6301  0.6087
 9328TIP3   OH249398   0.802   2.761   5.041  0.2222  0.4699  0.3081
 9328TIP3    H149399   0.718   2.745   4.998  0.0091  2.0887  0.0781
 9328TIP3    H249400   0.779   2.802   5.124  0.7083 -1.0342  1.1959
 9329TIP3   OH249401   4.497   3.014  12.999  0.1378 -1.2643 -0.3598
 9329TIP3    H149402   4.572   3.051  12.952 -1.7800  1.5615 -1.3573
 9329TIP3    H249403   4.535   2.963  13.070  2.9987  0.4586 -0.6067
 9330TIP3   OH249404   4.995   0.613   1.397  0.3299  0.4450  0.3441
 9330TIP3    H149405   5.058   0.595   1.327  0.5273 -1.0147  0.8849
 9330TIP3    H249406   4.986   0.708   1.397  1.4702  0.5651 -0.6682
 9331TIP3   OH249407   5.968   1.232   0.416 -0.0830  0.0567 -0.5334
 9331TIP3    H149408   6.005   1.313   0.453  0.7648 -1.2123  1.5039
 9331TIP3    H249409   5.873   1.248   0.414 -0.1566  0.3063  2.0539
 9332TIP3   OH249410   5.331   5.293   0.365  0.8477 -0.1661  0.3372
 9332TIP3    H149411   5.247   5.313   0.323  0.6109  2.2410  1.8741
 9332TIP3    H249412   5.316   5.210   0.410 -1.3943  1.2795  2.3439
 9333TIP3   OH249413   5.664   1.645  15.332  0.6960  0.5930 -0.0055
 9333TIP3    H149414   5.620   1.591  15.266  0.4978 -0.8942  1.3075
 9333TIP3    H249415   5.618   1.729  15.330 -1.2115 -0.4316  0.2803
 9334TIP3   OH249416   3.818   2.295  14.889 -0.0509  0.2437 -0.0505
 9334TIP3    H149417   3.734   2.273  14.930  0.6072  2.0514  2.3729
 9334TIP3    H249418   3.831   2.388  14.907  2.8335 -0.1699  0.2956
 9335TIP3   OH249419   2.501   3.772   3.061 -0.7066 -0.2117  0.0463
 9335TIP3    H149420   2.536   3.723   3.135  1.2078 -0.4679 -1.0296
 9335TIP3    H249421   2.408   3.782   3.082 -0.8584 -3.1226  0.9016
 9336TIP3   OH249422   5.678   4.264  13.535  0.4070 -0.2978 -0.2808
 9336TIP3    H149423   5.725   4.256  13.452  1.7798  1.5149  0.3084
 9336TIP3    H249424   5.739   4.229  13.601  0.8073  1.7176  0.4401
 9337TIP3   OH249425   2.076   6.421  16.256 -0.1544  0.6524  0.0906
 9337TIP3    H149426   2.074   6.327  16.274 -0.9630  0.4215 -1.1179
 9337TIP3    H249427   2.165   6.437  16.225  1.0585  0.9443  3.5070
 9338TIP3   OH249428   0.711   3.894   3.379 -0.1626  0.3299  0.6772
 9338TIP3    H149429   0.735   3.939   3.299 -1.1515  0.6370  0.5420
 9338TIP3    H249430   0.686   3.964   3.439 -1.7947 -0.0266  0.4392
 9339TIP3   OH249431   3.109   4.326  15.571 -0.7665  0.0368 -0.0367
 9339TIP3    H149432   3.045   4.254  15.569  0.1081 -0.7522 -0.2381
 9339TIP3    H249433   3.098   4.370  15.487 -0.0315 -1.0219 -0.7113
 9340TIP3   OH249434   1.009   1.316  12.914 -0.2589  0.0941  0.2860
 9340TIP3    H149435   0.998   1.223  12.894 -0.8393  0.0756  0.6679
 9340TIP3    H249436   1.099   1.325  12.943  0.3087 -0.0525 -1.3847
 9341TIP3   OH249437   2.406   6.378  16.750  0.1799 -0.4699  0.7213
 9341TIP3    H149438   2.330   6.374  16.808 -0.3121 -0.9059  0.0492
 9341TIP3    H249439   2.422   6.287  16.725  0.5868 -0.3161  0.4170
 9342TIP3   OH249440   5.480   2.170  12.885 -0.3373  0.2310 -0.5651
 9342TIP3    H149441   5.565   2.212  12.876 -0.6573  1.5900  2.0564
 9342TIP3    H249442   5.423   2.216  12.823 -0.0362  1.9733  0.3891
 9343TIP3   OH249443   3.981   5.882   5.615 -0.1935  0.1660  0.0782
 9343TIP3    H149444   4.075   5.878   5.600 -0.0198  0.2571  1.0857
 9343TIP3    H249445   3.955   5.969   5.586  0.1243  0.3219  0.2597
 9344TIP3   OH249446   1.746   3.109  12.669 -0.4280  0.1284  0.1280
 9344TIP3    H149447   1.779   3.146  12.587 -0.1142  0.8551  0.5755
 9344TIP3    H249448   1.663   3.069  12.645 -1.0280  1.5645 -0.2897
 9345TIP3   OH249449   0.880   1.337  11.653 -0.0735 -0.1962 -0.0767
 9345TIP3    H149450   0.825   1.259  11.650 -0.3028 -0.0202 -0.4239
 9345TIP3    H249451   0.862   1.383  11.571 -0.2692  0.4501  0.3305
 9346TIP3   OH249452   4.803   1.165   0.412 -0.4944 -0.7754  0.3070
 9346TIP3    H149453   4.766   1.197   0.330  1.3588 -1.4216 -0.8209
 9346TIP3    H249454   4.740   1.191   0.479 -2.3133 -0.7306 -1.3798
 9347TIP3   OH249455   1.760   4.718  13.694 -0.7145  0.0698  0.2325
 9347TIP3    H149456   1.794   4.633  13.664 -0.2613  0.4580 -0.3596
 9347TIP3    H249457   1.681   4.732  13.643 -1.1803 -0.3241  0.8390
 9348TIP3   OH249458   5.976   0.959  10.963 -0.2235 -0.1106 -0.1542
 9348TIP3    H149459   6.012   1.028  11.019 -1.6435  0.2558  0.3581
 9348TIP3    H249460   6.000   0.878  11.007  0.0509  0.1200  0.1277
 9349TIP3   OH249461   0.747   6.553  13.694  0.0434  0.2338  0.9641
 9349TIP3    H149462   0.744   6.493  13.619 -1.3991  0.9482  0.4335
 9349TIP3    H249463   0.756   6.640  13.654  0.9590  0.4840  1.6902
 9350TIP3   OH249464   4.158   0.985  10.719 -0.1008 -0.2580  0.5212
 9350TIP3    H149465   4.183   0.910  10.772  0.5882  0.7720  1.6963
 9350TIP3    H249466   4.063   0.977  10.708  0.2812 -2.4905 -1.2662
 9351TIP3   OH249467   4.930   0.864  16.375  0.2072 -0.3764 -0.8259
 9351TIP3    H149468   5.016   0.877  16.333 -0.1804 -2.6304 -2.3994
 9351TIP3    H249469   4.873   0.836  16.304 -0.9010 -2.6661  0.9124
 9352TIP3   OH249470   2.057   2.896   1.414 -0.2637 -0.6047  0.4943
 9352TIP3    H149471   2.105   2.974   1.387  0.2227 -0.6985  1.0995
 9352TIP3    H249472   2.102   2.824   1.370 -0.5406 -0.5767  0.1613
 9353TIP3   OH249473   2.402   3.322   0.616 -0.2086  0.4713  0.7998
 9353TIP3    H149474   2.483   3.365   0.640  0.2239  0.9898 -1.4240
 9353TIP3    H249475   2.426   3.265   0.543 -1.8408  0.7495  0.0147
 9354TIP3   OH249476   1.410   1.633  15.708 -0.2494 -0.0253 -0.6395
 9354TIP3    H149477   1.423   1.635  15.802 -0.5241 -2.6282 -0.5171
 9354TIP3    H249478   1.317   1.613  15.697  0.0408 -0.9937 -1.4334
 9355TIP3   OH249479   2.296   6.041  15.068  0.2800 -0.0198  0.5094
 9355TIP3    H149480   2.256   6.116  15.112  0.2726  0.5511 -0.4784
 9355TIP3    H249481   2.275   6.052  14.976  2.3589  0.0751  0.0219
 9356TIP3   OH249482   6.434   5.370  16.864 -0.2142 -0.2727 -0.3204
 9356TIP3    H149483   6.359   5.336  16.815 -1.1629  1.5093 -0.1538
 9356TIP3    H249484   6.406   5.457  16.892  1.4955 -0.0513  0.7380
 9357TIP3   OH249485   4.494   1.089   1.993 -0.0752  0.1595 -0.3339
 9357TIP3    H149486   4.536   1.161   2.041  0.2176 -0.2688  0.0505
 9357TIP3    H249487   4.402   1.115   1.987 -0.1636  0.0883  0.6855
 9358TIP3   OH249488   4.912   2.871  14.554  0.1242  0.0689  0.5425
 9358TIP3    H149489   4.935   2.828  14.637  0.0228  0.9176  1.0193
 9358TIP3    H249490   4.941   2.961  14.565  0.4318  0.0955 -0.4957
 9359TIP3   OH249491   0.018   2.223   5.810  0.0659 -0.5151  0.0692
 9359TIP3    H149492   0.079   2.206   5.739  1.1076 -0.3163  0.9006
 9359TIP3    H249493   0.028   2.316   5.828 -2.7367  0.2161 -1.8329
 9360TIP3   OH249494   2.818   3.872  15.712 -0.1671  0.6353  0.1335
 9360TIP3    H149495   2.823   3.881  15.616  0.8701  3.7409  0.4199
 9360TIP3    H249496   2.743   3.925  15.737  0.4762  1.0724  1.1740
 9361TIP3   OH249497   6.659   4.716   1.806 -0.2970 -0.4707  0.0056
 9361TIP3    H149498   6.601   4.766   1.749 -0.0423  0.5946  0.6572
 9361TIP3    H249499   6.633   4.743   1.894  0.4714 -0.7963  0.3271
 9362TIP3   OH249500   3.455   4.599   4.745 -0.1898  0.1081  0.5535
 9362TIP3    H149501   3.381   4.655   4.723  1.1517  0.5270 -3.2291
 9362TIP3    H249502   3.420   4.510   4.741 -0.5591  0.3077 -1.1285
 9363TIP3   OH249503   5.352   4.034  11.544  0.7889 -0.5194  0.2915
 9363TIP3    H149504   5.284   4.074  11.598 -1.6399 -2.0286 -1.5091
 9363TIP3    H249505   5.367   3.948  11.582  4.5919  1.2091  2.9883
 9364TIP3   OH249506   4.106   1.972  15.514 -0.6886  0.7738  0.5840
 9364TIP3    H149507   4.050   1.938  15.583  0.4881  0.0682  1.2001
 9364TIP3    H249508   4.063   1.945  15.433  0.0910 -2.0017  1.0423
 9365TIP3   OH249509   4.405   6.468  12.719  0.5569  0.0719 -0.2685
 9365TIP3    H149510   4.431   6.556  12.746  1.4980 -0.2607 -0.0807
 9365TIP3    H249511   4.309   6.470  12.719  0.5422  0.5239  1.6171
 9366TIP3   OH249512   0.476   0.035  12.392 -0.2871 -0.0855 -0.0939
 9366TIP3    H149513   0.453  -0.013  12.312  0.2094  1.5073 -1.2074
 9366TIP3    H249514   0.483   0.126  12.365 -1.3117  0.6623  2.0213
 9367TIP3   OH249515   4.561   0.848   0.962  0.7050 -0.3881 -0.4183
 9367TIP3    H149516   4.617   0.777   0.933  0.8914 -0.9211  1.1784
 9367TIP3    H249517   4.604   0.882   1.040 -0.1969  0.4474 -0.2738
 9368TIP3   OH249518   1.481   5.281   5.666 -0.1288 -0.2992  0.2207
 9368TIP3    H149519   1.406   5.222   5.667 -0.2979 -0.0994 -0.3931
 9368TIP3    H249520   1.499   5.299   5.759 -1.6365  0.6513  0.3370
 9369TIP3   OH249521   5.617   3.406  16.955  0.2091 -0.0545 -0.2563
 9369TIP3    H149522   5.639   3.492  16.918 -0.5236 -1.0215 -3.1138
 9369TIP3    H249523   5.576   3.426  17.039  0.0795  2.4134 -0.8657
 9370TIP3   OH249524   3.361   1.222   1.204  0.1694  0.6560 -0.3888
 9370TIP3    H149525   3.348   1.261   1.118  0.3311 -1.0756 -1.2210
 9370TIP3    H249526   3.421   1.150   1.188  0.8514  0.8240  1.3253
 9371TIP3   OH249527   5.938   3.563   3.130 -0.0995 -0.3287  0.0922
 9371TIP3    H149528   5.898   3.645   3.160 -0.1238 -0.3860  0.2147
 9371TIP3    H249529   5.985   3.530   3.207 -0.9231 -0.9560  0.3364
 9372TIP3   OH249530   6.571   2.382  13.072  0.2081 -0.0691 -0.0056
 9372TIP3    H149531   6.624   2.433  13.133 -0.8597  1.1646 -0.0919
 9372TIP3    H249532   6.516   2.327  13.128  0.6971 -0.4432  0.1051
 9373TIP3   OH249533   1.706   1.589  16.896  0.4666  0.5583 -0.3484
 9373TIP3    H149534   1.678   1.499  16.879  0.8079  0.8756 -2.7529
 9373TIP3    H249535   1.630   1.631  16.937  0.8287 -1.2090  2.2662
 9374TIP3   OH249536   6.550   0.314  16.415  0.0130  0.4935 -0.2013
 9374TIP3    H149537   6.472   0.266  16.443  0.5881 -0.1720  0.2845
 9374TIP3    H249538   6.520   0.367  16.341 -0.9266  0.3379  0.0626
 9375TIP3   OH249539   1.618   0.550   3.162  0.0482 -0.0328  0.5870
 9375TIP3    H149540   1.619   0.598   3.079  0.5415  1.0817  1.2243
 9375TIP3    H249541   1.530   0.564   3.197 -0.4068 -1.1254 -0.0915
 9376TIP3   OH249542   1.836   6.201   0.951  0.2313  0.2947  0.2580
 9376TIP3    H149543   1.900   6.133   0.928 -2.9673 -2.5911 -0.4404
 9376TIP3    H249544   1.815   6.243   0.868 -0.2201 -0.0559  0.1955
 9377TIP3   OH249545   4.909   2.828   4.995  0.0843 -0.0626  0.2955
 9377TIP3    H149546   4.917   2.744   4.950  2.0575  0.8704 -1.1801
 9377TIP3    H249547   4.938   2.810   5.084  0.8463 -0.8949 -0.1108
 9378TIP3   OH249548   4.832   2.709  13.524  0.1442 -0.2852  0.4618
 9378TIP3    H149549   4.774   2.683  13.452 -0.3321 -0.1899  0.8115
 9378TIP3    H249550   4.790   2.673  13.603  0.8232 -0.6510  0.6559
 9379TIP3   OH249551   3.681   3.766  14.497 -0.9601 -0.5759  0.3649
 9379TIP3    H149552   3.717   3.693  14.547 -1.6866 -0.1502  1.5368
 9379TIP3    H249553   3.696   3.843  14.553 -2.2154 -0.1692  0.1677
 9380TIP3   OH249554   6.061   6.676   6.138 -0.4851 -0.1230  0.4072
 9380TIP3    H149555   6.094   6.661   6.227  1.9274 -0.4010 -0.4895
 9380TIP3    H249556   6.078   6.769   6.122  0.4332 -0.4101 -0.2879
 9381TIP3   OH249557   4.347   4.278  14.378 -0.3688 -0.1281  0.2210
 9381TIP3    H149558   4.337   4.188  14.346 -1.2153  0.1313 -0.2480
 9381TIP3    H249559   4.402   4.321  14.314  1.8364 -0.8893  1.5514
 9382TIP3   OH249560   5.712   0.694  13.515  0.6179  0.0422  0.0730
 9382TIP3    H149561   5.635   0.744  13.490  2.5801  1.3543 -3.6278
 9382TIP3    H249562   5.741   0.734  13.597 -1.2463  1.0679  0.2574
 9383TIP3   OH249563   5.257   1.740   4.439 -0.1327  0.0157 -0.3934
 9383TIP3    H149564   5.301   1.822   4.463  1.5864 -1.2103  0.8199
 9383TIP3    H249565   5.176   1.767   4.396  0.6443  2.3439 -0.4445
 9384TIP3   OH249566   4.451   6.042  11.854 -0.5120 -0.0855  0.3906
 9384TIP3    H149567   4.373   6.097  11.861  0.3478  0.9128  2.5295
 9384TIP3    H249568   4.417   5.953  11.847 -1.8668  0.4604 -0.2524
 9385TIP3   OH249569   6.558   5.996   4.221 -0.1036 -0.2120  0.8431
 9385TIP3    H149570   6.589   5.924   4.276  0.4846  0.2746  1.1514
 9385TIP3    H249571   6.572   6.074   4.274 -0.9536  0.1155  0.5995
 9386TIP3   OH249572   5.322   3.825  13.298 -0.3144  0.0991  0.2647
 9386TIP3    H149573   5.404   3.867  13.271 -0.5716  0.4027 -0.0571
 9386TIP3    H249574   5.327   3.822  13.393  0.0567  0.1515  0.2480
 9387TIP3   OH249575   6.020   6.407  14.452  0.2275  0.1161  0.4287
 9387TIP3    H149576   6.027   6.367  14.539 -1.3715 -1.5344 -0.1627
 9387TIP3    H249577   6.033   6.501  14.468 -1.9958  0.0835  2.7434
 9388TIP3   OH249578   2.764   3.730   4.285 -0.1507 -0.0805 -0.4641
 9388TIP3    H149579   2.701   3.801   4.298  0.4761  0.1754  1.3056
 9388TIP3    H249580   2.849   3.773   4.282 -0.0811 -0.3073 -3.9538
 9389TIP3   OH249581   4.424   3.804   1.223 -0.1878 -0.1784  0.1975
 9389TIP3    H149582   4.341   3.788   1.177  0.1335 -0.6802 -0.2125
 9389TIP3    H249583   4.428   3.735   1.289 -0.6417  0.5320  0.9767
 9390TIP3   OH249584   4.644   3.067   2.266  0.5650 -0.2471 -0.4354
 9390TIP3    H149585   4.726   3.080   2.217  0.7412 -0.8259 -0.2936
 9390TIP3    H249586   4.639   2.973   2.280  0.2070 -0.1438  0.1408
 9391TIP3   OH249587   5.867   6.012   3.338 -0.0753 -0.4568 -0.1648
 9391TIP3    H149588   5.926   5.944   3.304  0.3610 -0.2620  0.2213
 9391TIP3    H249589   5.877   6.008   3.433  0.1045  0.2931 -0.1512
 9392TIP3   OH249590   6.190   2.331  14.827  0.4874 -0.2349  0.1994
 9392TIP3    H149591   6.105   2.314  14.869 -0.3885  1.2079 -0.9387
 9392TIP3    H249592   6.203   2.257  14.768 -0.3263 -0.1074 -0.1469
 9393TIP3   OH249593   0.239   5.302  16.578 -0.0542 -0.0133 -0.2509
 9393TIP3    H149594   0.182   5.249  16.633  1.1802 -2.1332 -0.9801
 9393TIP3    H249595   0.226   5.392  16.610 -0.6338 -0.9719  2.3413
 9394TIP3   OH249596   5.052   6.657  13.946 -0.1128  0.2621  0.0622
 9394TIP3    H149597   4.988   6.697  13.887  0.1170 -0.8210 -0.9291
 9394TIP3    H249598   5.071   6.572  13.908  1.4563  0.3069  0.6875
 9395TIP3   OH249599   5.744   5.287   2.616 -0.7196  0.2005  0.8085
 9395TIP3    H149600   5.742   5.238   2.699 -1.1008  0.1645  0.7821
 9395TIP3    H249601   5.723   5.222   2.550 -1.2813  0.4112  0.7793
 9396TIP3   OH249602   6.707   3.328   3.938  0.6921 -0.2569 -0.2349
 9396TIP3    H149603   6.741   3.396   3.996 -1.9780  0.6451  0.3371
 9396TIP3    H249604   6.664   3.266   3.996  0.4669 -0.8533 -1.0314
 9397TIP3   OH249605   1.617   0.891   2.518  0.3433  0.2498  0.0930
 9397TIP3    H149606   1.704   0.904   2.556  0.0959 -0.8588  1.0584
 9397TIP3    H249607   1.561   0.953   2.564  0.3569  0.0200  0.4200
 9398TIP3   OH249608   3.998   0.026   4.667  0.3870  0.1490 -0.1939
 9398TIP3    H149609   4.056  -0.013   4.602  2.0677  1.8298  0.2593
 9398TIP3    H249610   4.043   0.106   4.695 -0.5347 -0.2554  2.6280
 9399TIP3   OH249611   4.156   4.686   2.836  0.1852 -0.0603 -0.0970
 9399TIP3    H149612   4.083   4.670   2.776  0.4482 -0.7674 -0.2360
 9399TIP3    H249613   4.213   4.747   2.789  0.8899 -1.3755 -0.9907
 9400TIP3   OH249614   0.811   4.660  13.087 -0.1086 -0.3932  0.6283
 9400TIP3    H149615   0.817   4.591  13.153 -3.2461 -1.9036 -0.5452
 9400TIP3    H249616   0.848   4.620  13.008 -0.2969 -0.1222  0.4031
 9401TIP3   OH249617   5.365   5.647   0.346  0.1085  0.1093 -0.3905
 9401TIP3    H149618   5.365   5.644   0.250 -0.9782  0.0093 -0.3985
 9401TIP3    H249619   5.341   5.737   0.367 -2.7684 -0.6277 -0.2419
 9402TIP3   OH249620   1.430   5.225   2.234  0.0489 -0.6660  0.4454
 9402TIP3    H149621   1.488   5.280   2.182 -0.6137  0.5331  0.9441
 9402TIP3    H249622   1.451   5.247   2.325 -0.7241 -0.7028  0.6395
 9403TIP3   OH249623   4.970   1.588   4.835  0.3123 -0.1199 -0.1055
 9403TIP3    H149624   5.055   1.575   4.793  0.7310 -0.5038  0.8475
 9403TIP3    H249625   4.918   1.633   4.769  1.5193  0.8795 -0.4053
 9404TIP3   OH249626   4.855   6.163   1.251 -0.5112  0.2924 -0.4094
 9404TIP3    H149627   4.820   6.234   1.197 -0.7157 -0.5727 -1.4290
 9404TIP3    H249628   4.838   6.084   1.200  2.1525 -0.2332 -0.5197
 9405TIP3   OH249629   0.597   6.311  13.738 -0.1222  0.0963  0.1370
 9405TIP3    H149630   0.692   6.308  13.726  0.0935 -0.2440  1.9038
 9405TIP3    H249631   0.570   6.388  13.687  0.6150 -1.8166 -3.3338
 9406TIP3   OH249632   0.973   3.618   5.028  0.1084  0.2475  0.0747
 9406TIP3    H149633   1.039   3.652   4.967  1.3959 -2.3545 -0.0509
 9406TIP3    H249634   0.962   3.527   5.003 -0.5410 -0.4441  2.7117
 9407TIP3   OH249635   3.398   5.019  16.463 -0.5063  0.3666 -0.2612
 9407TIP3    H149636   3.389   5.076  16.386 -2.5700  0.5992  0.1234
 9407TIP3    H249637   3.320   5.037  16.516 -0.0177 -1.1079  1.0068
 9408TIP3   OH249638   0.657   4.637   2.923  0.0099  0.6642 -0.1548
 9408TIP3    H149639   0.640   4.731   2.915 -0.2907  0.8825  2.4683
 9408TIP3    H249640   0.752   4.630   2.925  0.0393  1.2071  2.0939
 9409TIP3   OH249641   2.805   5.838   0.464  0.7732 -0.2940  0.7030
 9409TIP3    H149642   2.764   5.839   0.377  1.9911  2.8724  0.1072
 9409TIP3    H249643   2.881   5.781   0.454  0.9408  0.1054 -0.3242
 9410TIP3   OH249644   3.935   2.040  12.379 -0.3636 -0.8011 -0.2554
 9410TIP3    H149645   4.024   2.055  12.348 -0.6900 -0.5572 -1.1020
 9410TIP3    H249646   3.931   1.945  12.395 -0.1620 -0.9279 -0.9173
 9411TIP3   OH249647   5.198   5.557  13.736 -0.2899  0.0486 -0.0982
 9411TIP3    H149648   5.140   5.571  13.810 -0.8915  0.6217 -0.6640
 9411TIP3    H249649   5.246   5.640  13.727  0.6970 -0.4603  0.4366
 9412TIP3   OH249650   4.317   4.623  14.823  0.0369  0.2684 -0.0643
 9412TIP3    H149651   4.337   4.583  14.907  0.1778  0.0292 -0.2130
 9412TIP3    H249652   4.383   4.588  14.763 -1.7037 -1.6982 -0.8938
 9413TIP3   OH249653   4.638   0.241   5.374 -0.0958  0.4636 -0.0274
 9413TIP3    H149654   4.544   0.242   5.359 -0.0496 -0.5975 -0.4257
 9413TIP3    H249655   4.657   0.152   5.403  0.6343  0.9576  1.0557
 9414TIP3   OH249656   5.304   5.363  13.902  0.4058  0.5815  0.5690
 9414TIP3    H149657   5.384   5.361  13.850  0.5614 -0.0560  0.8236
 9414TIP3    H249658   5.237   5.395  13.842  0.2210 -1.7697 -0.5570
 9415TIP3   OH249659   2.202   5.994   3.438 -0.2954 -0.3848 -0.1104
 9415TIP3    H149660   2.165   6.017   3.352  1.0921  0.4451 -0.4953
 9415TIP3    H249661   2.227   6.078   3.476  2.9055 -1.0282 -0.6360
 9416TIP3   OH249662   3.084   1.257  14.072  0.4713 -0.0888 -0.4429
 9416TIP3    H149663   3.167   1.242  14.117  0.3123  0.9475  0.2156
 9416TIP3    H249664   3.018   1.259  14.141  0.0198 -0.0101 -0.8707
 9417TIP3   OH249665   1.799   5.218  12.126 -0.1377 -0.1199  0.6618
 9417TIP3    H149666   1.877   5.183  12.169  0.0466  0.3182  0.6871
 9417TIP3    H249667   1.833   5.283  12.065 -0.4843  0.0580  0.6586
 9418TIP3   OH249668   4.740   0.929  16.164 -0.2049  0.2478 -0.0520
 9418TIP3    H149669   4.764   1.007  16.113  0.1800 -0.5064 -1.0427
 9418TIP3    H249670   4.648   0.913  16.141 -0.3954  0.6189  0.4360
 9419TIP3   OH249671   0.406   2.066  14.712 -0.0102 -0.1811  0.1626
 9419TIP3    H149672   0.478   2.002  14.712  0.8284  0.7103 -1.8720
 9419TIP3    H249673   0.407   2.104  14.800  0.3013 -2.0540  0.9861
 9420TIP3   OH249674   0.975   2.406  16.160 -0.2757  0.0687 -0.1093
 9420TIP3    H149675   0.918   2.392  16.084 -0.1632  0.2625 -0.2274
 9420TIP3    H249676   0.924   2.373  16.234 -0.3980 -0.0922 -0.2647
 9421TIP3   OH249677   3.474   6.234   3.654  0.5071 -0.0714  0.2433
 9421TIP3    H149678   3.560   6.224   3.612 -0.0039 -1.0485 -0.5994
 9421TIP3    H249679   3.455   6.146   3.689 -0.4470 -0.0195 -0.1516
 9422TIP3   OH249680   3.185   3.495   0.003  0.0436 -0.7055  0.2411
 9422TIP3    H149681   3.156   3.511  -0.087 -0.4958 -0.4757  0.4560
 9422TIP3    H249682   3.133   3.420   0.032 -0.9887  0.2611  0.9248
 9423TIP3   OH249683   1.454   0.992   6.334 -0.4525  0.0758 -0.1072
 9423TIP3    H149684   1.549   0.979   6.332 -0.4592  0.0210 -0.0747
 9423TIP3    H249685   1.443   1.072   6.386 -0.5169 -0.9386  1.5005
 9424TIP3   OH249686   5.265   6.656  17.012 -0.2828 -0.6211 -0.3219
 9424TIP3    H149687   5.293   6.604  17.088  1.9238 -0.3449 -0.8940
 9424TIP3    H249688   5.252   6.744  17.047  2.4424 -0.0857 -0.5282
 9425TIP3   OH249689   6.220   3.943  15.992  0.1902  0.6585 -0.1675
 9425TIP3    H149690   6.302   3.900  16.016  0.0068  0.7872  0.7061
 9425TIP3    H249691   6.243   4.035  15.984  0.0674  0.7447  0.4187
 9426TIP3   OH249692   5.529   1.635  15.871 -0.0257 -0.5453 -0.0094
 9426TIP3    H149693   5.621   1.658  15.885 -0.2521  0.2056  0.2642
 9426TIP3    H249694   5.483   1.719  15.876 -0.7938 -0.9929  0.4182
 9427TIP3   OH249695   2.048   5.699   4.965  0.6361  0.1785  0.4288
 9427TIP3    H149696   2.043   5.734   4.876  1.3694 -0.4564  0.1302
 9427TIP3    H249697   1.992   5.622   4.963  0.6286  0.1816  0.5236
 9428TIP3   OH249698   3.663   4.431   4.649  0.0344 -0.3936  0.1365
 9428TIP3    H149699   3.637   4.522   4.640 -0.6828 -0.4539  1.4795
 9428TIP3    H249700   3.587   4.388   4.687  0.5451 -1.4644 -0.0301
 9429TIP3   OH249701   4.598   3.388   4.476  0.3516  0.5069 -0.1584
 9429TIP3    H149702   4.585   3.415   4.567  1.2916  2.2910 -0.5208
 9429TIP3    H249703   4.518   3.414   4.432  1.1214  2.4934 -0.4376
 9430TIP3   OH249704   1.166   4.613   5.129  0.4967  0.7402  0.7020
 9430TIP3    H149705   1.236   4.634   5.068 -2.1113  1.2011 -2.2293
 9430TIP3    H249706   1.134   4.527   5.101  0.6460 -0.0406  2.7742
 9431TIP3   OH249707   5.519   6.717   4.217 -0.1500 -0.4118  0.5679
 9431TIP3    H149708   5.585   6.690   4.280  1.3368 -2.4661 -1.7831
 9431TIP3    H249709   5.453   6.647   4.219  0.5907 -1.1944 -1.0728
 9432TIP3   OH249710   2.113   5.988  12.153 -0.2820 -0.2183 -0.8237
 9432TIP3    H149711   2.102   6.031  12.238  1.3719 -1.3475 -0.0034
 9432TIP3    H249712   2.025   5.960  12.129 -0.9298  1.0769  0.0034
 9433TIP3   OH249713   6.240   1.490  15.304  0.2442 -0.6059  0.1959
 9433TIP3    H149714   6.196   1.553  15.361 -1.7653 -0.5275 -1.3753
 9433TIP3    H249715   6.177   1.473  15.234  1.7496 -2.4463 -0.7674
 9434TIP3   OH249716   0.559   3.625   2.491  0.0893  0.0152 -0.0287
 9434TIP3    H149717   0.482   3.613   2.435  1.2953  1.3257 -2.0631
 9434TIP3    H249718   0.530   3.683   2.561 -1.6377 -2.1932  1.1658
 9435TIP3   OH249719   6.176   2.446   3.614  0.2660 -0.0819 -0.5228
 9435TIP3    H149720   6.250   2.418   3.669  0.2964 -0.6322 -0.8347
 9435TIP3    H249721   6.216   2.474   3.532  0.1992  0.4703 -0.3638
 9436TIP3   OH249722   5.903   2.090  16.165 -0.1031 -0.1551  0.2042
 9436TIP3    H149723   5.993   2.059  16.166 -0.1940 -0.4108  1.3345
 9436TIP3    H249724   5.883   2.103  16.072  1.3912  0.7940 -0.0077
 9437TIP3   OH249725   4.388   4.049  14.864  0.7753 -0.5604  0.4592
 9437TIP3    H149726   4.371   3.956  14.877 -0.8052 -0.3188  0.1988
 9437TIP3    H249727   4.302   4.087  14.845  1.2597  1.1129  1.4871
 9438TIP3   OH249728   1.175   5.848  14.100  0.1117  0.1788  0.1246
 9438TIP3    H149729   1.214   5.923  14.055  1.0242 -0.7859 -0.7257
 9438TIP3    H249730   1.135   5.885  14.179  0.9039  1.4974 -0.0765
 9439TIP3   OH249731   6.446   1.277  12.477 -0.2122  0.1486 -0.4442
 9439TIP3    H149732   6.415   1.357  12.435  2.2180  0.8429 -1.0180
 9439TIP3    H249733   6.457   1.215  12.405  1.2207  0.4294 -0.4870
 9440TIP3   OH249734   5.276   0.018  12.528  0.0257 -0.1959  0.3211
 9440TIP3    H149735   5.208   0.058  12.473  1.1640  1.7648  0.2681
 9440TIP3    H249736   5.354   0.016  12.472  0.6118 -0.2572  1.1300
 9441TIP3   OH249737   2.028   3.315   2.179 -0.4828  0.2394 -0.1099
 9441TIP3    H149738   2.053   3.402   2.149  0.0903 -0.0902 -0.5922
 9441TIP3    H249739   1.981   3.277   2.105 -3.6349  1.3329  1.2177
 9442TIP3   OH249740   1.114   2.700  10.957 -0.0715 -0.0824  0.5301
 9442TIP3    H149741   1.028   2.741  10.967  0.2378  0.3741  1.4144
 9442TIP3    H249742   1.175   2.762  10.999  0.9777  0.6524 -1.9759
 9443TIP3   OH249743   6.777   2.297   6.371  0.3034 -0.4733 -0.0555
 9443TIP3    H149744   6.822   2.368   6.325  1.9389 -0.5361  1.3943
 9443TIP3    H249745   6.846   2.235   6.393 -0.8766 -1.7590  0.1038
 9444TIP3   OH249746   6.275   4.597  16.319 -0.3233 -0.1055  0.0507
 9444TIP3    H149747   6.239   4.675  16.360 -0.7227 -0.2275 -0.0708
 9444TIP3    H249748   6.219   4.581  16.243 -0.6807 -0.9252  0.4751
 9445TIP3   OH249749   6.389   4.116   0.797  0.4556 -0.1915  0.1890
 9445TIP3    H149750   6.350   4.051   0.739  0.5907  0.6163 -0.8335
 9445TIP3    H249751   6.381   4.079   0.885 -0.0744 -1.2730 -0.3103
 9446TIP3   OH249752   0.819   4.981   1.847  0.3545  0.2002  0.3871
 9446TIP3    H149753   0.730   5.013   1.867  0.7981  2.1504 -0.6173
 9446TIP3    H249754   0.868   5.061   1.827  2.1970 -0.9287  0.3783
 9447TIP3   OH249755   0.244   2.822  17.215 -0.3273  0.2783  0.1874
 9447TIP3    H149756   0.231   2.910  17.250  0.5657  0.6935 -0.4988
 9447TIP3    H249757   0.314   2.785  17.269  0.6324  0.6989 -0.7570
 9448TIP3   OH249758   4.960   6.587  15.600 -0.8788  0.1172  0.4116
 9448TIP3    H149759   5.035   6.587  15.541 -0.1838  0.5918  1.2822
 9448TIP3    H249760   4.989   6.537  15.677 -0.9401  1.5401  1.3759
 9449TIP3   OH249761   5.852   4.689  15.518 -0.2749  0.1527 -0.8003
 9449TIP3    H149762   5.918   4.752  15.489  0.6428 -1.5682 -2.6057
 9449TIP3    H249763   5.824   4.646  15.437 -2.1100 -0.5965  0.2039
 9450TIP3   OH249764   1.969   3.584  13.703  0.2619  0.5921 -0.2550
 9450TIP3    H149765   1.986   3.533  13.623  0.2200 -0.1366  0.1894
 9450TIP3    H249766   1.903   3.532  13.750  0.6328  0.7762  0.4751
 9451TIP3   OH249767   3.546   6.000  16.786 -0.2154  0.3606  0.7695
 9451TIP3    H149768   3.491   5.924  16.766 -1.9880  1.2755  2.0680
 9451TIP3    H249769   3.633   5.975  16.755 -1.4814 -0.8515 -1.9393
 9452TIP3   OH249770   4.273   6.427  15.184  0.0677 -0.6045  0.8758
 9452TIP3    H149771   4.216   6.407  15.110  1.0594  1.0289 -0.3695
 9452TIP3    H249772   4.297   6.342  15.219  0.0564 -1.4396 -1.0589
 9453TIP3   OH249773   6.755   6.012   1.724 -0.2337  0.0029 -0.1844
 9453TIP3    H149774   6.772   6.025   1.631  0.7074  0.7542  0.0827
 9453TIP3    H249775   6.714   6.094   1.752  1.8337  0.8172  0.6017
 9454TIP3   OH249776   0.070   0.118   3.629 -0.0533 -0.6073  0.3396
 9454TIP3    H149777   0.021   0.039   3.653 -0.0554 -0.1784  1.7986
 9454TIP3    H249778   0.016   0.190   3.661  1.1009 -0.0983  1.1777
 9455TIP3   OH249779   5.913   0.343  16.772  0.2608 -0.3877  0.1068
 9455TIP3    H149780   5.821   0.371  16.775  0.7446  1.5280 -1.7466
 9455TIP3    H249781   5.962   0.416  16.811  0.9873 -1.6265  1.5860
 9456TIP3   OH249782   3.469   2.579   5.996 -0.0874  0.2185 -0.6765
 9456TIP3    H149783   3.526   2.524   6.050 -1.1734  0.0902  0.3618
 9456TIP3    H249784   3.529   2.642   5.956  0.6429  0.8219  1.3047
 9457TIP3   OH249785   5.472   3.354  14.599 -0.0989  0.2620  0.0054
 9457TIP3    H149786   5.385   3.314  14.602  0.6125 -1.3649 -0.2170
 9457TIP3    H249787   5.466   3.430  14.657 -1.9835  0.8369 -0.8987
 9458TIP3   OH249788   4.667   4.700   5.119  0.9209 -0.4033  0.2932
 9458TIP3    H149789   4.709   4.631   5.171  0.9872 -0.7548 -0.2289
 9458TIP3    H249790   4.638   4.656   5.040  2.1810  0.4673 -0.6643
 9459TIP3   OH249791   3.573   0.232  13.211  0.0869  0.5365  0.1635
 9459TIP3    H149792   3.522   0.199  13.285 -0.2933  1.1106  0.1575
 9459TIP3    H249793   3.513   0.230  13.137 -0.7711  3.7621  0.7157
 9460TIP3   OH249794   2.566   2.177   1.448  0.4174  0.5278  0.8147
 9460TIP3    H149795   2.542   2.187   1.355 -0.7894  4.3816  1.4411
 9460TIP3    H249796   2.656   2.208   1.453  0.8074 -0.5755  0.8098
 9461TIP3   OH249797   0.233   3.648   2.973 -0.3186  0.8544 -0.1281
 9461TIP3    H149798   0.175   3.646   2.897 -0.1960  0.9029 -0.2226
 9461TIP3    H249799   0.264   3.558   2.982 -1.4035  0.5516  0.6876
 9462TIP3   OH249800   6.299   0.548  13.730  0.1637  0.0968 -0.0242
 9462TIP3    H149801   6.326   0.590  13.812  1.4823 -0.0827 -0.3440
 9462TIP3    H249802   6.326   0.609  13.661  0.8516 -0.6360 -0.4186
 9463TIP3   OH249803   4.726   5.524  10.559 -0.5319 -0.4634  0.0309
 9463TIP3    H149804   4.733   5.466  10.483 -1.6690  0.0764 -0.5017
 9463TIP3    H249805   4.801   5.583  10.551 -1.4647  0.5485 -1.5101
 9464TIP3   OH249806   4.044   6.436  10.988  0.2082  0.6176 -0.9535
 9464TIP3    H149807   4.061   6.502  10.921  0.6990  0.3856 -1.0559
 9464TIP3    H249808   4.078   6.473  11.069 -1.0021  1.1905 -0.7000
 9465TIP3   OH249809   6.126   1.732   0.881 -0.0080 -0.4665 -0.4854
 9465TIP3    H149810   6.094   1.660   0.936 -0.3735 -1.0368 -1.4323
 9465TIP3    H249811   6.220   1.737   0.899 -0.5401  0.9813  2.0479
 9466TIP3   OH249812   2.595   4.007  12.592 -0.4249  0.3565  0.2698
 9466TIP3    H149813   2.657   3.940  12.564 -0.5280  0.0001  0.8818
 9466TIP3    H249814   2.509   3.973  12.568 -0.4770  0.2688  0.5784
 9467TIP3   OH249815   4.920   6.666  13.290 -0.0361 -0.6957 -0.1629
 9467TIP3    H149816   4.979   6.712  13.351  0.1842 -1.9477  0.5998
 9467TIP3    H249817   4.977   6.636  13.219  0.0029 -0.6845 -0.1359
 9468TIP3   OH249818   4.142   0.840  11.312 -0.2739  0.4067  0.1141
 9468TIP3    H149819   4.142   0.896  11.389  1.3454 -1.0612  1.2267
 9468TIP3    H249820   4.201   0.884  11.251 -0.1468  0.6643  0.4190
 9469TIP3   OH249821   3.532   5.036   3.380 -0.4110 -0.6307 -0.6846
 9469TIP3    H149822   3.554   4.946   3.404 -1.0101 -0.7137 -0.4224
 9469TIP3    H249823   3.581   5.053   3.300  2.5439  0.0337  1.1810
 9470TIP3   OH249824   5.449   2.905  17.185  0.0190 -0.5148  0.0717
 9470TIP3    H149825   5.490   2.991  17.181  0.3594 -0.5654  1.8197
 9470TIP3    H249826   5.379   2.908  17.120  0.4341  0.8651 -0.3162
 9471TIP3   OH249827   1.548   1.521  14.608 -0.0110 -0.3812  0.2046
 9471TIP3    H149828   1.635   1.538  14.646  0.0768 -1.0048  0.2818
 9471TIP3    H249829   1.566   1.469  14.530 -0.3467 -0.7955  0.4087
 9472TIP3   OH249830   4.785   4.498   0.785 -0.0990 -0.5115  0.4025
 9472TIP3    H149831   4.730   4.441   0.731 -0.5115 -0.5983  0.8970
 9472TIP3    H249832   4.827   4.558   0.723  0.3250 -1.3480 -0.1164
 9473TIP3   OH249833   1.324   1.713   3.897 -0.5518 -0.1465  0.0023
 9473TIP3    H149834   1.299   1.692   3.988 -0.8570 -0.3297 -0.1216
 9473TIP3    H249835   1.276   1.793   3.878  0.7510  0.7763  0.5344
 9474TIP3   OH249836   2.392   1.842   4.411 -0.0194  0.1044  0.2317
 9474TIP3    H149837   2.405   1.823   4.503 -0.0240 -0.7444  0.0642
 9474TIP3    H249838   2.326   1.911   4.409 -0.2193 -0.0720  0.8543
 9475TIP3   OH249839   0.727   0.763  14.168 -0.1674 -0.2540 -0.1991
 9475TIP3    H149840   0.791   0.705  14.209  0.2028  0.9433  0.9239
 9475TIP3    H249841   0.666   0.785  14.238  0.3065  1.5680 -0.3323
 9476TIP3   OH249842   4.573   0.109  16.491  0.3984  0.7877  0.1032
 9476TIP3    H149843   4.614   0.022  16.491 -0.0715  0.5032 -3.3244
 9476TIP3    H249844   4.481   0.092  16.509  0.3141  0.5429 -0.5214
 9477TIP3   OH249845   3.386   5.257   2.927 -0.0427 -0.1917  0.4495
 9477TIP3    H149846   3.386   5.278   3.021 -0.5568  1.7453  0.0362
 9477TIP3    H249847   3.368   5.163   2.924  1.0108 -0.4975  2.3361
 9478TIP3   OH249848   4.484   4.225   4.462  0.6001  0.5260 -0.3624
 9478TIP3    H149849   4.394   4.202   4.440  0.3335  1.4797 -0.2869
 9478TIP3    H249850   4.528   4.231   4.378  0.3410  1.0834 -0.4587
 9479TIP3   OH249851   6.263   5.604  15.141 -0.3352  0.3921 -0.2521
 9479TIP3    H149852   6.191   5.654  15.179  0.4535  0.8841  0.6303
 9479TIP3    H249853   6.255   5.517  15.179  0.1897  0.7618  0.7409
 9480TIP3   OH249854   0.287   1.538  16.795 -0.1610 -0.1148 -0.1098
 9480TIP3    H149855   0.272   1.632  16.793 -0.8940 -0.1689  1.6665
 9480TIP3    H249856   0.360   1.523  16.735  0.4210  1.6665  0.1388
 9481TIP3   OH249857   6.165   2.189   2.974 -0.9225  0.5463  0.4484
 9481TIP3    H149858   6.193   2.140   3.051  0.3610  1.4651  0.5826
 9481TIP3    H249859   6.167   2.281   3.002  0.3572  0.9568 -0.9070
 9482TIP3   OH249860   4.201   5.301   2.200 -0.2742 -0.3985 -0.0063
 9482TIP3    H149861   4.160   5.218   2.173 -0.9855  0.0946 -0.4426
 9482TIP3    H249862   4.150   5.329   2.276  0.5605 -0.8378  0.7186
 9483TIP3   OH249863   4.133   6.594  15.356 -0.0862 -0.1790  0.4720
 9483TIP3    H149864   4.073   6.574  15.428  0.9528  1.0567  1.7010
 9483TIP3    H249865   4.110   6.530  15.288 -1.7553 -0.7188  1.4959
 9484TIP3   OH249866   0.296   3.163  15.624 -0.2919  0.6659 -0.0553
 9484TIP3    H149867   0.376   3.194  15.666  0.6671  0.7630 -1.9566
 9484TIP3    H249868   0.226   3.195  15.681  0.9590  1.3842  1.1096
 9485TIP3   OH249869   6.103   0.631  16.807  0.6878  0.2564  0.1645
 9485TIP3    H149870   6.136   0.701  16.751  0.3008 -0.2978 -0.7610
 9485TIP3    H249871   6.151   0.553  16.780 -0.4922 -0.3020 -0.3618
 9486TIP3   OH249872   0.082   0.397  13.316  0.5355 -0.5382 -0.0642
 9486TIP3    H149873   0.100   0.323  13.375 -0.5925 -2.2320 -1.7683
 9486TIP3    H249874   0.125   0.373  13.233 -0.6901  0.2477 -0.9454
 9487TIP3   OH249875   3.315   1.272   1.732  0.3849 -0.7576 -0.3540
 9487TIP3    H149876   3.237   1.235   1.690 -0.9364 -0.3526  1.6645
 9487TIP3    H249877   3.367   1.306   1.659 -1.3898 -0.8879 -1.7418
 9488TIP3   OH249878   5.365   1.922  15.507  0.2272  0.0167 -0.0948
 9488TIP3    H149879   5.302   1.899  15.439  0.4954  1.4549 -0.8459
 9488TIP3    H249880   5.312   1.952  15.581 -0.0458 -1.1817  0.2111
 9489TIP3   OH249881   5.182   6.394   2.867  0.2046  0.3503  0.5389
 9489TIP3    H149882   5.144   6.395   2.779 -0.0011 -0.1058  0.6214
 9489TIP3    H249883   5.252   6.329   2.861  1.0072  1.2224  0.3739
 9490TIP3   OH249884   5.850   2.663  12.648 -0.1432 -0.6098  0.4123
 9490TIP3    H149885   5.862   2.614  12.566 -0.3057  0.5151 -0.2844
 9490TIP3    H249886   5.935   2.657  12.692  0.5927  0.5880 -0.8310
 9491TIP3   OH249887   2.938   1.357  16.157  0.1673  0.5534  0.0430
 9491TIP3    H149888   2.860   1.352  16.213 -0.1932  0.4132 -0.4712
 9491TIP3    H249889   2.905   1.344  16.068  0.8219  0.1608 -0.1420
 9492TIP3   OH249890   0.735   2.353   4.312  0.3739  0.0051 -0.1338
 9492TIP3    H149891   0.804   2.417   4.331 -0.7436  0.6890  1.7608
 9492TIP3    H249892   0.687   2.390   4.238  0.6469  0.6346  0.0020
 9493TIP3   OH249893   0.998   2.884  11.606  0.4126 -0.8606 -0.3770
 9493TIP3    H149894   1.055   2.829  11.658 -1.2361 -0.2179  2.1862
 9493TIP3    H249895   0.933   2.918  11.668  0.6892  3.0497 -2.0652
 9494TIP3   OH249896   5.057   1.800  15.363  0.3510 -0.0824  0.1084
 9494TIP3    H149897   4.961   1.804  15.356  0.2612 -1.9634  0.0967
 9494TIP3    H249898   5.089   1.828  15.278 -0.2676 -2.0268 -0.7903
 9495TIP3   OH249899   5.647   5.793  16.107  0.0343  0.2964  0.3863
 9495TIP3    H149900   5.574   5.735  16.085 -0.5191  0.8996  0.5980
 9495TIP3    H249901   5.627   5.874  16.061  0.4265  0.5595  0.6787
 9496TIP3   OH249902   3.614   1.673  11.937 -0.1748 -0.2062 -0.4122
 9496TIP3    H149903   3.580   1.755  11.901 -0.3506 -0.3721 -0.6227
 9496TIP3    H249904   3.688   1.651  11.880 -0.3016 -0.3409 -0.5244
 9497TIP3   OH249905   1.297   1.922   2.348  0.4969  0.1216  0.7605
 9497TIP3    H149906   1.266   1.845   2.300  1.6777 -0.3398  0.7221
 9497TIP3    H249907   1.352   1.969   2.285 -0.8899  1.4489  0.5172
 9498TIP3   OH249908   4.348   2.291   4.784 -0.2629 -0.2286  0.4846
 9498TIP3    H149909   4.283   2.253   4.843 -0.2243 -1.4437 -0.2339
 9498TIP3    H249910   4.331   2.249   4.700  1.1169 -0.1577  0.1644
 9499TIP3   OH249911   0.747   6.568  13.305 -0.0063  0.2202  0.4739
 9499TIP3    H149912   0.751   6.568  13.209 -0.3358  0.1171  0.4582
 9499TIP3    H249913   0.691   6.643  13.326  0.4821  0.5532  0.6062
 9500TIP3   OH249914   0.518   5.063   1.073 -0.6439 -0.0698  0.0584
 9500TIP3    H149915   0.464   5.122   1.021 -1.2269 -0.6228  0.0309
 9500TIP3    H249916   0.480   4.976   1.058 -0.6147 -0.2774  1.1330
 9501TIP3   OH249917   2.703   1.283  13.520  0.2479  1.2658 -0.2087
 9501TIP3    H149918   2.706   1.333  13.438 -1.6181 -0.8193 -1.6298
 9501TIP3    H249919   2.787   1.237  13.521 -0.4244 -0.0931 -1.9465
 9502TIP3   OH249920   5.789   6.310   3.734  0.1462  0.0839 -0.5624
 9502TIP3    H149921   5.734   6.232   3.727 -1.6789  1.0542  2.3677
 9502TIP3    H249922   5.756   6.369   3.666 -0.8442 -0.2806 -0.3960
 9503TIP3   OH249923   3.825   3.105   4.342 -0.2935 -0.2272  0.9919
 9503TIP3    H149924   3.817   3.166   4.269 -1.3353 -1.7534 -0.2214
 9503TIP3    H249925   3.894   3.142   4.398  0.9621  0.6438 -1.0834
 9504TIP3   OH249926   5.767   6.200   4.656  0.2830 -0.7154  0.2582
 9504TIP3    H149927   5.726   6.283   4.634 -1.3708 -1.6978 -0.4584
 9504TIP3    H249928   5.853   6.204   4.615 -0.2549  0.1559 -0.8159
 9505TIP3   OH249929   4.155   4.325   5.848 -0.7575 -0.2432 -0.5182
 9505TIP3    H149930   4.195   4.254   5.897 -0.3755  0.2742 -0.0735
 9505TIP3    H249931   4.228   4.383   5.825 -1.3565  1.1845  1.0959
 9506TIP3   OH249932   6.711   6.627   4.995 -0.1580  0.2506 -0.2595
 9506TIP3    H149933   6.701   6.588   4.908 -0.2653 -2.8883  1.1108
 9506TIP3    H249934   6.803   6.653   4.999  0.4658 -1.8610 -0.4379
 9507TIP3   OH249935   3.833   4.276   5.021 -1.2020 -1.0939 -0.1592
 9507TIP3    H149936   3.800   4.223   4.948  0.1332 -0.9646 -0.8728
 9507TIP3    H249937   3.909   4.227   5.054  0.1185  0.4002 -0.8986
 9508TIP3   OH249938   2.474   4.388  11.180  0.0563 -0.6519 -0.4491
 9508TIP3    H149939   2.412   4.351  11.118  1.1306  2.2469 -3.4366
 9508TIP3    H249940   2.421   4.437  11.242 -0.9428 -2.2060 -0.0741
 9509TIP3   OH249941   3.509   4.311  11.970 -0.2631 -0.0846 -0.1685
 9509TIP3    H149942   3.573   4.360  11.919  0.6145  0.0874  1.0646
 9509TIP3    H249943   3.435   4.371  11.978  0.6428  0.9193  0.9895
 9510TIP3   OH249944   2.822   1.332   5.559  0.2719 -0.1417  0.2986
 9510TIP3    H149945   2.763   1.407   5.569 -0.1456 -0.4934  0.4653
 9510TIP3    H249946   2.833   1.299   5.648  2.3701  1.1768  0.5748
 9511TIP3   OH249947   4.989   5.190   3.278  0.0260 -0.2937  0.1191
 9511TIP3    H149948   4.926   5.131   3.321  1.3781 -1.6375  0.2821
 9511TIP3    H249949   5.070   5.179   3.328  1.1531 -0.6470 -1.7539
 9512TIP3   OH249950   4.077   3.408  13.210  0.8813 -0.0059 -0.0877
 9512TIP3    H149951   4.130   3.356  13.149 -0.6228 -2.0540  0.2813
 9512TIP3    H249952   4.043   3.344  13.272 -1.8606  1.2841 -0.1952
 9513TIP3   OH249953   2.975   1.883  13.633 -0.1545  0.0647  0.5490
 9513TIP3    H149954   2.913   1.950  13.662  2.1360  1.7972  1.5872
 9513TIP3    H249955   2.953   1.869  13.541 -2.2604  0.4349  0.9629
 9514TIP3   OH249956   1.335   2.337  12.016 -0.1211 -0.1796 -0.0490
 9514TIP3    H149957   1.243   2.362  12.025  0.1122  0.6222  0.1516
 9514TIP3    H249958   1.377   2.369  12.096  0.5910  0.6396 -0.7402
 9515TIP3   OH249959   3.231   6.531   2.316  0.0446 -0.0876  0.2004
 9515TIP3    H149960   3.181   6.452   2.336  0.9492 -1.8539 -3.9530
 9515TIP3    H249961   3.165   6.595   2.288 -0.3427 -0.7174 -0.3242
 9516TIP3   OH249962   3.034   2.762   0.680  0.1820  0.1040 -0.0146
 9516TIP3    H149963   3.012   2.702   0.750  0.5282 -1.5825 -1.3219
 9516TIP3    H249964   3.127   2.746   0.663  0.0846  0.4495 -0.9041
 9517TIP3   OH249965   1.695   2.052   0.590 -0.1137 -0.2432 -0.3056
 9517TIP3    H149966   1.684   2.003   0.508 -2.4196  0.2463 -0.3397
 9517TIP3    H249967   1.737   1.990   0.649  0.7510 -0.9052 -1.5906
 9518TIP3   OH249968   2.686   5.642  15.703  0.1276 -0.5000  0.0417
 9518TIP3    H149969   2.673   5.572  15.639  1.3307  0.9735 -1.8692
 9518TIP3    H249970   2.601   5.686  15.707 -0.6324 -2.0160  1.2402
 9519TIP3   OH249971   0.977   2.426  16.996  0.3167 -0.3839 -0.0697
 9519TIP3    H149972   0.915   2.424  16.923 -1.9912  0.9325  1.8242
 9519TIP3    H249973   0.968   2.340  17.037 -0.1772 -0.2402  0.1276
 9520TIP3   OH249974   5.363   5.338  10.483  0.1945 -0.1739 -0.0541
 9520TIP3    H149975   5.437   5.387  10.518 -0.4686  0.3946  0.5736
 9520TIP3    H249976   5.351   5.265  10.544  0.5735 -0.5796 -0.4570
 9521TIP3   OH249977   2.682   4.193  12.776  0.0031 -0.4785 -0.0846
 9521TIP3    H149978   2.617   4.254  12.741 -0.4177 -1.4581 -1.0364
 9521TIP3    H249979   2.672   4.115  12.722  2.3725 -0.4342 -0.6179
 9522TIP3   OH249980   1.143   1.410  12.221 -0.0248 -0.5328  0.3089
 9522TIP3    H149981   1.238   1.406  12.221  0.1739  2.7423  0.5090
 9522TIP3    H249982   1.120   1.429  12.130 -0.5936 -2.6674 -0.0133
 9523TIP3   OH249983   5.303   6.418   2.556  0.1700 -0.3487 -0.1127
 9523TIP3    H149984   5.359   6.393   2.482  1.5674  0.8758  0.4990
 9523TIP3    H249985   5.351   6.386   2.633  0.0403  0.7291  0.4203
 9524TIP3   OH249986   3.929   4.533   3.309  0.3287 -0.1400 -0.2058
 9524TIP3    H149987   3.900   4.620   3.282 -0.3723 -0.0878  0.6850
 9524TIP3    H249988   4.019   4.527   3.279 -0.0407  0.3838 -1.4529
 9525TIP3   OH249989   4.431   5.315  13.559 -0.3559 -0.3129 -0.1663
 9525TIP3    H149990   4.446   5.407  13.581 -1.1458 -0.1692 -0.1975
 9525TIP3    H249991   4.419   5.272  13.643  1.4508 -0.6584 -0.0733
 9526TIP3   OH249992   2.645   6.153   4.174  0.4169 -0.0766 -0.5291
 9526TIP3    H149993   2.701   6.150   4.097 -0.9252  2.2179 -1.6644
 9526TIP3    H249994   2.607   6.240   4.173  0.7305  0.2061  3.0485
 9527TIP3   OH249995   2.403   5.441   2.526 -0.2934 -0.0893  0.1174
 9527TIP3    H149996   2.478   5.445   2.467 -0.6172  0.4201 -0.2685
 9527TIP3    H249997   2.407   5.353   2.564  0.1124 -0.3022 -0.4064
 9528TIP3   OH249998   3.579   0.958   2.405  0.2273 -0.2220 -0.2553
 9528TIP3    H149999   3.564   0.888   2.341  1.7329 -0.5561 -0.2776
 9528TIP3    H250000   3.496   0.967   2.451 -0.0969 -1.7709 -0.5033
 9529TIP3   OH250001   6.148   4.076   1.290  0.6798 -0.0250  0.2185
 9529TIP3    H150002   6.190   4.065   1.205  0.0435 -0.1230 -0.0895
 9529TIP3    H250003   6.076   4.137   1.273  0.8517  0.3440  0.7903
 9530TIP3   OH250004   6.685   2.741  11.097  0.6234 -0.0503 -0.0646
 9530TIP3    H150005   6.761   2.693  11.131  1.0176  1.3919  1.1028
 9530TIP3    H250006   6.677   2.818  11.153 -1.0694  0.3689 -0.8397
 9531TIP3   OH250007   5.487   5.277   1.213 -0.9314 -0.2686 -0.4592
 9531TIP3    H150008   5.439   5.299   1.133 -0.9880 -0.3817 -0.4571
 9531TIP3    H250009   5.578   5.296   1.193 -1.2102  2.0183  0.2551
 9532TIP3   OH250010   2.560   2.293  17.234 -0.3747  0.0090  0.1189
 9532TIP3    H150011   2.620   2.237  17.184 -0.0956  0.7324 -0.3707
 9532TIP3    H250012   2.494   2.233  17.269  2.3601 -1.2883  3.3217
 9533TIP3   OH250013   5.766   5.931   4.624 -0.7245 -0.5962  0.0330
 9533TIP3    H150014   5.768   6.018   4.663  2.8889 -1.3761  1.8522
 9533TIP3    H250015   5.704   5.882   4.677 -0.3746  0.0145  1.0102
 9534TIP3   OH250016   2.747   3.197   5.539  0.1722 -0.7264  0.0896
 9534TIP3    H150017   2.834   3.161   5.554  1.0306  1.4183  0.4143
 9534TIP3    H250018   2.688   3.135   5.582  1.3697 -3.1529 -1.6758
 9535TIP3   OH250019   6.290   4.237   2.394  0.3485 -0.0287  0.2236
 9535TIP3    H150020   6.343   4.210   2.319 -1.9751 -0.1545 -1.4367
 9535TIP3    H250021   6.213   4.181   2.391 -1.1345  1.8940  1.0009
 9536TIP3   OH250022   2.791   6.040   5.007 -0.1255 -0.3189 -0.2202
 9536TIP3    H150023   2.825   6.017   4.921  0.8124 -1.0313  0.3346
 9536TIP3    H250024   2.708   5.994   5.014  0.3172 -1.1293 -0.3063
 9537TIP3   OH250025   6.552   5.367  15.208  0.2271  0.4883  0.0360
 9537TIP3    H150026   6.540   5.407  15.294  0.2546  0.9751 -0.1853
 9537TIP3    H250027   6.622   5.303  15.221  1.9204  2.2638 -0.1668
 9538TIP3   OH250028   3.722   1.908  14.183 -0.7591  0.1175  0.1614
 9538TIP3    H150029   3.742   1.958  14.104 -0.9784  0.5998  0.4114
 9538TIP3    H250030   3.667   1.836  14.153 -0.5384  0.0931 -0.1818
 9539TIP3   OH250031   1.367   1.678   1.860  0.4902  0.0615 -0.1484
 9539TIP3    H150032   1.309   1.660   1.786  0.1491  0.3109  0.0512
 9539TIP3    H250033   1.339   1.617   1.928  0.0286  0.6094  0.1675
 9540TIP3   OH250034   6.725   1.864  16.117  0.3058  0.1677  0.2255
 9540TIP3    H150035   6.695   1.845  16.028  2.2971 -0.7264 -0.2785
 9540TIP3    H250036   6.785   1.938  16.107 -0.4629  0.8964  0.9970
 9541TIP3   OH250037   0.409   1.981  12.659  0.0340  0.0680  0.1994
 9541TIP3    H150038   0.491   1.936  12.677  0.0161  0.6940  1.8824
 9541TIP3    H250039   0.344   1.912  12.650  1.0511 -0.5570 -3.0061
 9542TIP3   OH250040   3.046   6.163  11.897 -0.2683 -0.1600  0.2335
 9542TIP3    H150041   3.080   6.074  11.891  0.5803  0.1717  0.1056
 9542TIP3    H250042   3.002   6.178  11.814  1.0857  0.1547 -0.4296
 9543TIP3   OH250043   1.064   5.241  13.066 -0.6684  0.1481 -0.4230
 9543TIP3    H150044   1.034   5.239  13.157 -1.7946  0.2291 -0.7839
 9543TIP3    H250045   1.158   5.224  13.072 -1.2236 -3.0150  0.5484
 9544TIP3   OH250046   0.027   4.138   2.002 -0.0574 -0.1075  0.0272
 9544TIP3    H150047   0.114   4.115   1.969  0.1636 -1.5760  1.5519
 9544TIP3    H250048  -0.032   4.113   1.932  0.7675  1.4550 -1.2705
 9545TIP3   OH250049   2.584   5.768   5.610  0.0321 -0.3513 -0.0310
 9545TIP3    H150050   2.498   5.800   5.582  1.0320  2.3410 -0.1723
 9545TIP3    H250051   2.641   5.845   5.606  3.1063 -2.5894 -2.4648
 9546TIP3   OH250052   5.103   0.061   0.920 -0.0560  0.0122 -0.1738
 9546TIP3    H150053   5.141   0.023   0.840  1.1444 -3.2649  1.8753
 9546TIP3    H250054   5.083  -0.014   0.975 -3.0709  2.1086  1.7031
 9547TIP3   OH250055   2.869   1.007   1.683 -0.0579  0.0816 -0.8813
 9547TIP3    H150056   2.819   1.041   1.758  0.3653 -0.0056 -0.5559
 9547TIP3    H250057   2.893   0.918   1.709  0.5141  0.2255 -0.9130
 9548TIP3   OH250058   1.304   1.823   0.695 -0.2223 -0.5980 -0.1082
 9548TIP3    H150059   1.253   1.900   0.669 -1.9300 -1.7611 -0.2604
 9548TIP3    H250060   1.320   1.776   0.614 -1.7802 -1.9378  0.3210
 9549TIP3   OH250061   5.827   0.844  12.627  0.0823  0.3522  0.1888
 9549TIP3    H150062   5.826   0.834  12.532  1.2436 -0.3546  0.2390
 9549TIP3    H250063   5.847   0.936  12.642  2.1660  0.0100 -0.2646
 9550TIP3   OH250064   0.563   5.352   1.674  0.3761  0.4875  0.0659
 9550TIP3    H150065   0.532   5.371   1.585  1.1245  1.8070  0.0721
 9550TIP3    H250066   0.526   5.421   1.728 -0.1819 -0.3894  0.8128
 9551TIP3   OH250067   5.282   3.874  12.725 -0.3487  0.3822  0.0987
 9551TIP3    H150068   5.281   3.778  12.734  0.7446  0.3973  0.3971
 9551TIP3    H250069   5.304   3.905  12.813 -0.8024  0.9218  0.0228
 9552TIP3   OH250070   1.847   5.258   6.133 -0.2078  0.1275  0.1432
 9552TIP3    H150071   1.939   5.280   6.116  0.7198 -1.9749  2.0968
 9552TIP3    H250072   1.836   5.171   6.094 -0.8964 -0.3040  1.2613
 9553TIP3   OH250073   5.941   5.933  10.224  0.4190 -0.6858  1.2007
 9553TIP3    H150074   5.912   6.010  10.273 -0.6020 -1.0065  1.1176
 9553TIP3    H250075   5.984   5.877  10.289  0.6184 -0.3275  1.3795
 9554TIP3   OH250076   1.168   0.290  17.023 -0.7487 -0.2330 -0.0072
 9554TIP3    H150077   1.226   0.352  16.979 -0.7149 -1.7890 -2.2461
 9554TIP3    H250078   1.225   0.216  17.046 -1.1249 -0.1852  1.1319
 9555TIP3   OH250079   5.966   2.412   0.119 -0.5124  0.0611  0.4597
 9555TIP3    H150080   5.949   2.382   0.030  1.5903 -0.9575  0.3816
 9555TIP3    H250081   6.041   2.360   0.148 -0.4833  1.1598  2.4299
 9556TIP3   OH250082   0.337   3.648   0.496  0.1676 -0.1388  0.6442
 9556TIP3    H150083   0.424   3.629   0.462 -0.2860  0.2647 -0.7996
 9556TIP3    H250084   0.289   3.565   0.490  0.0187 -0.0132  0.0647
 9557TIP3   OH250085   2.143   3.543  12.340  0.0971  0.2011 -0.0502
 9557TIP3    H150086   2.177   3.498  12.263  0.2572 -2.3548  1.4745
 9557TIP3    H250087   2.164   3.635  12.325  4.2987 -0.8096 -0.9439
 9558TIP3   OH250088   5.839   0.540  15.110 -0.1785 -0.1424 -0.4914
 9558TIP3    H150089   5.905   0.482  15.073 -2.5032 -1.4804 -2.7148
 9558TIP3    H250090   5.888   0.617  15.139  2.1555 -0.4048 -3.5505
 9559TIP3   OH250091   0.337   6.314  15.098 -0.1387  0.0703 -0.0766
 9559TIP3    H150092   0.380   6.259  15.164  1.5923  0.9914 -0.3853
 9559TIP3    H250093   0.339   6.402  15.137 -0.3861  0.3753 -0.7537
 9560TIP3   OH250094   4.559   1.276   0.264 -0.3727  0.5198 -0.4842
 9560TIP3    H150095   4.550   1.224   0.184 -0.6221  0.4037 -0.3811
 9560TIP3    H250096   4.531   1.218   0.334  1.4839  0.0426 -0.0996
 9561TIP3   OH250097   5.360   2.401   3.169 -0.2351  0.2082 -0.2036
 9561TIP3    H150098   5.453   2.386   3.152 -0.9102 -2.6219 -1.6952
 9561TIP3    H250099   5.325   2.433   3.086 -0.7167  0.7724  0.2066
 9562TIP3   OH250100   4.809   5.589  13.303  0.1435 -0.6227 -0.8430
 9562TIP3    H150101   4.797   5.514  13.362  0.5018  1.0782  1.4549
 9562TIP3    H250102   4.893   5.627  13.329 -0.7355  1.4603 -0.9848
 9563TIP3   OH250103   5.194   0.088  15.357 -0.1703 -0.5002  0.0032
 9563TIP3    H150104   5.235   0.158  15.407  0.3432 -1.3898  0.8341
 9563TIP3    H250105   5.210   0.112  15.265 -1.3644  1.2779  0.2433
 9564TIP3   OH250106   3.557   3.165   2.157 -0.5634 -0.4650 -0.7663
 9564TIP3    H150107   3.640   3.212   2.167 -0.2481 -0.8123 -1.6850
 9564TIP3    H250108   3.580   3.086   2.107 -1.2532 -1.1272 -0.0570
 9565TIP3   OH250109   2.255   2.471  12.494 -0.0148 -0.2146  0.0100
 9565TIP3    H150110   2.270   2.380  12.470  1.2252  0.0152 -0.1436
 9565TIP3    H250111   2.343   2.507  12.507 -0.4752  1.0526 -0.2816
 9566TIP3   OH250112   1.187   1.622   0.913 -0.4629  0.6139 -0.4288
 9566TIP3    H150113   1.260   1.583   0.866 -0.8110  0.0273 -0.4738
 9566TIP3    H250114   1.191   1.715   0.890  0.9569  0.7905  0.4620
 9567TIP3   OH250115   0.250   1.718   3.304  0.3628  0.0834  0.0625
 9567TIP3    H150116   0.307   1.783   3.263  0.9064 -0.4967 -0.1151
 9567TIP3    H250117   0.308   1.644   3.322 -0.3777 -0.5982 -0.3076
 9568TIP3   OH250118   6.737   0.991   1.105 -0.3071  0.0327  0.5762
 9568TIP3    H150119   6.758   0.910   1.059 -0.8813 -0.8414  1.8203
 9568TIP3    H250120   6.682   1.040   1.045 -1.2677 -1.2048  0.4273
 9569TIP3   OH250121   6.284   5.180   2.165 -0.5144 -0.0245 -0.0419
 9569TIP3    H150122   6.347   5.221   2.224  0.6505  0.2107 -1.4592
 9569TIP3    H250123   6.289   5.231   2.085 -1.1880 -1.1364 -0.7953
 9570TIP3   OH250124   1.019   0.727   1.281  0.2049  0.1897  0.8498
 9570TIP3    H150125   0.992   0.641   1.313 -0.6276  0.2453  0.3012
 9570TIP3    H250126   1.102   0.711   1.235  0.1616 -0.2810  0.9372
 9571TIP3   OH250127   1.305   5.264   1.700  1.0323 -0.3783 -0.0763
 9571TIP3    H150128   1.283   5.251   1.792 -1.9130  0.9303 -0.5351
 9571TIP3    H250129   1.340   5.353   1.696  0.8715 -0.3238 -0.2710
 9572TIP3   OH250130   3.635   2.186   5.635  0.4772  0.6411  0.2724
 9572TIP3    H150131   3.636   2.278   5.608 -1.1046  0.1098 -1.6645
 9572TIP3    H250132   3.725   2.156   5.622  0.0030  0.6466 -3.7327
 9573TIP3   OH250133   5.502   1.449  12.726  0.1726  0.3836 -0.1486
 9573TIP3    H150134   5.434   1.409  12.672  0.1757  0.3819 -0.1512
 9573TIP3    H250135   5.458   1.520  12.773 -0.0398 -0.1806  0.5202
 9574TIP3   OH250136   2.637   4.258   0.039  0.3757  0.1841  0.4844
 9574TIP3    H150137   2.603   4.170   0.024  2.7598 -1.1298  2.3513
 9574TIP3    H250138   2.721   4.243   0.083  2.4195  3.3028 -2.1135
 9575TIP3   OH250139   2.127   5.295   0.293 -0.3608 -0.5163 -0.4862
 9575TIP3    H150140   2.167   5.268   0.210  0.4111  0.3932 -0.4191
 9575TIP3    H250141   2.055   5.233   0.306 -1.8321  0.5999 -2.8928
 9576TIP3   OH250142   5.393   0.091  12.259  0.1319 -0.4585 -0.2884
 9576TIP3    H150143   5.483   0.101  12.289 -0.7975  0.4738  2.4238
 9576TIP3    H250144   5.399   0.040  12.179  2.9948 -1.1867  0.3402
 9577TIP3   OH250145   5.796   1.050   0.740 -0.8664 -0.3519  0.0249
 9577TIP3    H150146   5.732   1.107   0.698 -0.3759 -0.5109 -0.9491
 9577TIP3    H250147   5.834   1.103   0.809 -1.4823  0.0059  0.0924
 9578TIP3   OH250148   4.793   0.616  15.205  0.1606 -0.2557  0.2141
 9578TIP3    H150149   4.744   0.587  15.128  0.9207  0.8876 -0.7180
 9578TIP3    H250150   4.855   0.545  15.221 -1.4281 -1.4788  1.1019
 9579TIP3   OH250151   2.268   2.557   2.811  1.2688 -0.0295  0.3503
 9579TIP3    H150152   2.244   2.624   2.874  1.3741  1.2252 -0.9343
 9579TIP3    H250153   2.351   2.587   2.774  1.3916 -0.9331 -0.1245
 9580TIP3   OH250154   2.761   6.051  12.486 -0.6043  0.0098  0.0920
 9580TIP3    H150155   2.721   6.036  12.400 -1.3988 -2.0433  0.7783
 9580TIP3    H250156   2.733   6.140  12.510  1.3027  1.4163 -2.6079
 9581TIP3   OH250157   0.378   6.613  12.627  0.1399 -0.3093 -0.6617
 9581TIP3    H150158   0.355   6.598  12.535  0.6370 -0.2820 -0.7925
 9581TIP3    H250159   0.471   6.632  12.625  0.0066  0.4091 -0.2302
 9582TIP3   OH250160   0.991   2.601  12.905 -0.0624  0.6760 -0.0346
 9582TIP3    H150161   0.945   2.523  12.936 -0.8391  0.8754 -0.6860
 9582TIP3    H250162   1.079   2.592  12.942  0.9037 -2.2230 -2.7989
 9583TIP3   OH250163   0.436   4.903   4.384  0.2174 -0.4980 -0.6838
 9583TIP3    H150164   0.512   4.962   4.382  1.0701 -1.5090  0.8285
 9583TIP3    H250165   0.473   4.816   4.375 -0.7749 -0.9962 -0.0480
 9584TIP3   OH250166   2.643   1.762  15.461  0.3502  0.2125 -0.0334
 9584TIP3    H150167   2.700   1.718  15.524  0.5937 -0.3738 -0.6468
 9584TIP3    H250168   2.651   1.855  15.482  0.5359  0.0339  0.7070
 9585TIP3   OH250169   6.527   6.368  13.350 -0.3894  0.5882 -0.1795
 9585TIP3    H150170   6.600   6.331  13.400 -0.9381 -0.9749 -0.5108
 9585TIP3    H250171   6.493   6.439  13.405  1.8790  1.8796 -0.3795
 9586TIP3   OH250172   0.136   6.307  14.264  0.4821  0.3279  0.0362
 9586TIP3    H150173   0.093   6.324  14.181 -1.3700 -2.1634  0.4258
 9586TIP3    H250174   0.221   6.269  14.240 -0.1933 -0.7177 -0.7286
 9587TIP3   OH250175   6.380   1.160  12.708  0.1069 -0.0077  0.5084
 9587TIP3    H150176   6.410   1.179  12.619 -1.6662 -1.6339 -0.4775
 9587TIP3    H250177   6.434   1.086  12.736 -0.6783 -0.7748  0.0140
 9588TIP3   OH250178   5.181   1.955   5.396 -0.0907  0.6207  0.0494
 9588TIP3    H150179   5.224   1.928   5.315  0.2253  0.9158  0.1171
 9588TIP3    H250180   5.138   1.876   5.427  1.3175  0.0267  0.5599
 9589TIP3   OH250181   3.198   2.955  14.952 -0.0059 -0.8443  0.3234
 9589TIP3    H150182   3.142   2.929  14.879  0.0722  0.5461 -0.2421
 9589TIP3    H250183   3.161   3.038  14.983  2.5149  0.8183 -0.9497
 9590TIP3   OH250184   2.802   0.712  14.365  0.3883  0.3835 -0.0903
 9590TIP3    H150185   2.883   0.742  14.324 -0.3553  0.8174 -1.2683
 9590TIP3    H250186   2.808   0.617  14.362  1.1166  0.4146  0.3452
 9591TIP3   OH250187   1.633   2.688  16.835  0.4362 -0.1630 -0.2749
 9591TIP3    H150188   1.627   2.784  16.829  0.1603 -0.0723  1.3214
 9591TIP3    H250189   1.672   2.672  16.921  1.6995 -1.4518 -1.0820
 9592TIP3   OH250190   1.423   4.661   6.394 -0.5364 -0.2593 -0.2688
 9592TIP3    H150191   1.457   4.573   6.408 -0.4016  0.3029  3.4782
 9592TIP3    H250192   1.328   4.651   6.393 -0.5155 -0.4654 -0.0741
 9593TIP3   OH250193   5.848   6.708  16.273  0.1307 -0.1319  0.2772
 9593TIP3    H150194   5.875   6.624  16.310 -0.8757 -0.9072 -0.7313
 9593TIP3    H250195   5.868   6.701  16.180 -0.0941  0.6978  0.1636
 9594TIP3   OH250196   3.024   4.005  10.772 -0.3905  0.1825  0.4548
 9594TIP3    H150197   2.971   3.934  10.809 -1.9223  1.7759  1.3948
 9594TIP3    H250198   3.086   4.027  10.841 -0.1594  0.0315  0.2989
 9595TIP3   OH250199   0.477   1.962   2.283 -0.0929  0.2766 -0.5847
 9595TIP3    H150200   0.554   2.012   2.307  0.2662 -0.4671 -0.1660
 9595TIP3    H250201   0.405   2.025   2.285  0.4891  0.9543 -0.9172
 9596TIP3   OH250202   6.036   0.232  13.738 -0.1794  0.2259 -0.6321
 9596TIP3    H150203   5.967   0.215  13.674 -1.8997  0.3663  1.1381
 9596TIP3    H250204   5.995   0.213  13.822  2.7821 -2.4134  0.3078
 9597TIP3   OH250205   1.351   2.273  16.166  0.2708  0.5650 -0.4565
 9597TIP3    H150206   1.412   2.223  16.219  0.2623  0.2616 -0.7342
 9597TIP3    H250207   1.305   2.208  16.114 -0.4812  0.7676 -0.0512
 9598TIP3   OH250208   5.038   2.859  16.626 -0.2064 -0.4663  0.1468
 9598TIP3    H150209   4.947   2.833  16.642 -0.3700  0.2946  0.4903
 9598TIP3    H250210   5.067   2.803  16.554 -1.5953  0.6988 -1.3531
 9599TIP3   OH250211   3.433   6.452  10.344  0.2445 -0.3276  0.2235
 9599TIP3    H150212   3.404   6.452  10.253 -1.1615 -0.4832  0.6617
 9599TIP3    H250213   3.489   6.375  10.352  2.5507  1.1131 -1.1572
 9600TIP3   OH250214   4.315   3.409  12.849 -0.5309  0.0751 -0.0567
 9600TIP3    H150215   4.393   3.396  12.904 -0.5399 -1.8900 -0.4877
 9600TIP3    H250216   4.266   3.478  12.894  0.2136 -0.4417  1.6020
 9601TIP3   OH250217   5.536   4.131  12.965  1.0330 -0.6048 -0.0565
 9601TIP3    H150218   5.612   4.076  12.982  0.4463 -0.7928  2.1033
 9601TIP3    H250219   5.462   4.079  12.997  0.3706  0.9871  1.0545
 9602TIP3   OH250220   5.763   6.444  11.324 -0.2125 -0.4168  0.3585
 9602TIP3    H150221   5.693   6.501  11.356 -1.1154 -0.4398 -1.5624
 9602TIP3    H250222   5.721   6.359  11.311  0.6549 -0.9826  1.1704
 9603TIP3   OH250223   2.472   2.667  16.798  0.0748 -0.6614 -0.1733
 9603TIP3    H150224   2.510   2.632  16.718  0.7502 -1.2567  0.4047
 9603TIP3    H250225   2.496   2.760  16.797 -1.9143 -0.1228 -1.8160
 9604TIP3   OH250226   3.399   4.173  16.807  0.2486 -0.5248  0.3154
 9604TIP3    H150227   3.379   4.225  16.729 -1.0586 -0.4493  0.6946
 9604TIP3    H250228   3.470   4.221  16.850 -1.6104  1.5291  1.1889
 9605TIP3   OH250229   0.544   3.223   0.546  0.0287  0.8522  0.5124
 9605TIP3    H150230   0.471   3.203   0.487 -0.3276 -0.5872  1.4190
 9605TIP3    H250231   0.524   3.176   0.626  1.0680  1.9028  1.4120
 9606TIP3   OH250232   3.851   2.521   1.927 -0.0348  0.0472  0.8334
 9606TIP3    H150233   3.937   2.496   1.895  0.1303  2.2220 -0.5628
 9606TIP3    H250234   3.856   2.616   1.937 -2.3083  0.2211  0.6031
 9607TIP3   OH250235   3.166   1.809   5.798  0.4644 -0.1828  0.0875
 9607TIP3    H150236   3.197   1.898   5.777  0.0357  1.0858  4.3126
 9607TIP3    H250237   3.244   1.754   5.787  1.5677  1.2501  0.4688
 9608TIP3   OH250238   2.473   5.906  16.410  0.5872  0.0620  0.3099
 9608TIP3    H150239   2.439   5.968  16.474 -0.0190  0.9295 -0.8518
 9608TIP3    H250240   2.554   5.873  16.450  0.0628  0.3563  1.6553
 9609TIP3   OH250241   1.753   1.737   2.189  0.0280  0.0996 -0.0449
 9609TIP3    H150242   1.680   1.777   2.142 -0.1715  0.5849  0.6653
 9609TIP3    H250243   1.813   1.707   2.120 -0.9011 -0.4232 -0.6317
 9610TIP3   OH250244   5.571   3.387  14.041 -0.1055 -0.0336 -0.0460
 9610TIP3    H150245   5.527   3.381  14.126 -0.5700  0.5169 -0.2507
 9610TIP3    H250246   5.664   3.392  14.063 -0.2404  0.4127  0.4405
 9611TIP3   OH250247   1.833   2.181   2.227 -0.4152  0.3304  0.0140
 9611TIP3    H150248   1.849   2.258   2.174  0.2392 -0.0220 -0.3011
 9611TIP3    H250249   1.891   2.114   2.191 -0.6888 -0.1942  0.5369
 9612TIP3   OH250250   5.351   2.697   6.735 -0.0977 -0.3984  0.1953
 9612TIP3    H150251   5.332   2.629   6.670 -0.2693 -0.4995  0.3518
 9612TIP3    H250252   5.272   2.751   6.737  1.1268  1.5582 -2.0792
 9613TIP3   OH250253   3.719   0.702   3.938 -0.6038  0.3532 -0.2836
 9613TIP3    H150254   3.643   0.743   3.898 -1.2224  0.8767  1.4270
 9613TIP3    H250255   3.750   0.765   4.003 -0.3039 -0.9831  0.8914
 9614TIP3   OH250256   1.894   4.240  10.679  0.0708 -0.0654  0.3267
 9614TIP3    H150257   1.911   4.333  10.697 -1.5085  0.2415  0.3054
 9614TIP3    H250258   1.964   4.214  10.619  0.3102  1.2153  0.0402
 9615TIP3   OH250259   1.012   4.931  11.640 -0.0720  0.1124  0.3992
 9615TIP3    H150260   1.050   4.869  11.578 -1.3775  0.7060 -1.0440
 9615TIP3    H250261   1.086   4.962  11.693  0.7291 -1.9555  0.5108
 9616TIP3   OH250262   4.769   1.435  16.304  0.2856 -0.3878  0.3318
 9616TIP3    H150263   4.819   1.515  16.321 -0.3193  0.1032 -0.1528
 9616TIP3    H250264   4.834   1.365  16.308  0.8961  0.1700  0.3665
 9617TIP3   OH250265   4.599   5.624  12.395  0.8081 -0.0316 -0.0660
 9617TIP3    H150266   4.521   5.624  12.339 -0.0127  0.8824  1.0376
 9617TIP3    H250267   4.572   5.674  12.473  2.5132  0.3314  0.3082
 9618TIP3   OH250268   0.433   2.085  14.997 -0.1640  0.7690  0.2053
 9618TIP3    H150269   0.455   2.178  14.996 -1.6174  1.1449  1.8501
 9618TIP3    H250270   0.379   2.073  15.074 -0.1394 -1.4311 -0.0732
 9619TIP3   OH250271   0.335   3.218  13.096  0.6780 -0.4008  0.1011
 9619TIP3    H150272   0.246   3.248  13.114 -0.6009 -3.4171 -0.8467
 9619TIP3    H250273   0.378   3.294  13.056 -1.0634  1.4844  1.6978
 9620TIP3   OH250274   4.507   4.746  12.577  0.0634 -0.5634  0.1652
 9620TIP3    H150275   4.538   4.666  12.619  1.6670  0.5428  1.1416
 9620TIP3    H250276   4.424   4.766  12.621  1.6442  0.5058  2.7260
 9621TIP3   OH250277   0.848   4.364   4.946  0.2081  0.1003  0.0954
 9621TIP3    H150278   0.775   4.315   4.985  1.3208 -2.7846 -1.3635
 9621TIP3    H250279   0.908   4.379   5.019  1.1581 -3.2034  0.0832
 9622TIP3   OH250280   1.563   5.000  16.088  0.1502 -0.2543  0.2482
 9622TIP3    H150281   1.612   5.081  16.077 -0.9809  0.2724 -1.0589
 9622TIP3    H250282   1.529   5.006  16.178 -2.2349  2.0555 -0.7378
 9623TIP3   OH250283   3.538   0.248   5.340 -0.5022 -0.5797  0.0716
 9623TIP3    H150284   3.579   0.161   5.349 -0.8655 -0.6417  1.2102
 9623TIP3    H250285   3.587   0.290   5.270 -0.3410 -1.7262 -0.5169
 9624TIP3   OH250286   2.816   0.421   4.844 -0.2723 -0.3290 -0.2024
 9624TIP3    H150287   2.878   0.494   4.842 -1.0147  0.2976 -0.3020
 9624TIP3    H250288   2.792   0.412   4.936  0.8909 -1.3634  0.0156
 9625TIP3   OH250289   0.584   5.672   5.214  0.0370 -0.3862  0.1934
 9625TIP3    H150290   0.582   5.702   5.123 -0.1545  0.7644  0.5674
 9625TIP3    H250291   0.661   5.714   5.252  0.8545 -1.8906  0.2327
 9626TIP3   OH250292   1.490   6.507   0.533  0.4350  0.1558  0.0542
 9626TIP3    H150293   1.415   6.555   0.568  1.5429  0.3970  2.2108
 9626TIP3    H250294   1.514   6.555   0.453 -1.7919 -0.0613 -0.7856
 9627TIP3   OH250295   1.938   3.740   3.239  0.3185 -0.1591 -0.1012
 9627TIP3    H150296   1.879   3.711   3.309 -0.5976 -1.2462 -1.3170
 9627TIP3    H250297   1.936   3.836   3.245 -0.7808 -0.2098  0.5166
 9628TIP3   OH250298   1.998   5.781   2.042  0.1790  0.0702 -0.0522
 9628TIP3    H150299   2.015   5.792   1.949  0.4787  1.1183  0.1185
 9628TIP3    H250300   1.916   5.827   2.058  0.6477  0.7656  0.3860
 9629TIP3   OH250301   2.620   2.133  13.189  0.1549  0.1030 -0.0263
 9629TIP3    H150302   2.713   2.149  13.205  0.5552 -0.4355 -1.6751
 9629TIP3    H250303   2.579   2.136  13.275  1.7459  0.0853  0.7375
 9630TIP3   OH250304   0.932   4.684   0.071  0.4161 -0.1350 -0.0407
 9630TIP3    H150305   0.900   4.595   0.074 -1.7011  0.6069 -0.1991
 9630TIP3    H250306   0.984   4.694   0.151 -1.0568 -0.8622  1.0196
 9631TIP3   OH250307   5.720   0.354  14.155 -0.4740 -0.3183  0.2886
 9631TIP3    H150308   5.625   0.346  14.156 -0.4357 -0.7673  0.4649
 9631TIP3    H250309   5.747   0.332  14.244 -0.2484  0.3773  0.3961
 9632TIP3   OH250310   2.549   5.594   5.200 -0.1805  0.2603  0.0892
 9632TIP3    H150311   2.512   5.530   5.261  1.8343  0.0635  1.1621
 9632TIP3    H250312   2.497   5.673   5.213  0.2326  0.2218  2.0896
 9633TIP3   OH250313   0.644   4.212   6.646 -0.0929 -0.0341  0.4228
 9633TIP3    H150314   0.610   4.164   6.570  0.1810  0.4320  0.0020
 9633TIP3    H250315   0.724   4.165   6.670 -0.8104 -0.9097  1.1858
 9634TIP3   OH250316   1.205   4.441  16.560 -0.4841  0.1772  0.6983
 9634TIP3    H150317   1.210   4.355  16.520  1.6782  1.9764 -3.1676
 9634TIP3    H250318   1.120   4.476  16.533 -0.2061  0.3111  0.0022
 9635TIP3   OH250319   0.904   2.860  11.107 -0.4005  0.4245  0.4627
 9635TIP3    H150320   0.972   2.919  11.139  0.2928 -0.8380  1.3256
 9635TIP3    H250321   0.845   2.848  11.181  0.1288 -0.9382  0.6746
 9636TIP3   OH250322   2.575   3.390   2.844 -0.2068  0.5646  0.4058
 9636TIP3    H150323   2.500   3.353   2.798 -0.4669  1.4025  0.1460
 9636TIP3    H250324   2.554   3.483   2.852  0.6181  0.7254  0.6975
 9637TIP3   OH250325   0.110   4.605   0.974  0.3068  0.6238 -0.0003
 9637TIP3    H150326   0.049   4.679   0.968 -0.2218  0.0811 -1.6517
 9637TIP3    H250327   0.150   4.614   1.061 -2.3548  0.8273  1.2636
 9638TIP3   OH250328   2.828   0.567  11.444 -0.0165 -0.3490  0.1506
 9638TIP3    H150329   2.742   0.581  11.406 -0.0655  0.0686  0.4029
 9638TIP3    H250330   2.838   0.639  11.507  2.1002  1.9250 -2.6377
 9639TIP3   OH250331   1.406   2.756  12.424 -0.3596 -0.3082  0.3675
 9639TIP3    H150332   1.462   2.731  12.350 -0.1106 -0.3563  0.5696
 9639TIP3    H250333   1.325   2.785  12.384  0.5157  1.6531 -0.0414
 9640TIP3   OH250334   4.777   4.227  12.669 -0.1898  0.1225  0.2212
 9640TIP3    H150335   4.799   4.134  12.675  2.3913  0.5251 -2.1959
 9640TIP3    H250336   4.820   4.267  12.746  3.0507  0.0262 -1.4473
 9641TIP3   OH250337   1.863   2.949  16.293 -0.3318 -0.2221  0.5702
 9641TIP3    H150338   1.859   2.883  16.362 -1.7441  1.7100  2.4138
 9641TIP3    H250339   1.908   3.023  16.333  0.4079  0.3065 -1.1735
 9642TIP3   OH250340   1.639   6.705   1.442  0.0760  0.4344 -0.2340
 9642TIP3    H150341   1.664   6.640   1.376 -0.6877 -0.0810 -0.0257
 9642TIP3    H250342   1.593   6.773   1.393 -1.7642 -0.6445 -0.0608
 9643TIP3   OH250343   4.891   1.935  14.801 -0.3821 -0.3439  0.1936
 9643TIP3    H150344   4.827   1.964  14.736 -0.8235 -0.2236  0.6755
 9643TIP3    H250345   4.893   1.840  14.792 -0.9580 -0.3881  0.4690
 9644TIP3   OH250346   0.282   5.974   5.705  0.9258  0.0725 -0.1907
 9644TIP3    H150347   0.328   6.018   5.633  2.1847  0.6686  0.9546
 9644TIP3    H250348   0.348   5.917   5.744 -0.2487 -1.6200 -0.6170
 9645TIP3   OH250349   3.931   0.462  14.943 -0.6018  0.2379 -0.6041
 9645TIP3    H150350   3.841   0.462  14.908 -0.1696  2.9291 -1.8633
 9645TIP3    H250351   3.984   0.424  14.872 -0.6070 -0.5548 -0.1937
 9646TIP3   OH250352   5.412   0.431  13.423 -0.0147  0.1744 -0.5537
 9646TIP3    H150353   5.332   0.480  13.402 -0.2607 -0.3986 -0.9839
 9646TIP3    H250354   5.400   0.346  13.381  0.9010  0.1426 -0.7718
 9647TIP3   OH250355   6.652   4.178   3.906 -0.0127  0.1622  1.3039
 9647TIP3    H150356   6.662   4.084   3.921  0.4373  0.0710  0.4234
 9647TIP3    H250357   6.557   4.193   3.912 -0.2288 -0.5987 -0.0203
 9648TIP3   OH250358   0.763   1.928   1.272  0.3259 -0.4519  0.0727
 9648TIP3    H150359   0.849   1.924   1.231 -0.3792 -3.3876 -1.2593
 9648TIP3    H250360   0.760   1.852   1.331 -0.5130  0.9323  1.8628
 9649TIP3   OH250361   3.028   2.934  11.861  0.1630  0.4584 -0.6201
 9649TIP3    H150362   2.973   2.872  11.812  1.2355 -1.6843  0.8497
 9649TIP3    H250363   3.110   2.936  11.812 -0.2389  1.5631 -1.2660
 9650TIP3   OH250364   5.855   2.274   3.817 -0.0878 -0.7217  0.1027
 9650TIP3    H150365   5.898   2.271   3.903  1.0571 -0.0609 -0.4223
 9650TIP3    H250366   5.905   2.213   3.764 -0.6532 -0.9574 -0.1553
 9651TIP3   OH250367   1.649   6.041   3.239 -0.4963  0.2136 -0.1471
 9651TIP3    H150368   1.675   6.133   3.236 -1.8499  0.6598  1.0253
 9651TIP3    H250369   1.555   6.044   3.256 -0.3952 -1.3930  0.7537
 9652TIP3   OH250370   2.746   1.956  12.207 -0.4140  0.6898 -0.1253
 9652TIP3    H150371   2.834   1.946  12.173  0.1474 -0.3642  1.5767
 9652TIP3    H250372   2.750   2.034  12.263 -1.5407  2.9329 -3.0151
 9653TIP3   OH250373   0.009   4.393   5.639 -0.1818  0.2201 -0.0075
 9653TIP3    H150374  -0.051   4.419   5.568 -2.7503  0.8714  2.3234
 9653TIP3    H250375  -0.002   4.298   5.645  0.3042  0.1144 -0.6835
 9654TIP3   OH250376   5.807   0.663  12.392  0.5257  0.3712  0.5245
 9654TIP3    H150377   5.829   0.570  12.379  0.1252  0.2096  0.9663
 9654TIP3    H250378   5.736   0.661  12.455  2.5311  1.1332  2.8908
 9655TIP3   OH250379   4.755   5.014   6.391 -0.2938 -0.6960 -0.3015
 9655TIP3    H150380   4.835   4.963   6.407 -0.7984 -0.7535  2.3330
 9655TIP3    H250381   4.787   5.098   6.358  0.7360 -1.4764 -1.3365
 9656TIP3   OH250382   3.495   2.878   2.791 -0.3800  0.1420  0.9761
 9656TIP3    H150383   3.515   2.846   2.879  1.3163 -2.0226 -0.1509
 9656TIP3    H250384   3.413   2.834   2.768  0.0809 -0.6543  0.8247
 9657TIP3   OH250385   5.017   5.675  14.273 -0.0744  0.4843 -0.0871
 9657TIP3    H150386   5.100   5.650  14.313  0.2281  0.0193 -0.9905
 9657TIP3    H250387   4.979   5.739  14.334  1.1802  1.0986  0.0619
 9658TIP3   OH250388   5.505   5.979   1.867 -0.4654 -0.1595 -0.2920
 9658TIP3    H150389   5.468   5.940   1.947 -1.2393 -0.7293 -0.9179
 9658TIP3    H250390   5.498   5.910   1.801  0.5674  0.1583 -0.7533
 9659TIP3   OH250391   5.823   6.156   0.913  0.0438 -0.3271  0.1134
 9659TIP3    H150392   5.882   6.138   0.840  0.4722  0.6662  0.2104
 9659TIP3    H250393   5.875   6.137   0.991  0.8457  2.2418  0.2495
 9660TIP3   OH250394   6.692   6.458  11.851 -0.2486  0.4020  0.1973
 9660TIP3    H150395   6.747   6.535  11.836  1.8758 -1.6014 -2.6153
 9660TIP3    H250396   6.746   6.400  11.905 -1.5369  0.4867  1.6202
 9661TIP3   OH250397   1.628   3.526   5.963 -0.0518  0.1160 -0.3000
 9661TIP3    H150398   1.632   3.622   5.963  1.6300  0.0702 -1.8679
 9661TIP3    H250399   1.544   3.506   6.005  1.0654  2.1885  3.1967
 9662TIP3   OH250400   3.697   4.994   3.076  0.0237  0.0258 -0.0470
 9662TIP3    H150401   3.790   4.973   3.083 -0.1094 -0.9528 -1.0988
 9662TIP3    H250402   3.690   5.082   3.113  1.3489  0.0765  0.1217
 9663TIP3   OH250403   3.026   5.649   0.406  0.6881  0.1181 -0.2802
 9663TIP3    H150404   3.080   5.665   0.329 -1.5774 -1.9014 -2.3457
 9663TIP3    H250405   3.085   5.662   0.480  3.9043 -1.6985 -2.4401
 9664TIP3   OH250406   3.579   4.105   4.020  0.1081  0.5661 -0.0038
 9664TIP3    H150407   3.628   4.062   3.950  0.5656  2.4991 -0.8765
 9664TIP3    H250408   3.617   4.069   4.100 -0.5951 -1.8669 -0.6891
 9665TIP3   OH250409   4.295   4.328   0.730 -0.0959  0.3191  0.7398
 9665TIP3    H150410   4.291   4.407   0.676 -0.9718  0.2356  0.6684
 9665TIP3    H250411   4.388   4.310   0.740  0.0661  0.0702 -1.1392
 9666TIP3   OH250412   3.022   2.194  16.199  0.0074  0.1308  0.3013
 9666TIP3    H150413   2.947   2.211  16.256 -0.9958  0.0612 -0.9497
 9666TIP3    H250414   3.088   2.258  16.224 -0.5617  0.3482  1.2590
 9667TIP3   OH250415   4.197   0.593   2.849 -0.7214 -0.2697 -0.2123
 9667TIP3    H150416   4.269   0.565   2.793 -1.1702 -1.3115 -0.2771
 9667TIP3    H250417   4.240   0.638   2.922 -0.0744  0.0730 -0.7974
 9668TIP3   OH250418   2.709   5.553   4.983  0.6254 -0.6431 -0.0314
 9668TIP3    H150419   2.694   5.459   4.974  1.0798 -0.7372  0.1884
 9668TIP3    H250420   2.657   5.579   5.059  0.7031 -0.7623  0.0612
 9669TIP3   OH250421   0.264   1.254  14.679 -0.1539  0.1560  0.3832
 9669TIP3    H150422   0.219   1.182  14.725 -1.0413  0.1500 -0.4892
 9669TIP3    H250423   0.233   1.333  14.722  0.1206  0.0812  0.7299
 9670TIP3   OH250424   1.754   4.577   4.863 -0.2884 -0.5734 -0.2880
 9670TIP3    H150425   1.831   4.588   4.918 -2.2598 -0.5464  2.5721
 9670TIP3    H250426   1.726   4.666   4.841 -0.3108 -0.5538 -0.1756
 9671TIP3   OH250427   0.087   4.337   4.052  0.0117 -0.4566  0.2848
 9671TIP3    H150428   0.150   4.282   4.006  0.9405  0.8140  0.0226
 9671TIP3    H250429   0.002   4.310   4.017  0.5226 -1.1099 -0.4689
 9672TIP3   OH250430   1.954   5.764   4.159 -0.0058 -0.3063  0.1893
 9672TIP3    H150431   2.044   5.794   4.172  0.8503 -2.1890 -1.0999
 9672TIP3    H250432   1.917   5.826   4.096  1.1733 -0.8868 -1.1072
 9673TIP3   OH250433   3.082   6.674  15.704  0.1407 -0.0544  0.2443
 9673TIP3    H150434   3.070   6.581  15.688  0.8676 -0.1682  0.3167
 9673TIP3    H250435   3.065   6.685  15.798 -0.7036  0.0190  0.0811
 9674TIP3   OH250436   1.992   0.514  11.169 -0.2194 -0.3272 -0.1061
 9674TIP3    H150437   1.935   0.587  11.143 -1.6049 -1.3988 -0.1564
 9674TIP3    H250438   2.036   0.545  11.248 -1.5041  0.2326  0.4076
 9675TIP3   OH250439   0.412   3.639   4.829 -0.2672  0.5284 -0.0497
 9675TIP3    H150440   0.339   3.585   4.800 -0.4802  0.8410 -0.1048
 9675TIP3    H250441   0.383   3.729   4.812  0.1056  0.6566 -0.0169
 9676TIP3   OH250442   3.237   4.741  15.159  0.2154  0.2420 -0.0473
 9676TIP3    H150443   3.219   4.717  15.250  0.4154 -1.3839 -0.4124
 9676TIP3    H250444   3.155   4.723  15.113  0.0654  1.2139 -0.1630
 9677TIP3   OH250445   6.266   1.452   3.836 -0.0243  0.5599  0.0729
 9677TIP3    H150446   6.321   1.426   3.910  0.4488 -0.3535 -0.5859
 9677TIP3    H250447   6.264   1.547   3.839  0.0125  0.5261  1.2512
 9678TIP3   OH250448   3.088   0.849   4.854  0.0191 -0.0984  0.2835
 9678TIP3    H150449   3.135   0.782   4.905  1.3565  0.4113 -0.2612
 9678TIP3    H250450   2.996   0.826   4.865  0.3450 -0.7842  1.8480
 9679TIP3   OH250451   5.744   4.348  13.888  0.8528  0.5010 -0.6200
 9679TIP3    H150452   5.762   4.439  13.866  2.4019  0.5370  0.7328
 9679TIP3    H250453   5.801   4.298  13.828  0.5997  0.4403 -0.8115
 9680TIP3   OH250454   5.315   6.368   4.617 -0.2453 -0.1497 -0.1509
 9680TIP3    H150455   5.286   6.431   4.683  0.2227  0.0633 -0.1492
 9680TIP3    H250456   5.377   6.311   4.663 -1.3810 -1.2232  0.1075
 9681TIP3   OH250457   2.975   3.251   0.865  0.0639  0.0177 -0.1694
 9681TIP3    H150458   3.061   3.222   0.895 -0.6546 -0.9731  0.9849
 9681TIP3    H250459   2.954   3.193   0.792 -0.0958 -0.4674  0.2573
 9682TIP3   OH250460   2.655   0.079   4.670 -0.6996  0.4390 -0.3641
 9682TIP3    H150461   2.643  -0.016   4.680  0.1866 -0.0546 -3.3889
 9682TIP3    H250462   2.734   0.099   4.720 -1.2937 -0.2856  0.8741
 9683TIP3   OH250463   3.724   2.438  13.159 -0.2666 -0.5118  0.4903
 9683TIP3    H150464   3.655   2.492  13.198  1.2824  0.7719  1.5103
 9683TIP3    H250465   3.802   2.493  13.162  0.9299 -2.1396 -0.1663
 9684TIP3   OH250466   0.560   0.905   3.562  0.2316  0.1922  0.3552
 9684TIP3    H150467   0.522   0.859   3.487 -1.6887  0.0455  1.3933
 9684TIP3    H250468   0.589   0.989   3.527  0.5440 -0.3955 -0.8129
 9685TIP3   OH250469   5.190   3.524   3.225 -0.1740 -0.4613 -0.3008
 9685TIP3    H150470   5.112   3.578   3.240  0.5969  0.1514  1.7557
 9685TIP3    H250471   5.163   3.436   3.251  0.2874  0.0687  2.1431
 9686TIP3   OH250472   0.484   3.669  13.317 -0.4533 -0.5783 -0.2935
 9686TIP3    H150473   0.451   3.725  13.246  1.1691  0.2290 -0.4452
 9686TIP3    H250474   0.419   3.678  13.387 -1.1047  0.1287 -0.9764
 9687TIP3   OH250475   4.433   6.494  11.179  0.3804 -0.1471  0.0725
 9687TIP3    H150476   4.339   6.513  11.177  0.3988 -0.2128 -2.6099
 9687TIP3    H250477   4.472   6.568  11.225 -0.8958  0.2217  0.5716
 9688TIP3   OH250478   4.410   4.790   5.558  0.2290 -0.1395  0.0053
 9688TIP3    H150479   4.343   4.858   5.553 -1.7980 -2.1112 -0.5297
 9688TIP3    H250480   4.424   4.778   5.652 -0.1461  0.2945  0.1191
 9689TIP3   OH250481   1.693   3.932   5.020 -0.4208 -0.3361  0.6502
 9689TIP3    H150482   1.604   3.952   5.047  0.1546 -0.5176  2.8115
 9689TIP3    H250483   1.748   3.968   5.090  1.1847 -0.6362 -0.4080
 9690TIP3   OH250484   4.111   4.765  13.225 -0.2940 -0.0175 -0.3971
 9690TIP3    H150485   4.019   4.765  13.198 -0.4700 -3.0867 -0.0091
 9690TIP3    H250486   4.160   4.750  13.144 -0.0440  2.3674 -0.7226
 9691TIP3   OH250487   5.273   4.400  11.702  0.1178 -0.1207  0.0890
 9691TIP3    H150488   5.257   4.354  11.619 -0.9842  1.9577 -0.8987
 9691TIP3    H250489   5.206   4.366  11.761 -0.2821 -0.2670 -0.4398
 9692TIP3   OH250490   1.112   2.972   4.421  0.1595  0.1402 -0.1505
 9692TIP3    H150491   1.177   3.001   4.485 -0.3999 -1.1655  1.0226
 9692TIP3    H250492   1.133   2.880   4.405 -0.0989  0.2864 -1.3758
 9693TIP3   OH250493   1.034   1.551   0.023 -0.0685 -0.1624  0.6264
 9693TIP3    H150494   0.958   1.608   0.034 -0.6731 -0.7922 -0.2158
 9693TIP3    H250495   1.085   1.563   0.103 -1.5282 -0.4610  1.6197
 9694TIP3   OH250496   1.688   1.618  13.312 -0.2465 -0.7896  0.4543
 9694TIP3    H150497   1.634   1.649  13.384  0.2682 -1.3882  1.1005
 9694TIP3    H250498   1.629   1.617  13.236 -0.2320  1.8833  0.3872
 9695TIP3   OH250499   3.564   5.790  15.612 -0.3228 -0.0172  0.0465
 9695TIP3    H150500   3.577   5.810  15.519  0.5500 -0.4679  0.0643
 9695TIP3    H250501   3.642   5.740  15.637 -1.2626 -1.2202  0.6471
 9696TIP3   OH250502   2.014   2.157   4.515 -0.4122  0.5674  0.1174
 9696TIP3    H150503   1.925   2.149   4.481  0.2117 -2.0510 -1.0080
 9696TIP3    H250504   2.007   2.134   4.607 -0.7437 -0.6021 -0.1958
 9697TIP3   OH250505   1.649   4.950  14.885  0.1592  0.5647 -0.1109
 9697TIP3    H150506   1.710   4.891  14.930  1.5762  2.0603 -0.0318
 9697TIP3    H250507   1.610   5.001  14.956 -1.6894 -0.8255 -0.0997
 9698TIP3   OH250508   2.189   5.680  13.767  0.2485 -0.8278  0.3566
 9698TIP3    H150509   2.123   5.648  13.828  0.4444  1.3917  1.8098
 9698TIP3    H250510   2.269   5.688  13.821  1.4422 -2.4482 -1.1117
 9699TIP3   OH250511   2.015   3.595   2.771 -0.1725 -0.2552  1.1797
 9699TIP3    H150512   1.930   3.602   2.727 -0.8573 -0.7404  2.3996
 9699TIP3    H250513   2.075   3.567   2.702 -0.8177  0.9003  0.1056
 9700TIP3   OH250514   2.122   5.340  14.487  0.1553 -0.5408 -0.4880
 9700TIP3    H150515   2.167   5.296  14.415 -1.1816 -0.2665 -1.5253
 9700TIP3    H250516   2.029   5.331  14.466 -0.2612 -0.5140  1.2539
 9701TIP3   OH250517   1.246   6.107  15.733 -0.0055 -0.0382  0.3474
 9701TIP3    H150518   1.236   6.130  15.826  0.3770  1.1771  0.0916
 9701TIP3    H250519   1.163   6.131  15.693  0.0385 -0.0231  0.2665
 9702TIP3   OH250520   2.415   2.308   4.638  0.1132 -0.0569 -0.0056
 9702TIP3    H150521   2.359   2.324   4.713  1.1303  0.4999  0.6497
 9702TIP3    H250522   2.457   2.224   4.656 -0.8328 -0.7026 -0.7144
 9703TIP3   OH250523   4.279   6.283   5.490  0.0135  0.7885 -0.2331
 9703TIP3    H150524   4.294   6.218   5.559 -0.0956  1.4774  0.4479
 9703TIP3    H250525   4.190   6.315   5.505 -0.7459 -0.4513 -1.8879
 9704TIP3   OH250526   3.803   3.683   5.547 -0.1577 -0.0535 -0.6514
 9704TIP3    H150527   3.895   3.671   5.569 -0.1828 -0.7004 -0.9070
 9704TIP3    H250528   3.804   3.744   5.473  0.0954 -0.6156 -1.1056
 9705TIP3   OH250529   3.493   0.143  16.106 -0.5805 -0.2640 -0.0924
 9705TIP3    H150530   3.506   0.232  16.073 -1.7126 -0.0714 -0.0411
 9705TIP3    H250531   3.580   0.104  16.105  0.5802  2.0219  3.3392
 9706TIP3   OH250532   1.441   3.725   4.681  0.0351 -0.1055  0.0852
 9706TIP3    H150533   1.426   3.723   4.775  4.1517  0.8217  0.8540
 9706TIP3    H250534   1.488   3.644   4.663 -0.6342 -0.2247 -1.2060
 9707TIP3   OH250535   1.678   4.784   2.069 -0.1281  0.1973 -0.0764
 9707TIP3    H150536   1.629   4.814   2.147 -1.7505 -2.0093 -0.2029
 9707TIP3    H250537   1.648   4.842   1.999 -1.2257 -0.0003  0.2242
 9708TIP3   OH250538   3.388   5.072   5.915 -0.1987  0.1772  0.3536
 9708TIP3    H150539   3.397   4.996   5.858  1.5769 -0.4281  1.3866
 9708TIP3    H250540   3.337   5.135   5.864 -1.1948 -1.4740 -0.7343
 9709TIP3   OH250541   4.531   5.223   5.126  0.1479  0.1829 -0.1095
 9709TIP3    H150542   4.565   5.161   5.189 -0.7946 -0.3869 -0.1465
 9709TIP3    H250543   4.571   5.307   5.150 -1.7974  0.4138  2.5726
 9710TIP3   OH250544   1.960   6.662  15.255  0.0374  0.1578 -0.1674
 9710TIP3    H150545   2.048   6.697  15.238 -0.4657  0.5734 -2.0733
 9710TIP3    H250546   1.911   6.737  15.289 -0.0307  0.3692 -0.7232
 9711TIP3   OH250547   3.056   5.590   4.531  0.3101  0.3332 -0.3276
 9711TIP3    H150548   2.970   5.630   4.526  0.1771 -0.0346 -0.9874
 9711TIP3    H250549   3.083   5.602   4.623  0.7855  2.9773 -0.7608
 9712TIP3   OH250550   1.368   1.414   2.694  0.1380  0.0224  0.3982
 9712TIP3    H150551   1.447   1.440   2.646 -0.5329  0.4740 -0.4885
 9712TIP3    H250552   1.305   1.390   2.626 -0.2729 -0.9892  1.1173
 9713TIP3   OH250553   1.398   3.104  15.919 -0.0822  0.5164 -0.3199
 9713TIP3    H150554   1.344   3.129  15.844  0.2417  0.7135 -0.4875
 9713TIP3    H250555   1.485   3.087  15.882 -0.3921 -1.2712 -0.2789
 9714TIP3   OH250556   2.850   2.529  16.220  0.1780  0.3109  0.7086
 9714TIP3    H150557   2.804   2.605  16.254 -1.0604  0.0106 -0.2484
 9714TIP3    H250558   2.903   2.497  16.293  0.1411  1.6470  1.3177
 9715TIP3   OH250559   1.412   3.316  16.126 -0.6673  0.1814 -0.2135
 9715TIP3    H150560   1.444   3.263  16.053 -0.1821 -1.2137  0.9791
 9715TIP3    H250561   1.459   3.399  16.119  1.4902 -0.9954  0.1719
 9716TIP3   OH250562   0.556   2.710   5.849 -0.2227 -0.0887  0.3587
 9716TIP3    H150563   0.488   2.644   5.837  0.7217 -0.6993 -1.8652
 9716TIP3    H250564   0.582   2.734   5.760  1.8444  0.7948  1.1775
 9717TIP3   OH250565   4.653   6.386  15.822  0.0754  0.1108 -0.2591
 9717TIP3    H150566   4.701   6.405  15.903 -0.4621 -1.1211  0.3634
 9717TIP3    H250567   4.720   6.352  15.763  0.2153 -0.3547  0.1626
 9718TIP3   OH250568   5.162   1.311  10.668 -0.2284  0.0757 -0.2718
 9718TIP3    H150569   5.119   1.388  10.704 -1.3429 -0.4069 -0.5296
 9718TIP3    H250570   5.111   1.289  10.590 -1.1035 -2.0262  0.8337
 9719TIP3   OH250571   0.850   5.838   1.383  0.1853 -0.1432  0.3612
 9719TIP3    H150572   0.833   5.911   1.323 -0.1863  1.4949  2.4163
 9719TIP3    H250573   0.767   5.823   1.427  0.1991 -1.9920 -0.1904
 9720TIP3   OH250574   3.660   3.031  16.548 -0.0106 -1.2090  0.4190
 9720TIP3    H150575   3.708   3.017  16.629  0.2012 -0.9074  0.3491
 9720TIP3    H250576   3.683   3.120  16.521 -0.4585 -1.1314  0.2853
 9721TIP3   OH250577   1.254   4.919  13.533  0.0328  0.0828  0.0242
 9721TIP3    H150578   1.218   4.886  13.450  0.0673 -1.6888  0.6829
 9721TIP3    H250579   1.337   4.873  13.543  0.1804  0.5278  0.8843
 9722TIP3   OH250580   5.242   1.671  17.164  0.1052 -0.0480  0.5310
 9722TIP3    H150581   5.295   1.731  17.216 -0.0330 -0.2744  0.9449
 9722TIP3    H250582   5.198   1.616  17.230  0.6446 -0.9488  0.1454
 9723TIP3   OH250583   4.805   4.519   4.342 -0.2958 -0.0218 -0.1849
 9723TIP3    H150584   4.710   4.508   4.349 -0.2738  0.3133  0.6494
 9723TIP3    H250585   4.815   4.598   4.289 -0.5082  1.0136  1.2797
 9724TIP3   OH250586   4.240   1.832   2.992 -0.2434  0.3183  0.1099
 9724TIP3    H150587   4.174   1.763   2.993  1.2997 -1.2078  0.2711
 9724TIP3    H250588   4.212   1.891   2.921 -1.5521 -0.5033 -0.0754
 9725TIP3   OH250589   4.704   5.111  13.755 -0.1409  0.2981  0.5564
 9725TIP3    H150590   4.671   5.199  13.777  1.8696  1.2891 -0.2276
 9725TIP3    H250591   4.765   5.090  13.826  0.0942 -0.0448  0.2566
 9726TIP3   OH250592   1.647   3.334  11.278 -0.4155 -0.4572 -0.0515
 9726TIP3    H150593   1.552   3.339  11.283 -0.4536 -0.1751 -1.1425
 9726TIP3    H250594   1.673   3.404  11.218  0.6496  0.9462  1.9826
 9727TIP3   OH250595   2.346   0.061  11.243  0.4556 -0.1502 -0.0537
 9727TIP3    H150596   2.310   0.054  11.332  0.2013 -0.3294 -0.1718
 9727TIP3    H250597   2.366   0.155  11.233 -1.0480  0.1520 -0.3997
 9728TIP3   OH250598   2.013   4.240  12.577 -0.0937  0.2970  0.0204
 9728TIP3    H150599   2.069   4.203  12.509  1.9131 -0.2204  1.8818
 9728TIP3    H250600   2.046   4.329  12.590 -0.9739  0.6643 -0.2137
 9729TIP3   OH250601   2.118   2.230  15.410  0.0856  0.6989  0.1747
 9729TIP3    H150602   2.198   2.183  15.385 -0.3221 -0.1643  0.4783
 9729TIP3    H250603   2.062   2.223  15.332  0.1439  0.9497  0.1108
 9730TIP3   OH250604   5.250   5.067   0.474  0.0707  0.8563 -0.2011
 9730TIP3    H150605   5.260   5.077   0.568  1.4012  1.2221 -0.3772
 9730TIP3    H250606   5.157   5.047   0.462 -0.1905  1.2229  1.1470
 9731TIP3   OH250607   0.680   3.109   4.507 -0.1443  0.6335  0.4724
 9731TIP3    H150608   0.630   3.138   4.584 -0.5918  1.3868 -0.1013
 9731TIP3    H250609   0.615   3.102   4.437  0.3162  0.2292  0.0849
 9732TIP3   OH250610   4.587   3.442   0.765 -0.2467 -0.2614  0.7327
 9732TIP3    H150611   4.544   3.519   0.802 -1.6703 -1.0153  0.6727
 9732TIP3    H250612   4.653   3.478   0.705 -0.3412  0.9113  1.3068
 9733TIP3   OH250613   5.378   6.041  10.810  0.1906 -0.1363  0.3003
 9733TIP3    H150614   5.410   6.009  10.895 -1.1859 -0.8347  0.5761
 9733TIP3    H250615   5.344   5.962  10.767  1.6966  0.0464 -1.3005
 9734TIP3   OH250616   2.664   2.568  12.100  0.3459  0.2365 -0.3077
 9734TIP3    H150617   2.647   2.604  12.013  0.6138  0.7164 -0.1633
 9734TIP3    H250618   2.588   2.513  12.118  0.5839 -0.3754 -1.1095
 9735TIP3   OH250619   3.426   2.953  15.751 -0.3876 -0.2338  0.3937
 9735TIP3    H150620   3.464   3.022  15.805  2.2008 -0.6401 -0.8374
 9735TIP3    H250621   3.437   2.984  15.661  0.3574 -2.0122 -0.1453
 9736TIP3   OH250622   4.555   1.335   2.108  0.0164 -0.6949 -0.4032
 9736TIP3    H150623   4.552   1.417   2.060 -0.3816 -1.2063 -1.2644
 9736TIP3    H250624   4.548   1.361   2.200 -1.1124  0.1654 -0.7254
 9737TIP3   OH250625   4.664   1.328   6.496 -0.7227  0.4864 -0.1363
 9737TIP3    H150626   4.750   1.299   6.523 -1.1726  0.8307  1.7732
 9737TIP3    H250627   4.681   1.397   6.431  0.4683  1.1403  0.8382
 9738TIP3   OH250628   4.480   0.404   4.030  0.1037 -0.0154 -0.5933
 9738TIP3    H150629   4.474   0.497   4.054 -1.1108 -0.4918  1.0031
 9738TIP3    H250630   4.406   0.390   3.971 -0.3813 -0.2405  0.0703
 9739TIP3   OH250631   2.606   3.969   3.814 -0.6222  0.3029 -0.9640
 9739TIP3    H150632   2.579   3.913   3.741 -2.3848 -0.5978  0.3339
 9739TIP3    H250633   2.596   3.914   3.892  0.7396  1.4081  0.0107
 9740TIP3   OH250634   0.537   1.859  15.151 -0.6026  0.8007 -0.0617
 9740TIP3    H150635   0.542   1.920  15.078 -0.1883  1.6711  0.6911
 9740TIP3    H250636   0.530   1.773  15.109  2.8638  0.9703 -1.1599
 9741TIP3   OH250637   4.568   1.595  15.586  0.4591  0.1755 -0.0825
 9741TIP3    H150638   4.640   1.638  15.539 -1.5225  2.5469 -1.0461
 9741TIP3    H250639   4.519   1.549  15.518  0.4013 -0.4960  0.4119
 9742TIP3   OH250640   5.118   3.630  17.229 -0.1506 -0.4132 -0.0504
 9742TIP3    H150641   5.138   3.543  17.194 -0.2162 -0.2782 -0.4288
 9742TIP3    H250642   5.176   3.639  17.305  2.0026  0.3445 -1.6955
 9743TIP3   OH250643   3.991   0.296  16.224 -0.6294  0.2300 -0.1039
 9743TIP3    H150644   4.042   0.297  16.305  0.8410 -0.3852 -0.9843
 9743TIP3    H250645   3.900   0.292  16.252 -0.1280 -0.0529  1.5123
 9744TIP3   OH250646   5.750   3.068   1.553 -1.0223  0.7831  0.3055
 9744TIP3    H150647   5.674   3.126   1.558 -2.4981 -1.1252  0.4137
 9744TIP3    H250648   5.724   2.999   1.492  0.0745 -0.7081  1.4888
 9745TIP3   OH250649   4.093   2.698   1.093 -0.0800 -0.7160  0.1903
 9745TIP3    H150650   4.161   2.751   1.052  1.1002 -1.7193  0.8104
 9745TIP3    H250651   4.041   2.760   1.144 -0.1288  0.1722 -0.9425
 9746TIP3   OH250652   1.352   4.134  14.608 -0.1720  0.0606 -0.1557
 9746TIP3    H150653   1.268   4.132  14.653 -0.9944  2.5614 -1.4585
 9746TIP3    H250654   1.342   4.073  14.535 -1.4184  1.4693 -1.1854
 9747TIP3   OH250655   5.954   3.893   4.761 -0.3945 -0.6585 -0.1133
 9747TIP3    H150656   5.965   3.798   4.758 -1.5967 -0.8729  1.5587
 9747TIP3    H250657   5.859   3.906   4.763 -0.2473  0.4177  2.5811
 9748TIP3   OH250658   2.645   4.871   2.822  0.4398  0.1537 -0.5462
 9748TIP3    H150659   2.566   4.926   2.825  0.1747 -0.2720  0.6941
 9748TIP3    H250660   2.713   4.930   2.791 -0.1151  0.8511 -0.4634
 9749TIP3   OH250661   5.705   6.697  12.321 -0.1622 -0.0077  0.0953
 9749TIP3    H150662   5.683   6.623  12.264 -0.6879 -0.6536  1.1376
 9749TIP3    H250663   5.711   6.772  12.261  0.1218 -0.8373 -0.9280
 9750TIP3   OH250664   5.458   6.738   5.882  0.5052 -0.3334  0.0538
 9750TIP3    H150665   5.475   6.646   5.904  0.0401 -0.6908 -1.0221
 9750TIP3    H250666   5.544   6.780   5.884  0.6257 -0.6318  1.2727
 9751TIP3   OH250667   6.658   3.529   3.559 -0.1610 -0.1872  0.0448
 9751TIP3    H150668   6.718   3.471   3.604 -2.9303 -1.8145  1.8090
 9751TIP3    H250669   6.657   3.497   3.469  0.2801 -1.2534  0.4104
 9752TIP3   OH250670   2.902   1.315   5.838  0.1863 -0.0348 -0.5925
 9752TIP3    H150671   2.960   1.260   5.786  0.3869 -0.9346  0.5694
 9752TIP3    H250672   2.872   1.258   5.909  1.6581  1.7850  1.5692
 9753TIP3   OH250673   0.917   0.209  11.757  0.1902 -0.8673 -0.2156
 9753TIP3    H150674   0.977   0.258  11.813  0.2735  0.0773 -1.1235
 9753TIP3    H250675   0.919   0.255  11.673 -1.9333 -0.7384 -0.2166
 9754TIP3   OH250676   5.645   5.982  14.384 -0.4311 -0.3405  0.2498
 9754TIP3    H150677   5.582   5.966  14.454 -0.3795  0.4843  0.4875
 9754TIP3    H250678   5.727   6.003  14.429 -0.3846  0.1337 -0.0585
 9755TIP3   OH250679   1.481   0.784  17.025 -0.2984  0.3045  0.2137
 9755TIP3    H150680   1.442   0.801  17.111 -0.3665  0.9376  0.0658
 9755TIP3    H250681   1.476   0.869  16.980  1.7099  0.5516  0.3713
 9756TIP3   OH250682   4.362   1.997   3.220  0.4115 -0.1636 -0.1957
 9756TIP3    H150683   4.362   1.933   3.150 -0.4839  0.2536 -0.5936
 9756TIP3    H250684   4.340   2.080   3.177 -1.1478 -0.0797  0.7013
 9757TIP3   OH250685   3.951   4.399  14.305  0.2361 -0.2333 -0.4066
 9757TIP3    H150686   3.919   4.473  14.357 -0.7597  0.2514 -1.6737
 9757TIP3    H250687   3.895   4.326  14.330  0.2349 -0.1856 -0.2682
 9758TIP3   OH250688   0.215   3.534  12.236 -0.4522 -0.2884 -0.3120
 9758TIP3    H150689   0.252   3.609  12.284 -0.8069 -0.2734 -0.0601
 9758TIP3    H250690   0.123   3.558  12.222 -1.2310 -1.7583  1.9669
 9759TIP3   OH250691   4.099   1.957   4.041  0.1323 -0.7123  0.1502
 9759TIP3    H150692   4.183   1.913   4.054 -0.2114 -1.7414 -1.0000
 9759TIP3    H250693   4.121   2.050   4.043  1.2875 -0.9667 -0.0390
 9760TIP3   OH250694   5.271   2.138   3.221 -0.1728 -0.0129 -0.3521
 9760TIP3    H150695   5.290   2.230   3.205  1.9121 -0.5281 -0.9877
 9760TIP3    H250696   5.273   2.129   3.316  0.2651  0.4715 -0.3107
 9761TIP3   OH250697   1.099   0.436  13.037  0.1876  0.7454  0.8262
 9761TIP3    H150698   1.062   0.371  13.096 -1.2702  0.4270 -0.4009
 9761TIP3    H250699   1.176   0.393  12.999 -1.0644 -0.4967 -0.3746
 9762TIP3   OH250700   4.176   5.792   1.690  0.4541 -0.1123  0.0162
 9762TIP3    H150701   4.215   5.790   1.602  2.7379 -0.2247  0.9948
 9762TIP3    H250702   4.207   5.874   1.728 -0.2838 -0.2054  0.8390
 9763TIP3   OH250703   3.966   5.194  14.842  0.1072  0.0408 -0.3316
 9763TIP3    H150704   4.008   5.205  14.928  0.8558 -1.0665 -0.5428
 9763TIP3    H250705   3.876   5.226  14.855  0.6574  1.3041  0.4536
 9764TIP3   OH250706   2.766   6.616   3.933 -0.1083  0.7252 -0.3598
 9764TIP3    H150707   2.734   6.700   3.900  0.3936  2.0349  2.3788
 9764TIP3    H250708   2.857   6.633   3.958 -0.5960 -0.0764  2.0666
 9765TIP3   OH250709   3.159   5.806   0.190  0.1787  0.6102  0.1535
 9765TIP3    H150710   3.234   5.862   0.211  1.4729 -0.3088 -1.9190
 9765TIP3    H250711   3.184   5.761   0.110 -1.9286 -0.9798  0.3522
 9766TIP3   OH250712   3.681   6.320   4.408 -0.4796  0.5215  0.3485
 9766TIP3    H150713   3.700   6.402   4.453 -2.1901  1.4782 -0.6536
 9766TIP3    H250714   3.673   6.255   4.479 -0.0966  1.3856  1.1951
 9767TIP3   OH250715   1.752   1.744   4.578 -0.0198 -0.5540 -0.0586
 9767TIP3    H150716   1.844   1.769   4.588 -0.4859  1.5646 -0.8318
 9767TIP3    H250717   1.704   1.808   4.630 -1.3061  0.6887 -2.7241
 9768TIP3   OH250718   0.018   6.210   3.451  0.3525 -0.6504 -0.1082
 9768TIP3    H150719   0.007   6.124   3.491 -0.2688 -0.8134 -0.6214
 9768TIP3    H250720  -0.030   6.205   3.369 -2.5030  1.2335  1.3564
 9769TIP3   OH250721   0.228   4.494   5.815  0.1356 -0.6065  0.1765
 9769TIP3    H150722   0.186   4.572   5.778  0.1182 -0.4857  0.4438
 9769TIP3    H250723   0.167   4.423   5.796  1.0518 -0.9057 -1.7708
 9770TIP3   OH250724   6.153   1.026  12.468 -0.5618 -0.2533  0.2374
 9770TIP3    H150725   6.095   1.102  12.465 -0.6442 -0.3188  0.1465
 9770TIP3    H250726   6.201   1.035  12.550 -1.6416 -0.8880  0.9617
 9771TIP3   OH250727   3.745   5.229   3.521  0.0808  0.1276 -0.2008
 9771TIP3    H150728   3.762   5.261   3.609 -1.2209  0.3999 -0.0458
 9771TIP3    H250729   3.665   5.177   3.529  0.8997 -1.2957 -0.8904
 9772TIP3   OH250730   6.198   4.910   2.147 -0.0417  0.0368 -0.1955
 9772TIP3    H150731   6.222   5.002   2.134 -0.2529  0.1415  0.1454
 9772TIP3    H250732   6.204   4.897   2.242 -0.8729 -0.0655 -0.1575
 9773TIP3   OH250733   5.847   1.937  12.948 -0.0336 -0.0573  0.3859
 9773TIP3    H150734   5.784   1.869  12.973 -0.0462 -0.3119 -0.3117
 9773TIP3    H250735   5.932   1.893  12.951 -0.3322 -1.0324 -3.1592
 9774TIP3   OH250736   0.951   6.686  15.968 -0.3558 -0.6566  0.0220
 9774TIP3    H150737   0.947   6.666  15.875 -0.1110 -0.6143  0.0030
 9774TIP3    H250738   1.040   6.662  15.994 -0.6307 -1.2809  0.3842
 9775TIP3   OH250739   6.070   2.888   6.085  0.2531  0.1182 -0.2518
 9775TIP3    H150740   6.064   2.845   6.170  0.4673 -0.7800 -0.6858
 9775TIP3    H250741   6.112   2.972   6.103  1.3690 -0.5605  0.3606
 9776TIP3   OH250742   4.227   4.780  17.034 -0.0301 -0.4338  0.2848
 9776TIP3    H150743   4.297   4.831  17.073 -2.6188  2.0317  1.8852
 9776TIP3    H250744   4.225   4.807  16.943  1.6055 -1.1801  0.0017
 9777TIP3   OH250745   0.860   2.889  12.164 -0.1455  0.0690 -0.1841
 9777TIP3    H150746   0.783   2.836  12.184  1.3646 -1.6400  1.2363
 9777TIP3    H250747   0.835   2.978  12.188 -2.3022 -0.1663 -1.4732
 9778TIP3   OH250748   5.404   1.208  15.489 -0.0997  0.5278 -0.3805
 9778TIP3    H150749   5.443   1.143  15.547 -0.3060  0.2251 -0.5771
 9778TIP3    H250750   5.404   1.289  15.540 -2.3323 -0.2280  0.8911
 9779TIP3   OH250751   5.290   2.371   6.059 -0.0876  0.5271 -0.0953
 9779TIP3    H150752   5.373   2.383   6.014 -0.8657 -0.8359 -1.9661
 9779TIP3    H250753   5.307   2.302   6.123  0.4239  0.8135  0.0749
 9780TIP3   OH250754   0.392   0.066   1.329 -0.2045  0.5798 -0.4135
 9780TIP3    H150755   0.404   0.160   1.344 -0.8205  0.1398  3.3493
 9780TIP3    H250756   0.481   0.032   1.316  0.0822  1.5304 -0.9700
 9781TIP3   OH250757   3.324   2.346   3.314  0.1753 -0.4451 -0.2680
 9781TIP3    H150758   3.365   2.259   3.315  2.3637  0.5260 -1.3023
 9781TIP3    H250759   3.331   2.376   3.405  0.0806 -1.0405 -0.0592
 9782TIP3   OH250760   2.472   4.723  10.946  0.5049 -0.2760 -0.6407
 9782TIP3    H150761   2.516   4.656  10.892 -0.7747 -0.7421 -1.1148
 9782TIP3    H250762   2.390   4.682  10.972  0.9437  0.0969  1.3745
 9783TIP3   OH250763   2.690   0.713  13.718 -0.3266  0.2501  0.0690
 9783TIP3    H150764   2.723   0.750  13.636  0.8884  1.2163  0.9707
 9783TIP3    H250765   2.675   0.621  13.698 -1.0818  0.6908 -1.5369
 9784TIP3   OH250766   0.976   5.113  11.906 -0.2259  0.3877  0.0010
 9784TIP3    H150767   0.907   5.047  11.912  1.5441 -1.4521  0.8923
 9784TIP3    H250768   1.000   5.114  11.813 -1.1194  0.7085 -0.2320
 9785TIP3   OH250769   0.111   6.749   1.275 -0.0335 -0.5623  0.0917
 9785TIP3    H150770   0.068   6.835   1.270 -0.7101 -0.9785 -1.7017
 9785TIP3    H250771   0.199   6.768   1.306 -0.1264  0.8057 -0.4454
 9786TIP3   OH250772   3.595   6.706   1.531  0.4889 -0.5767 -0.0876
 9786TIP3    H150773   3.616   6.641   1.598  3.5650  1.1651  0.7551
 9786TIP3    H250774   3.679   6.750   1.514 -1.2886  2.4115 -1.3991
 9787TIP3   OH250775   3.293   4.140  11.370  0.5750  0.5715  0.3529
 9787TIP3    H150776   3.233   4.133  11.444  0.0810 -1.0474 -0.1770
 9787TIP3    H250777   3.378   4.116  11.407  0.3315 -0.2248  0.4120
 9788TIP3   OH250778   6.348   2.683   5.397 -0.5005  0.4471 -0.0219
 9788TIP3    H150779   6.290   2.721   5.463 -0.4700  0.1458  0.1790
 9788TIP3    H250780   6.433   2.724   5.414 -0.7285  1.1476 -0.5349
 9789TIP3   OH250781   1.497   5.886   6.450  0.4426 -0.5119 -0.3339
 9789TIP3    H150782   1.447   5.811   6.417 -0.0976 -0.3827  0.1865
 9789TIP3    H250783   1.451   5.963   6.417  0.1299 -0.3895  0.3734
 9790TIP3   OH250784   6.528   0.048  14.258  0.0760  0.2052  0.2330
 9790TIP3    H150785   6.455  -0.014  14.266  1.1274 -1.0958  0.0623
 9790TIP3    H250786   6.510   0.115  14.324 -0.2493 -1.1724  1.5874
 9791TIP3   OH250787   4.664   4.290   2.997  0.6242 -0.4573  0.4685
 9791TIP3    H150788   4.636   4.280   3.088 -0.5576  0.0413  0.1710
 9791TIP3    H250789   4.690   4.202   2.970 -0.1643 -0.8304  0.9113
 9792TIP3   OH250790   6.763   6.233  14.954  0.2502  0.0380  0.1881
 9792TIP3    H150791   6.744   6.285  14.876  0.6772 -0.5673 -0.3185
 9792TIP3    H250792   6.810   6.156  14.922 -1.7174 -1.4430  0.7262
 9793TIP3   OH250793   0.565   3.187   5.175 -0.2976  0.1363 -0.3601
 9793TIP3    H150794   0.475   3.159   5.162 -0.8684  1.4814  0.6580
 9793TIP3    H250795   0.572   3.271   5.130  0.8944 -0.7094 -1.7995
 9794TIP3   OH250796   6.211   6.663  16.952  0.3099 -0.2059 -0.0591
 9794TIP3    H150797   6.244   6.745  16.917  1.4551 -0.6761 -0.0876
 9794TIP3    H250798   6.287   6.605  16.955 -0.5535 -1.3854 -0.3870
 9795TIP3   OH250799   6.550   2.120   2.912 -0.2049  0.9449  0.2411
 9795TIP3    H150800   6.546   2.027   2.932 -2.9928  0.7093 -1.2415
 9795TIP3    H250801   6.587   2.160   2.991 -0.2698 -1.2503  1.4136
 9796TIP3   OH250802   0.858   4.775  12.801 -0.0351  0.5225  0.0944
 9796TIP3    H150803   0.908   4.694  12.792 -2.0223 -0.6468 -0.6972
 9796TIP3    H250804   0.903   4.837  12.743  0.6544 -0.4228 -0.3953
 9797TIP3   OH250805   6.011   2.781  17.226 -0.2023  0.5797 -0.3749
 9797TIP3    H150806   6.027   2.755  17.135 -1.7352 -0.7944 -0.2758
 9797TIP3    H250807   5.975   2.869  17.220 -3.0460 -0.6080 -1.3159
 9798TIP3   OH250808   0.288   5.768   0.677  0.3322  0.2413  0.2626
 9798TIP3    H150809   0.229   5.725   0.616  3.7456 -1.2601 -2.1438
 9798TIP3    H250810   0.288   5.710   0.754  0.3070 -0.8951 -0.5747
 9799TIP3   OH250811   0.321   4.363  15.805  0.7331  0.0415 -0.1564
 9799TIP3    H150812   0.386   4.362  15.875 -0.3678 -4.6555  0.9761
 9799TIP3    H250813   0.350   4.293  15.745  0.2641  2.2770 -3.0928
 9800TIP3   OH250814   4.206   5.049  14.121  0.0758 -0.3082 -0.2590
 9800TIP3    H150815   4.223   4.960  14.151 -0.7975 -0.2914  0.2858
 9800TIP3    H250816   4.211   5.042  14.025  0.2865 -0.8776 -0.2129
 9801TIP3   OH250817   5.567   5.237   4.956  0.9226  0.5026 -0.2468
 9801TIP3    H150818   5.614   5.282   5.027  1.5000 -0.4127 -0.0474
 9801TIP3    H250819   5.537   5.308   4.899 -1.2290  1.4067  1.9187
 9802TIP3   OH250820   2.427   3.003  13.240  0.1918  0.0669 -0.5273
 9802TIP3    H150821   2.386   2.954  13.169  0.4794 -0.3273 -0.4241
 9802TIP3    H250822   2.357   3.014  13.305  0.5206 -1.5926  0.1512
 9803TIP3   OH250823   4.785   6.624   1.914 -0.2677 -0.0684  0.2983
 9803TIP3    H150824   4.772   6.599   1.823 -1.4056  0.8190  0.2154
 9803TIP3    H250825   4.745   6.553   1.965 -2.0512  0.7557  0.0753
 9804TIP3   OH250826   4.634   3.699  17.114  0.4110  0.3740  0.2015
 9804TIP3    H150827   4.704   3.636  17.095  0.1142  0.3722 -0.9121
 9804TIP3    H250828   4.646   3.721  17.207  1.0590 -0.6547  0.3739
 9805TIP3   OH250829   6.540   0.580  11.822  0.0865  0.1638  0.2320
 9805TIP3    H150830   6.588   0.662  11.813 -0.7131  0.8023  1.5597
 9805TIP3    H250831   6.539   0.542  11.734  1.1275  1.1949 -0.2289
 9806TIP3   OH250832   5.601   4.949  17.138 -0.0417  0.5399 -0.1998
 9806TIP3    H150833   5.557   4.883  17.191 -0.8694  0.5882 -0.8211
 9806TIP3    H250834   5.544   5.026  17.142  0.6015  1.0136 -0.0039
 9807TIP3   OH250835   1.919   0.539   6.184 -0.2273  0.1017  0.0030
 9807TIP3    H150836   1.923   0.464   6.125  0.2134  1.3391 -1.5681
 9807TIP3    H250837   2.005   0.581   6.175  0.3096 -0.3994  2.4915
 9808TIP3   OH250838   0.857   4.152   5.305 -0.0768 -0.4569  0.4280
 9808TIP3    H150839   0.936   4.106   5.334  0.5029 -0.6913 -1.3961
 9808TIP3    H250840   0.785   4.108   5.350  0.6904 -1.5289  0.6165
 9809TIP3   OH250841   2.653   3.750  17.187 -0.2942 -0.0534 -0.2815
 9809TIP3    H150842   2.705   3.738  17.267 -1.7371 -0.8823  0.5504
 9809TIP3    H250843   2.577   3.693  17.199 -0.6446 -0.0051 -2.1553
 9810TIP3   OH250844   4.000   6.449   5.770  1.0202 -0.5881  0.6763
 9810TIP3    H150845   4.000   6.412   5.682  0.2876  1.1465 -0.0797
 9810TIP3    H250846   4.057   6.526   5.763 -1.2984  1.2006  0.9780
 9811TIP3   OH250847   0.161   0.034  10.540  0.0246 -0.4790  0.4767
 9811TIP3    H150848   0.091   0.069  10.485  0.4726  1.1231  0.9099
 9811TIP3    H250849   0.202  -0.034  10.486 -1.4569 -1.0113 -0.0098
 9812TIP3   OH250850   0.206   2.048   4.279  0.5154  0.0426  0.5180
 9812TIP3    H150851   0.284   2.002   4.249  1.1448  0.9650  0.7543
 9812TIP3    H250852   0.237   2.108   4.346 -0.1952  1.3418 -0.2965
 9813TIP3   OH250853   5.045   4.766   0.150  0.1033  0.2376 -0.3498
 9813TIP3    H150854   5.070   4.806   0.233  4.4063  0.8132 -1.7698
 9813TIP3    H250855   4.980   4.826   0.112  1.6171  2.4652  0.5063
 9814TIP3   OH250856   2.509   1.421  16.925  0.2498 -0.1979  0.4617
 9814TIP3    H150857   2.446   1.356  16.896  0.8534 -1.3182  1.6388
 9814TIP3    H250858   2.588   1.403  16.874  1.4025 -2.3423  2.8780
 9815TIP3   OH250859   4.952   6.696  11.359 -0.2116  0.2320 -0.4029
 9815TIP3    H150860   4.875   6.684  11.414  0.3117 -1.5671 -0.0270
 9815TIP3    H250861   5.000   6.614  11.367  0.4374  0.3543 -2.6883
 9816TIP3   OH250862   0.095   1.042   5.200 -0.4525  0.3042  0.4757
 9816TIP3    H150863   0.032   1.016   5.267 -2.1737  1.9755 -0.4299
 9816TIP3    H250864   0.161   1.093   5.247 -0.5469 -0.2323  1.2060
 9817TIP3   OH250865   3.186   2.934   2.284  0.0451 -0.3247 -0.1933
 9817TIP3    H150866   3.127   2.949   2.358 -0.9672  0.4333 -1.1452
 9817TIP3    H250867   3.226   2.849   2.303  0.4767  0.2669  1.6734
 9818TIP3   OH250868   2.993   5.401  13.722 -0.7895 -0.3868  0.1669
 9818TIP3    H150869   3.052   5.385  13.796 -0.4959  0.1150  0.0413
 9818TIP3    H250870   2.910   5.361  13.749 -0.7257 -0.0882  0.8273
 9819TIP3   OH250871   2.500   6.095   0.695  0.0697  0.0585  0.2425
 9819TIP3    H150872   2.497   6.093   0.599 -0.4345  0.4070  0.2503
 9819TIP3    H250873   2.408   6.095   0.722  0.2106 -0.2512  0.7325
 9820TIP3   OH250874   5.413   3.114   1.814 -0.2806  0.8197 -0.3290
 9820TIP3    H150875   5.468   3.147   1.884 -0.2855 -1.4357  0.7864
 9820TIP3    H250876   5.330   3.092   1.857 -0.5756  0.2155 -1.1912
 9821TIP3   OH250877   2.899   5.804   5.889 -0.4727 -0.0864 -0.2405
 9821TIP3    H150878   2.954   5.736   5.928 -0.7566 -0.0664  0.1978
 9821TIP3    H250879   2.837   5.827   5.958  0.7326  1.8663  0.2223
 9822TIP3   OH250880   0.143   2.030   2.716  0.0666  0.4393 -0.2608
 9822TIP3    H150881   0.214   2.073   2.763  0.6277 -0.8123  0.0523
 9822TIP3    H250882   0.110   1.964   2.777  0.4789 -0.8587 -1.4245
 9823TIP3   OH250883   3.106   2.544  17.215 -0.2924 -0.1973 -0.1966
 9823TIP3    H150884   3.174   2.610  17.221  0.6018 -0.9799 -1.5131
 9823TIP3    H250885   3.148   2.463  17.242 -0.8393 -0.6068 -0.5634
 9824TIP3   OH250886   0.663   1.249  12.553 -0.0615 -1.0059 -0.0174
 9824TIP3    H150887   0.686   1.342  12.552  0.9584 -1.2524 -0.7161
 9824TIP3    H250888   0.628   1.234  12.641 -0.2923  0.0467  0.0801
 9825TIP3   OH250889   5.691   5.095   1.382  0.3581 -0.3992  0.1591
 9825TIP3    H150890   5.721   5.062   1.298  1.4483  0.7505  0.0809
 9825TIP3    H250891   5.598   5.072   1.385  0.1501  0.1125 -1.6419
 9826TIP3   OH250892   5.002   1.164   2.391 -0.1352  0.5420  0.6075
 9826TIP3    H150893   5.014   1.172   2.296 -1.0425  0.0583  0.4453
 9826TIP3    H250894   4.965   1.248   2.418  0.6330  0.8789  0.6195
 9827TIP3   OH250895   4.600   1.568   0.359  0.3042 -0.0281  0.7464
 9827TIP3    H150896   4.691   1.571   0.387  0.1632 -0.9279  1.3532
 9827TIP3    H250897   4.573   1.477   0.375 -0.4529  0.0162 -0.2167
 9828TIP3   OH250898   5.475   0.477   4.472  0.0797 -0.2174 -0.1980
 9828TIP3    H150899   5.402   0.417   4.489 -1.4879  1.9285  0.8813
 9828TIP3    H250900   5.522   0.482   4.555  0.3532 -0.1286 -0.3556
 9829TIP3   OH250901   5.795   0.874   5.283 -0.0273  0.0713  0.3968
 9829TIP3    H150902   5.757   0.953   5.320 -0.2014 -0.4303  1.3104
 9829TIP3    H250903   5.791   0.810   5.354  0.5801 -0.6071 -0.1686
 9830TIP3   OH250904   1.538   2.470   2.915 -0.2149  0.3271 -0.7811
 9830TIP3    H150905   1.618   2.439   2.873 -0.0532 -0.5966  0.1634
 9830TIP3    H250906   1.556   2.461   3.009 -0.6503  2.1140 -0.5137
 9831TIP3   OH250907   6.022   3.679  14.078 -0.4302 -0.4602  0.6118
 9831TIP3    H150908   5.933   3.675  14.113 -0.8809  0.3983 -0.3903
 9831TIP3    H250909   6.019   3.750  14.014 -0.0485 -2.8903 -2.2526
 9832TIP3   OH250910   4.953   3.661   0.303  0.7481  0.0056 -0.4822
 9832TIP3    H150911   4.858   3.653   0.291  0.6958  0.2699 -0.2428
 9832TIP3    H250912   4.988   3.579   0.267  0.3382 -0.6223  0.5255
 9833TIP3   OH250913   3.204   3.225  11.888  0.2271  0.4456 -0.1061
 9833TIP3    H150914   3.115   3.217  11.923  0.2965  1.4442  0.3082
 9833TIP3    H250915   3.217   3.144  11.838 -0.5757 -0.1262  0.5875
 9834TIP3   OH250916   4.098   4.947   0.363  0.0873  0.3806 -0.7003
 9834TIP3    H150917   4.005   4.925   0.370  0.3330 -0.3437  0.4862
 9834TIP3    H250918   4.104   5.037   0.393 -0.3432  0.6933 -1.5466
 9835TIP3   OH250919   2.803   4.339  15.693 -0.1220 -0.2931 -0.6762
 9835TIP3    H150920   2.770   4.269  15.637 -1.6951  0.4468 -0.7161
 9835TIP3    H250921   2.806   4.416  15.635  0.0243  0.0462 -0.2212
 9836TIP3   OH250922   2.273   3.606  11.532  0.2726 -0.5719 -0.0448
 9836TIP3    H150923   2.312   3.650  11.457  1.2289 -1.1121  0.1292
 9836TIP3    H250924   2.237   3.525  11.497  0.9266 -0.9350  0.1148
 9837TIP3   OH250925   5.918   6.227  16.815  0.5098 -0.1376 -0.1589
 9837TIP3    H150926   5.971   6.307  16.805  0.7018 -0.3552 -0.9954
 9837TIP3    H250927   5.978   6.163  16.853  1.2020 -0.7212 -2.1689
 9838TIP3   OH250928   2.599   5.466  16.943 -0.1455 -0.6094  0.5293
 9838TIP3    H150929   2.687   5.447  16.977 -0.4167 -1.6151  0.6930
 9838TIP3    H250930   2.610   5.472  16.848  0.4182  1.0788  0.6915
 9839TIP3   OH250931   2.945   5.412  12.867  0.1463 -0.6559 -0.6679
 9839TIP3    H150932   2.960   5.336  12.924  0.5703  0.6282  0.9907
 9839TIP3    H250933   2.902   5.475  12.924 -1.6481 -0.2291 -2.4717
 9840TIP3   OH250934   3.210   2.606  13.085  0.2832  0.0658  0.2326
 9840TIP3    H150935   3.264   2.594  13.006 -0.0486  0.2623 -0.0240
 9840TIP3    H250936   3.245   2.685  13.126  0.5423 -0.1105  0.3535
 9841TIP3   OH250937   0.854   6.407  14.537  0.1510  0.1160  0.0580
 9841TIP3    H150938   0.900   6.323  14.536 -1.0110 -0.5179 -0.6836
 9841TIP3    H250939   0.806   6.408  14.619  2.1343  1.1604  1.2560
 9842TIP3   OH250940   6.744   3.470   4.331 -0.3287 -0.0058  0.9727
 9842TIP3    H150941   6.773   3.546   4.281 -0.2346  0.0763  1.1512
 9842TIP3    H250942   6.693   3.507   4.403 -0.2529 -0.1107  1.0803
 9843TIP3   OH250943   6.586   2.189  14.949  0.2414 -0.0907  0.1198
 9843TIP3    H150944   6.590   2.217  14.858 -0.3858 -0.9559 -0.1770
 9843TIP3    H250945   6.653   2.242  14.993 -0.1064  1.0162 -0.6515
 9844TIP3   OH250946   4.834   5.431   3.603  0.4482  0.0689  0.3786
 9844TIP3    H150947   4.768   5.396   3.663  0.3005 -0.0274  0.1584
 9844TIP3    H250948   4.910   5.374   3.616 -0.0008 -0.7325 -0.4371
 9845TIP3   OH250949   2.857   4.697  12.286  0.4462  0.8160  0.1222
 9845TIP3    H150950   2.911   4.627  12.323 -1.7588 -1.6210 -1.1484
 9845TIP3    H250951   2.830   4.749  12.363  1.8481  0.0999  1.1149
 9846TIP3   OH250952   4.630   3.204   0.923  0.3283  0.1069 -0.3591
 9846TIP3    H150953   4.534   3.198   0.923  0.2477  1.1874 -1.1277
 9846TIP3    H250954   4.649   3.275   0.861  1.5600  0.8574  0.8440
 9847TIP3   OH250955   4.130   3.711  15.328 -0.0229  0.2760  0.1526
 9847TIP3    H150956   4.177   3.678  15.251 -1.8672 -0.4138 -0.6850
 9847TIP3    H250957   4.175   3.670  15.403  1.5137  0.6325 -0.5455
 9848TIP3   OH250958   0.685   1.881   5.722 -0.5926 -0.3442 -0.1741
 9848TIP3    H150959   0.653   1.963   5.684 -2.3670 -0.0175  1.8857
 9848TIP3    H250960   0.757   1.908   5.780 -0.5109 -0.3586 -0.2691
 9849TIP3   OH250961   2.970   5.217   0.644  0.3561 -0.5533  0.6346
 9849TIP3    H150962   2.983   5.181   0.732 -1.7634  0.5879  1.4765
 9849TIP3    H250963   2.984   5.311   0.655  0.8513 -0.5044 -0.4227
 9850TIP3   OH250964   4.838   0.021   2.600 -0.5010 -0.7735  0.1409
 9850TIP3    H150965   4.843   0.101   2.548  1.0177 -1.5108 -0.8868
 9850TIP3    H250966   4.771  -0.032   2.556 -1.1543 -0.2778  0.5346
 9851TIP3   OH250967   0.403   0.744   0.681  0.1511  0.1938  0.0944
 9851TIP3    H150968   0.318   0.700   0.674  0.9528 -1.1309 -1.7638
 9851TIP3    H250969   0.466   0.678   0.651  1.4790  2.3118 -1.9492
 9852TIP3   OH250970   5.351   5.355  16.065 -0.1030 -0.0405 -0.0907
 9852TIP3    H150971   5.392   5.387  16.146 -1.0017 -0.6272  0.6045
 9852TIP3    H250972   5.371   5.261  16.065  0.3407  0.0551 -0.8216
 9853TIP3   OH250973   0.247   0.684  17.105 -0.2415 -0.1303  0.2313
 9853TIP3    H150974   0.280   0.753  17.163 -0.4771 -0.9180  1.3096
 9853TIP3    H250975   0.304   0.689  17.028  0.8158  0.1623  1.0132
 9854TIP3   OH250976   2.167   4.559  13.287  0.0657  0.7307 -0.0528
 9854TIP3    H150977   2.158   4.580  13.194  0.7152 -0.0763 -0.2995
 9854TIP3    H250978   2.183   4.644  13.329  0.0567  1.0596 -0.7126
 9855TIP3   OH250979   2.372   6.672  13.069  0.3575  0.1441  0.1608
 9855TIP3    H150980   2.337   6.637  13.152 -0.6692  0.2846 -0.2147
 9855TIP3    H250981   2.439   6.608  13.044 -0.7619 -1.0014  0.0370
 9856TIP3   OH250982   1.636   3.341   5.318  0.2639 -0.0970  0.2077
 9856TIP3    H150983   1.703   3.386   5.266  0.3703  1.4214  1.5932
 9856TIP3    H250984   1.673   3.338   5.407 -2.3649  2.7573  1.4953
 9857TIP3   OH250985   3.836   3.394   3.444  0.3780 -0.2225 -0.1608
 9857TIP3    H150986   3.808   3.305   3.463  3.4007 -0.9020  1.3416
 9857TIP3    H250987   3.834   3.439   3.528 -2.3609  1.5495 -1.1065
 9858TIP3   OH250988   4.276   2.760   4.512 -1.0105 -0.2725  0.0734
 9858TIP3    H150989   4.248   2.670   4.501 -1.2794 -0.2953  0.9027
 9858TIP3    H250990   4.279   2.773   4.607 -1.2973  0.6836 -0.0418
 9859TIP3   OH250991   4.389   2.188  16.394 -0.5431  0.5188  0.1430
 9859TIP3    H150992   4.370   2.128  16.466  1.2682 -1.1680 -0.7164
 9859TIP3    H250993   4.397   2.131  16.317 -1.7036  2.2082 -1.2664
 9860TIP3   OH250994   4.556   0.522   4.772  0.3453  0.2657 -0.7636
 9860TIP3    H150995   4.565   0.530   4.677 -1.1577  1.6870 -0.8234
 9860TIP3    H250996   4.466   0.492   4.785  0.9028 -1.0613  0.1862
 9861TIP3   OH250997   2.398   3.076   0.129 -0.0885 -0.2707  0.4998
 9861TIP3    H150998   2.367   3.132   0.058 -1.0905 -0.2613  0.9256
 9861TIP3    H250999   2.491   3.062   0.111 -0.2655 -0.0148 -0.6345
 9862TIP3   OH251000   2.318   1.048   2.471 -0.5683 -0.1566  0.1042
 9862TIP3    H151001   2.394   1.100   2.496 -0.3608 -0.3994 -0.0192
 9862TIP3    H251002   2.311   0.981   2.539 -2.1989  1.4093  1.5249
 9863TIP3   OH251003   3.048   6.722   1.094 -0.0070  0.5080 -0.0283
 9863TIP3    H151004   3.067   6.796   1.152 -0.1599  0.8042 -0.3580
 9863TIP3    H251005   2.964   6.689   1.125  0.7891 -0.5004  1.1179
 9864TIP3   OH251006   3.581   4.253   5.781  0.4710 -0.0169 -0.1552
 9864TIP3    H151007   3.607   4.187   5.716  0.5106  0.8291 -1.0101
 9864TIP3    H251008   3.523   4.206   5.841  0.3970 -0.7980 -0.8286
 9865TIP3   OH251009   6.755   1.232   3.967 -0.0596 -0.3408  0.2951
 9865TIP3    H151010   6.731   1.184   3.888 -1.3911 -0.3749  0.7066
 9865TIP3    H251011   6.839   1.193   3.994  0.1299 -0.6938 -0.7910
 9866TIP3   OH251012   4.527   4.828  11.475 -0.0730  0.0905 -1.0205
 9866TIP3    H151013   4.515   4.737  11.445  0.2575  0.0052 -0.8945
 9866TIP3    H251014   4.476   4.833  11.555  0.7623 -0.2921 -0.4535
 9867TIP3   OH251015   1.385   5.769   3.632 -0.9272  0.1972  0.2893
 9867TIP3    H151016   1.479   5.761   3.645 -0.9234  0.7899  0.6183
 9867TIP3    H251017   1.360   5.849   3.678 -1.5666  0.1299  0.0739
 9868TIP3   OH251018   4.991   2.080   0.284 -0.2165 -0.0569  0.9959
 9868TIP3    H151019   4.973   1.991   0.314 -2.4351  0.0833  0.1742
 9868TIP3    H251020   4.920   2.100   0.223  1.0578  1.7453  0.0400
 9869TIP3   OH251021   5.850   5.208   4.669  0.7129  0.1288 -0.0511
 9869TIP3    H151022   5.895   5.249   4.743 -1.8064 -0.8827  2.1378
 9869TIP3    H251023   5.816   5.281   4.617  1.3684  0.8440  0.5348
 9870TIP3   OH251024   3.448   2.774   3.735  0.2431  0.4954 -0.0222
 9870TIP3    H151025   3.542   2.756   3.742 -0.0062 -0.6404  0.5524
 9870TIP3    H251026   3.434   2.849   3.794  0.4860 -0.5225  1.3753
 9871TIP3   OH251027   1.698   3.783   3.670 -0.3557 -0.5352 -0.3864
 9871TIP3    H151028   1.672   3.869   3.704  1.9922  0.7577 -1.7367
 9871TIP3    H251029   1.746   3.743   3.742 -1.1483 -0.5776  0.1257
 9872TIP3   OH251030   0.748   6.021   3.290 -0.0363 -0.0453 -0.2519
 9872TIP3    H151031   0.703   6.014   3.374 -1.3127  3.6826 -0.5268
 9872TIP3    H251032   0.840   6.007   3.311 -0.6282 -1.7987  1.3090
 9873TIP3   OH251033   1.790   2.719  14.152  0.1332 -0.2028 -0.3118
 9873TIP3    H151034   1.875   2.762  14.143  0.2452 -0.1286  1.0621
 9873TIP3    H251035   1.809   2.636  14.195 -0.4727 -0.2229 -0.0786
 9874TIP3   OH251036   1.232   4.185  13.830 -0.2579 -0.1527  0.1513
 9874TIP3    H151037   1.258   4.267  13.873 -1.0616  0.2657 -0.1514
 9874TIP3    H251038   1.280   4.185  13.748  0.6441 -0.5545  0.6683
 9875TIP3   OH251039   6.263   0.139   0.503 -0.1051  0.6094  0.1168
 9875TIP3    H151040   6.302   0.172   0.584  1.6437 -0.5224 -0.2254
 9875TIP3    H251041   6.192   0.200   0.484  0.0375  1.4117  2.0142
 9876TIP3   OH251042   2.161   5.963  13.751  0.0269  0.3412  0.1044
 9876TIP3    H151043   2.203   5.877  13.751 -1.4453 -0.3861 -0.8809
 9876TIP3    H251044   2.106   5.964  13.673  0.9023  2.6320 -0.5488
 9877TIP3   OH251045   3.799   2.476   0.958  0.1421 -0.4600 -0.3612
 9877TIP3    H151046   3.746   2.556   0.959 -0.6868 -1.0090  0.2027
 9877TIP3    H251047   3.838   2.472   1.046 -0.8281 -1.3373  0.0368
 9878TIP3   OH251048   2.011   3.934   5.591 -0.3245  0.9357 -0.3929
 9878TIP3    H151049   2.026   3.914   5.499  0.6829  0.8673 -0.2202
 9878TIP3    H251050   2.092   3.910   5.635  0.0514  3.0999  0.1809
 9879TIP3   OH251051   4.340   2.388  10.879  0.3050 -0.7285 -0.9194
 9879TIP3    H151052   4.327   2.314  10.938 -3.4188  0.6975  0.2592
 9879TIP3    H251053   4.412   2.437  10.918  0.6528 -2.0219  0.1049
 9880TIP3   OH251054   2.187   3.508   1.027  0.1307 -0.0090  0.0084
 9880TIP3    H151055   2.093   3.500   1.010 -0.1328  0.6506  1.1571
 9880TIP3    H251056   2.194   3.540   1.116  1.4398  0.7443 -0.3417
 9881TIP3   OH251057   2.822   5.051   2.726 -0.2657 -0.2588 -0.5143
 9881TIP3    H151058   2.803   5.104   2.648 -2.4240  0.3455  0.3839
 9881TIP3    H251059   2.907   5.082   2.757  0.8262 -0.8020 -2.8568
 9882TIP3   OH251060   1.947   5.133   3.614 -0.4858  0.1900 -0.3944
 9882TIP3    H151061   2.041   5.141   3.602 -0.4369  1.0385  0.4901
 9882TIP3    H251062   1.936   5.050   3.661 -0.0678  0.6838  0.6035
 9883TIP3   OH251063   5.095   5.813   1.346  0.0987 -0.0257  0.3227
 9883TIP3    H151064   5.055   5.809   1.259  1.2797 -0.3687 -0.2253
 9883TIP3    H251065   5.101   5.906   1.367 -1.2097  0.0154  0.5246
 9884TIP3   OH251066   3.142   6.771   5.256 -0.4005 -0.1813  0.5808
 9884TIP3    H151067   3.225   6.816   5.240  0.0497 -1.0704  0.4220
 9884TIP3    H251068   3.103   6.818   5.329 -0.5785  1.3614 -0.4753
 9885TIP3   OH251069   0.365   5.586  15.754 -0.1442  0.3960 -0.1945
 9885TIP3    H151070   0.338   5.617  15.668  1.9685  1.0824 -0.6364
 9885TIP3    H251071   0.438   5.527  15.737  2.3805  2.9743  1.2820
 9886TIP3   OH251072   0.705   5.150  13.108  0.0457 -0.4565 -0.1209
 9886TIP3    H151073   0.721   5.242  13.088  0.0256 -0.2029  1.0092
 9886TIP3    H251074   0.782   5.122  13.157 -0.3657 -0.8008  0.3258
 9887TIP3   OH251075   0.172   1.479   2.739 -0.1704 -0.0548  0.0495
 9887TIP3    H151076   0.267   1.490   2.750  0.1610 -2.6916  0.0361
 9887TIP3    H251077   0.162   1.455   2.646 -0.4960 -3.0066  0.7964
 9888TIP3   OH251078   3.344   4.776   1.545 -0.3225  0.4884  0.2938
 9888TIP3    H151079   3.255   4.742   1.548 -0.4807  0.8758 -0.0016
 9888TIP3    H251080   3.345   4.847   1.610 -0.3119  0.6820  0.0812
 9889TIP3   OH251081   1.355   2.278   1.165  0.1414 -0.4982  0.3572
 9889TIP3    H151082   1.343   2.349   1.101  1.0664 -0.1212  0.5860
 9889TIP3    H251083   1.292   2.297   1.234  0.3014  0.0388  0.3585
 9890TIP3   OH251084   1.964   5.613  15.673 -0.5919  0.4723 -0.1995
 9890TIP3    H151085   1.900   5.610  15.743 -0.4411  1.0461 -0.0340
 9890TIP3    H251086   2.048   5.628  15.717 -0.1957 -1.3450 -0.3263
 9891TIP3   OH251087   4.243   3.969  11.907 -0.2732  0.1413 -0.2541
 9891TIP3    H151088   4.292   3.916  11.843  1.1500  1.9962 -0.7385
 9891TIP3    H251089   4.158   3.983  11.865  0.1475  0.1425 -1.1350
 9892TIP3   OH251090   5.208   2.252  14.592  0.0227  0.5591 -0.5539
 9892TIP3    H151091   5.131   2.280  14.542 -0.3851  2.9657  1.3837
 9892TIP3    H251092   5.279   2.308  14.560  0.2013  0.7363  0.1504
 9893TIP3   OH251093   1.626   4.373  13.358  0.4790 -0.5762 -0.1906
 9893TIP3    H151094   1.561   4.443  13.363 -0.5302 -1.4512 -0.9056
 9893TIP3    H251095   1.606   4.328  13.276  0.3843 -2.4374  0.8499
 9894TIP3   OH251096   1.015   3.191   2.368  0.1205 -0.3345  0.3812
 9894TIP3    H151097   0.951   3.237   2.422 -1.4506  0.1448 -1.8328
 9894TIP3    H251098   1.080   3.259   2.345  0.1957 -0.2797  0.7545
 9895TIP3   OH251099   5.873   5.684  12.094 -0.4621 -0.3806 -0.4970
 9895TIP3    H151100   5.924   5.728  12.026  1.0818 -1.2348  0.0920
 9895TIP3    H251101   5.930   5.683  12.171 -1.8427 -0.2590  0.5401
 9896TIP3   OH251102   6.746   3.502   1.133  0.1513  0.1376 -0.3200
 9896TIP3    H151103   6.799   3.425   1.153  0.0993  0.1029 -0.3170
 9896TIP3    H251104   6.698   3.479   1.054 -1.2841 -0.5242  0.7258
 9897TIP3   OH251105   3.820   1.710   5.361 -0.1864  0.2448 -0.1343
 9897TIP3    H151106   3.872   1.695   5.282 -0.2230  0.1345 -0.1360
 9897TIP3    H251107   3.822   1.627   5.408  1.0838  0.7327  0.7118
 9898TIP3   OH251108   3.393   1.770   3.403 -0.7099 -0.1232  0.1572
 9898TIP3    H151109   3.455   1.788   3.474 -0.3414  0.3036 -0.2620
 9898TIP3    H251110   3.401   1.676   3.387  0.6974  0.1223 -0.6730
 9899TIP3   OH251111   3.305   0.595  11.442 -0.4908 -0.6525 -0.1802
 9899TIP3    H151112   3.219   0.601  11.402  0.0239  1.8367 -1.0217
 9899TIP3    H251113   3.358   0.548  11.378 -0.5265  0.3150 -0.9334
 9900TIP3   OH251114   3.627   2.764   5.497 -0.6563 -0.5075 -0.2907
 9900TIP3    H151115   3.700   2.816   5.466 -1.3153  0.6421  0.0652
 9900TIP3    H251116   3.576   2.824   5.552 -1.2863 -1.5834  0.3264
 9901TIP3   OH251117   6.318   1.859   5.536  0.1475  0.1943  0.7708
 9901TIP3    H151118   6.323   1.883   5.628  0.5030 -1.0952  1.0980
 9901TIP3    H251119   6.390   1.798   5.523 -1.4948 -1.7331  0.3109
 9902TIP3   OH251120   6.755   5.182  15.253 -0.4645  0.3150  0.5222
 9902TIP3    H151121   6.756   5.089  15.233 -3.2753  0.5359 -0.8410
 9902TIP3    H251122   6.750   5.186  15.349 -0.0678 -0.9350  0.5964
 9903TIP3   OH251123   4.550   4.489  12.693 -0.3749  0.1898 -0.0803
 9903TIP3    H151124   4.490   4.415  12.680 -0.2956 -0.6266  3.6794
 9903TIP3    H251125   4.637   4.450  12.685 -0.3192  0.5666 -1.4197
 9904TIP3   OH251126   2.737   6.205   2.268 -0.1652 -0.3538 -0.6799
 9904TIP3    H151127   2.754   6.230   2.359 -0.2708 -0.4212 -0.6410
 9904TIP3    H251128   2.656   6.250   2.245 -0.1422 -0.3429 -0.7384
 9905TIP3   OH251129   0.778   6.578  11.819 -0.0346  0.0531 -1.1484
 9905TIP3    H151130   0.689   6.556  11.790 -1.0127  2.2303  0.0930
 9905TIP3    H251131   0.806   6.648  11.760 -0.0532  0.9620 -0.0946
 9906TIP3   OH251132   0.931   0.601   5.892  0.9416 -0.2332  0.2425
 9906TIP3    H151133   0.937   0.516   5.849  0.9805 -0.4468  0.6663
 9906TIP3    H251134   1.004   0.652   5.856  2.4389 -1.2077  1.8202
 9907TIP3   OH251135   3.405   1.294  15.477  0.2245  0.9296 -0.7047
 9907TIP3    H151136   3.493   1.312  15.444  0.7429  0.1891  0.2338
 9907TIP3    H251137   3.393   1.200  15.464  0.8099  0.4341  2.0268
 9908TIP3   OH251138   1.821   0.683  11.804 -0.2373  0.4067 -0.4242
 9908TIP3    H151139   1.854   0.670  11.893  1.6459  1.2721 -0.9678
 9908TIP3    H251140   1.900   0.685  11.750 -1.3146  0.8166 -2.0020
 9909TIP3   OH251141   1.521   1.335  11.762 -0.3517  0.3582  0.0200
 9909TIP3    H151142   1.521   1.320  11.856 -0.7835 -1.1204 -0.1986
 9909TIP3    H251143   1.609   1.311  11.734 -0.3451  0.4144 -0.0070
 9910TIP3   OH251144   1.037   1.450  10.492  0.6425  0.2385 -0.4491
 9910TIP3    H151145   0.984   1.523  10.525  2.5434  1.5128 -0.1579
 9910TIP3    H251146   1.101   1.490  10.435  0.7466 -1.3957 -1.5197
 9911TIP3   OH251147   0.278   5.759  12.622  0.0315 -0.5637  0.5074
 9911TIP3    H151148   0.251   5.680  12.669 -1.3658 -0.3017  0.1629
 9911TIP3    H251149   0.211   5.823  12.643 -0.4010 -0.3226 -1.5135
 9912TIP3   OH251150   4.503   3.798  14.124  0.1291  0.3746 -0.1597
 9912TIP3    H151151   4.579   3.742  14.107 -1.3657 -1.6224 -0.5002
 9912TIP3    H251152   4.491   3.794  14.219  1.6264  2.3212  0.1401
 9913TIP3   OH251153   6.636   2.112   3.756 -0.2758 -0.3443 -0.1032
 9913TIP3    H151154   6.592   2.071   3.830 -0.3904 -0.2751 -0.1323
 9913TIP3    H251155   6.637   2.045   3.688 -0.9806 -0.1092 -0.3488
 9914TIP3   OH251156   1.383   3.906   1.958  0.3638 -0.3172  0.3856
 9914TIP3    H151157   1.385   3.947   2.044  2.5543  1.4876 -0.4663
 9914TIP3    H251158   1.347   3.974   1.900  0.7038 -0.8400 -0.4500
 9915TIP3   OH251159   3.782   6.565   5.315  0.5546  0.0545 -0.7376
 9915TIP3    H151160   3.877   6.561   5.305  0.7796  0.2764  1.2043
 9915TIP3    H251161   3.748   6.502   5.251  2.0081 -0.1435 -1.3202
 9916TIP3   OH251162   5.320   6.592   4.814 -0.2311  1.1497 -0.3665
 9916TIP3    H151163   5.389   6.618   4.875  0.1697 -0.7009  0.0057
 9916TIP3    H251164   5.244   6.644   4.840 -0.2410 -0.0422  2.1386
 9917TIP3   OH251165   5.123   3.011  13.245  0.0753  0.5148  0.1029
 9917TIP3    H151166   5.206   2.967  13.224 -0.2470  0.7387 -1.7343
 9917TIP3    H251167   5.087   2.960  13.318  0.8858 -0.7938 -0.3821
 9918TIP3   OH251168   6.220   3.596   2.499  1.2471 -0.1873 -0.2719
 9918TIP3    H151169   6.166   3.661   2.455 -0.0690 -0.8608  0.3255
 9918TIP3    H251170   6.261   3.644   2.571  0.7045  0.1074 -0.1588
 9919TIP3   OH251171   6.351   6.132  14.156 -0.2003  0.5121 -0.2520
 9919TIP3    H151172   6.260   6.157  14.169 -0.8333 -1.5165 -0.5022
 9919TIP3    H251173   6.399   6.178  14.224 -1.3565  1.9012 -0.3591
 9920TIP3   OH251174   5.548   4.959   4.965  0.6825 -0.5173  0.1563
 9920TIP3    H151175   5.565   5.052   4.953  0.2677 -0.8393 -3.4556
 9920TIP3    H251176   5.620   4.916   4.919 -0.0316 -1.9931  0.3867
 9921TIP3   OH251177   6.298   1.876   2.180 -0.1700  0.0622  0.8199
 9921TIP3    H151178   6.265   1.882   2.270 -0.1741  3.0091  0.6680
 9921TIP3    H251179   6.370   1.939   2.177  0.4342 -0.6797 -1.0148
 9922TIP3   OH251180   3.905   2.566  14.882 -0.2539 -0.1775  0.4420
 9922TIP3    H151181   3.897   2.656  14.851  0.0994 -0.1954  0.3053
 9922TIP3    H251182   3.865   2.568  14.969  1.3402  0.4994  1.1744
 9923TIP3   OH251183   3.615   6.724  11.283 -0.0826  0.1022  0.9114
 9923TIP3    H151184   3.610   6.646  11.339 -0.9809 -0.1220  0.5212
 9923TIP3    H251185   3.696   6.713  11.234 -0.4649 -0.8449  0.4847
 9924TIP3   OH251186   0.573   3.653   3.306  0.0606 -1.0893  0.1997
 9924TIP3    H151187   0.486   3.674   3.340  0.5408 -1.4209  1.6607
 9924TIP3    H251188   0.628   3.726   3.337  0.2622 -0.7683 -0.9040
 9925TIP3   OH251189   6.747   0.832  11.899 -0.1427  0.1153  0.2199
 9925TIP3    H151190   6.802   0.909  11.889 -2.6378  1.8387 -0.8158
 9925TIP3    H251191   6.684   0.856  11.967 -0.7715 -1.1139  0.0878
 9926TIP3   OH251192   3.226   2.028  14.870  0.1064 -0.4723  0.3761
 9926TIP3    H151193   3.153   2.021  14.933 -1.3606  0.9613 -1.1152
 9926TIP3    H251194   3.238   1.938  14.839 -2.6182 -0.4029 -1.0578
 9927TIP3   OH251195   6.678   0.251  12.198 -0.5666 -0.0635  0.1413
 9927TIP3    H151196   6.617   0.323  12.181 -1.0932 -0.0948  1.7444
 9927TIP3    H251197   6.698   0.259  12.292  0.8679 -0.8429 -0.0927
 9928TIP3   OH251198   0.153   4.745  15.300  0.4845 -0.1046  0.3799
 9928TIP3    H151199   0.079   4.781  15.349  0.6185  0.6588  0.0225
 9928TIP3    H251200   0.133   4.763  15.208  0.8777 -0.3292  0.2478
 9929TIP3   OH251201   1.315   2.563  10.534 -0.2921 -0.1845 -0.1171
 9929TIP3    H151202   1.296   2.475  10.503  1.5807 -1.0582  1.1792
 9929TIP3    H251203   1.343   2.552  10.624  3.0102  1.3602 -0.8771
 9930TIP3   OH251204   4.754   1.305   3.582 -0.1005 -0.5094  0.8943
 9930TIP3    H151205   4.659   1.306   3.579 -0.0929  2.2900 -0.6310
 9930TIP3    H251206   4.779   1.226   3.534 -1.6326 -0.9039  0.7275
 9931TIP3   OH251207   5.017   4.759  11.165  0.1515  0.1140 -0.2760
 9931TIP3    H151208   5.018   4.853  11.182  1.1988 -0.0668  0.7135
 9931TIP3    H251209   5.095   4.726  11.209  1.1689 -0.8601 -2.7316
 9932TIP3   OH251210   5.248   5.180  12.116 -0.6130  0.2086 -0.0463
 9932TIP3    H151211   5.180   5.226  12.067  0.1060  1.5560  0.1901
 9932TIP3    H251212   5.285   5.247  12.173  0.1600 -0.7842  0.6225
 9933TIP3   OH251213   2.065   5.163  15.831  0.1266  0.2006 -0.1990
 9933TIP3    H151214   2.009   5.240  15.823  0.2396  0.2686 -0.3426
 9933TIP3    H251215   2.153   5.195  15.812  0.0063 -0.2080 -1.5305
 9934TIP3   OH251216   6.503   3.995  15.600  0.1241  0.2024  0.2255
 9934TIP3    H151217   6.508   4.042  15.683  3.2813  0.9278 -0.3078
 9934TIP3    H251218   6.438   4.043  15.549 -1.9581 -0.3415  2.3021
 9935TIP3   OH251219   6.522   0.434   2.772  0.0201  0.0792  0.0022
 9935TIP3    H151220   6.544   0.526   2.783 -1.2149  0.5273 -1.1704
 9935TIP3    H251221   6.487   0.427   2.683 -0.3470 -1.4264  0.2392
 9936TIP3   OH251222   3.737   1.933   0.553 -0.2047  0.0656 -0.2839
 9936TIP3    H151223   3.749   1.977   0.637 -1.2011 -0.8761  0.3663
 9936TIP3    H251224   3.642   1.930   0.540 -0.1237 -1.1716 -0.6988
 9937TIP3   OH251225   5.633   2.723  13.002  0.1953 -0.1415  0.0136
 9937TIP3    H151226   5.723   2.731  12.970  0.1742  0.1078  0.0166
 9937TIP3    H251227   5.633   2.768  13.086  0.0644 -0.1352  0.0102
 9938TIP3   OH251228   1.217   1.967  15.555  0.1396 -0.0877 -0.2838
 9938TIP3    H151229   1.139   1.938  15.507 -0.9098 -0.6115  1.6934
 9938TIP3    H251230   1.282   1.981  15.487 -0.9765 -1.8819 -1.7859
 9939TIP3   OH251231   3.928   1.380  15.401 -0.3916  0.2929 -0.3611
 9939TIP3    H151232   3.953   1.421  15.319 -0.0082 -1.0868 -0.9535
 9939TIP3    H251233   3.836   1.404  15.413 -0.4608  0.4766 -1.2164
 9940TIP3   OH251234   6.583   1.044   4.138  0.4213  0.0665 -0.2834
 9940TIP3    H151235   6.670   1.009   4.157  0.6550 -0.4844 -2.2904
 9940TIP3    H251236   6.600   1.132   4.103  0.1651 -0.0123 -0.6026
 9941TIP3   OH251237   3.086   4.435  15.336  0.7267  0.2223 -0.9340
 9941TIP3    H151238   3.100   4.376  15.262  1.9474 -0.8924  0.1863
 9941TIP3    H251239   3.169   4.482  15.346  0.7648 -0.0542  0.1008
 9942TIP3   OH251240   6.109   2.007  15.293 -0.2505  0.5998  0.0233
 9942TIP3    H151241   6.121   1.914  15.275  0.6151  0.7271 -0.0850
 9942TIP3    H251242   6.016   2.022  15.278 -0.0425  0.1604 -1.9283
 9943TIP3   OH251243   0.911   4.315   5.530  0.0953 -0.1962  0.4710
 9943TIP3    H151244   0.933   4.234   5.484 -0.4008 -0.6331  1.0018
 9943TIP3    H251245   0.986   4.373   5.513  0.6646 -0.9254  0.4681
 9944TIP3   OH251246   3.519   6.312   2.976  0.1690  0.0914 -0.0533
 9944TIP3    H151247   3.447   6.307   2.913 -0.2208 -1.6335  0.5095
 9944TIP3    H251248   3.560   6.225   2.973 -1.4444 -0.9275  3.8938
 9945TIP3   OH251249   1.122   3.434   1.815  0.2103 -0.0316  0.1870
 9945TIP3    H151250   1.064   3.507   1.835 -0.6370 -0.3426 -1.0354
 9945TIP3    H251251   1.066   3.356   1.820  1.0002 -0.5592  1.0566
 9946TIP3   OH251252   2.229   3.682  14.851  0.2676  0.1249  0.7506
 9946TIP3    H151253   2.136   3.664  14.844  0.3420 -1.0609  2.4458
 9946TIP3    H251254   2.234   3.772  14.885 -0.3103 -0.5975  2.7919
 9947TIP3   OH251255   1.452   6.465   1.361  0.1461 -0.2601 -0.0483
 9947TIP3    H151256   1.469   6.507   1.446  1.5157 -1.8852  0.5051
 9947TIP3    H251257   1.538   6.455   1.321 -0.4605  0.1702 -1.4928
 9948TIP3   OH251258   2.968   4.684  15.695  0.3560 -0.2129 -0.0743
 9948TIP3    H151259   3.041   4.694  15.757 -0.5023  2.1733  0.6083
 9948TIP3    H251260   2.931   4.598  15.717  1.5434 -0.4503  1.1213
 9949TIP3   OH251261   4.617   0.199  16.834  0.2286 -0.4326  0.0620
 9949TIP3    H151262   4.596   0.238  16.919  0.0225 -0.0079 -0.1856
 9949TIP3    H251263   4.713   0.201  16.830  0.2205 -0.0678  0.1024
 9950TIP3   OH251264   3.166   2.422  16.301  0.3737 -0.7204 -0.0438
 9950TIP3    H151265   3.125   2.433  16.387  2.2349 -3.2980  1.2465
 9950TIP3    H251266   3.206   2.507  16.283 -1.2854  0.3020  0.9460
 9951TIP3   OH251267   2.458   6.586   2.673 -0.5185 -0.0130  0.2044
 9951TIP3    H151268   2.390   6.653   2.660  0.8411  1.6699  1.5051
 9951TIP3    H251269   2.449   6.560   2.765  0.1553 -0.2579  0.2039
 9952TIP3   OH251270   2.130   4.839  12.331  0.3835  0.1763  0.6004
 9952TIP3    H151271   2.101   4.904  12.395  0.2411  0.4835  0.2258
 9952TIP3    H251272   2.197   4.884  12.280  1.0223 -0.2985  1.0013
 9953TIP3   OH251273   5.255   1.000  11.080 -0.2907  0.0486  0.2765
 9953TIP3    H151274   5.293   0.999  10.993 -2.0578  0.5639 -0.5120
 9953TIP3    H251275   5.253   1.092  11.105 -1.3471  0.0584  0.1638
 9954TIP3   OH251276   1.235   4.391   0.952 -0.4432 -0.1177 -0.0332
 9954TIP3    H151277   1.154   4.417   0.996 -0.3622  0.1042 -0.0115
 9954TIP3    H251278   1.227   4.429   0.864 -1.2920 -1.8694 -0.7311
 9955TIP3   OH251279   2.618   2.405   6.401  0.5809 -0.2324  0.1168
 9955TIP3    H151280   2.539   2.451   6.432  0.3848 -1.2974  1.2071
 9955TIP3    H251281   2.690   2.445   6.450  0.5490 -0.2782  0.2006
 9956TIP3   OH251282   2.310   4.959  11.368  0.1222 -0.5495 -0.5007
 9956TIP3    H151283   2.339   5.039  11.325 -0.2871 -0.6507 -0.9699
 9956TIP3    H251284   2.256   4.915  11.303  2.9600 -2.8076 -1.4066
 9957TIP3   OH251285   2.405   1.551   5.818 -0.1223 -0.0009 -0.1346
 9957TIP3    H151286   2.477   1.579   5.875 -0.1652 -1.0258  0.4411
 9957TIP3    H251287   2.395   1.623   5.756  0.8939  0.4944  0.2475
 9958TIP3   OH251288   5.822   3.762   1.902 -0.5269 -0.1112 -0.5832
 9958TIP3    H151289   5.849   3.692   1.962  0.3970 -0.3506 -1.2689
 9958TIP3    H251290   5.821   3.720   1.816  0.4541  0.8269 -1.0609
 9959TIP3   OH251291   4.116   0.043  16.123 -0.7349  0.0161 -0.4470
 9959TIP3    H151292   4.073   0.125  16.145  1.0787  0.4519  1.6707
 9959TIP3    H251293   4.045  -0.015  16.097 -2.2439  1.6593 -0.0759
 9960TIP3   OH251294   3.609   5.781   1.678 -0.0948 -0.4324 -0.0631
 9960TIP3    H151295   3.572   5.831   1.751  1.7548  0.9086  0.0185
 9960TIP3    H251296   3.594   5.690   1.701  0.4689 -0.0383  2.0412
 9961TIP3   OH251297   2.380   5.424  10.734 -0.4464 -0.3170 -0.1509
 9961TIP3    H151298   2.408   5.514  10.754 -1.5403 -0.0512  0.2493
 9961TIP3    H251299   2.394   5.414  10.640 -0.7023  0.4192 -0.2726
 9962TIP3   OH251300   6.775   0.844   1.456 -0.1302 -0.3738 -0.1208
 9962TIP3    H151301   6.729   0.829   1.539 -1.9200 -3.3909 -1.5644
 9962TIP3    H251302   6.842   0.775   1.453 -1.9201 -2.0788 -2.3891
 9963TIP3   OH251303   3.553   1.619  12.987  0.0464 -0.2281  0.4853
 9963TIP3    H151304   3.554   1.670  12.906  0.9838 -1.4831 -0.3071
 9963TIP3    H251305   3.595   1.675  13.052  0.7164  0.1613 -0.2810
 9964TIP3   OH251306   2.931   1.451   1.067  0.0448  0.1977  0.7580
 9964TIP3    H151307   2.997   1.402   1.116 -0.2891  0.3340  1.3420
 9964TIP3    H251308   2.963   1.541   1.066 -0.5480  0.4277  1.7709
 9965TIP3   OH251309   3.617   4.691  16.164  0.6108  0.1058 -0.0168
 9965TIP3    H151310   3.576   4.604  16.157 -2.5076  1.5411 -0.7704
 9965TIP3    H251311   3.608   4.715  16.256 -1.6720  1.0184 -0.4411
 9966TIP3   OH251312   2.470   5.076   5.076  0.1357 -0.6568  0.0145
 9966TIP3    H151313   2.533   5.143   5.051  0.3083 -1.1749 -0.9686
 9966TIP3    H251314   2.393   5.093   5.021 -0.0811 -0.8392  0.2573
 9967TIP3   OH251315   1.477   0.304  14.320  0.1185  0.8267 -0.6317
 9967TIP3    H151316   1.558   0.331  14.276 -0.4002  0.9819 -1.5170
 9967TIP3    H251317   1.506   0.261  14.400  1.1234  0.0195 -1.4073
 9968TIP3   OH251318   3.059   4.792   0.894  0.0940 -0.2489 -0.0916
 9968TIP3    H151319   2.993   4.729   0.865  0.2689 -1.2783  1.7002
 9968TIP3    H251320   3.016   4.878   0.883 -0.3221 -0.6729 -2.0506
 9969TIP3   OH251321   1.937   2.306  11.585  0.1618  0.8202 -0.2314
 9969TIP3    H151322   1.875   2.344  11.523  0.2445  1.4681  0.0860
 9969TIP3    H251323   1.899   2.323  11.671  0.7728  1.2017 -0.0363
 9970TIP3   OH251324   0.150   2.761   4.338 -0.4676 -0.0250  0.4045
 9970TIP3    H151325   0.220   2.781   4.401 -0.0189 -0.5190  0.0659
 9970TIP3    H251326   0.181   2.797   4.255 -1.3838  1.2676  0.6041
 9971TIP3   OH251327   0.070   5.772   6.001  0.5662  0.2810 -0.2849
 9971TIP3    H151328   0.026   5.762   6.085  0.0849 -0.8910 -0.6583
 9971TIP3    H251329   0.156   5.808   6.023  0.8562 -1.0505  0.8177
 9972TIP3   OH251330   2.485   0.156   3.218 -0.6493 -0.3766  0.1864
 9972TIP3    H151331   2.539   0.212   3.274 -0.9393  0.4484 -0.3475
 9972TIP3    H251332   2.476   0.205   3.136 -0.6800 -1.3299 -0.3885
 9973TIP3   OH251333   1.772   5.926   2.465  0.1136 -0.1083 -0.0542
 9973TIP3    H151334   1.741   5.994   2.406  0.8127  0.8362  0.6691
 9973TIP3    H251335   1.817   5.864   2.409 -2.3013 -1.0693 -1.0237
 9974TIP3   OH251336   4.481   2.295  15.145  0.3389 -0.0573  0.0207
 9974TIP3    H151337   4.396   2.324  15.180  0.8309  0.0428  1.1603
 9974TIP3    H251338   4.508   2.366  15.086 -1.3852 -1.0919 -2.0806
 9975TIP3   OH251339   1.179   5.598  11.992 -0.2452  0.3176  0.1927
 9975TIP3    H151340   1.273   5.580  11.984 -0.0933  0.9073  0.6122
 9975TIP3    H251341   1.143   5.572  11.907 -0.1941 -2.8183  1.0609
 9976TIP3   OH251342   3.026   5.118   2.883  0.6598 -0.9536 -0.0404
 9976TIP3    H151343   3.113   5.080   2.876  1.2795  0.3312  0.4665
 9976TIP3    H251344   2.976   5.055   2.935  1.5905 -1.1958  0.5657
 9977TIP3   OH251345   2.056   6.707   3.929 -0.3493  0.3046 -0.1858
 9977TIP3    H151346   2.040   6.789   3.881 -1.6234  0.9658  1.2935
 9977TIP3    H251347   1.977   6.656   3.915  0.8513 -1.1069 -1.9122
 9978TIP3   OH251348   3.714   3.910  15.930 -0.4760  0.0503  0.2826
 9978TIP3    H151349   3.661   3.976  15.975 -2.1681  0.0457 -1.6131
 9978TIP3    H251350   3.709   3.832  15.986  0.5222  1.1428  1.9089
 9979TIP3   OH251351   4.347   5.851  16.785 -0.2119 -0.4625  0.2944
 9979TIP3    H151352   4.392   5.929  16.751 -0.4686 -0.3891  0.1209
 9979TIP3    H251353   4.364   5.853  16.879 -0.4433 -0.0434  0.3311
 9980TIP3   OH251354   3.391   0.242   1.784 -0.2488  0.0112 -0.3084
 9980TIP3    H151355   3.452   0.168   1.780 -1.4704 -0.9181 -2.0077
 9980TIP3    H251356   3.360   0.241   1.875 -0.7878 -2.0119 -0.4881
 9981TIP3   OH251357   0.836   5.576  13.916 -0.8040  0.3361 -0.1830
 9981TIP3    H151358   0.840   5.672  13.910 -2.3398  0.4353  0.0095
 9981TIP3    H251359   0.745   5.558  13.941 -0.5267 -1.1756 -0.2261
 9982TIP3   OH251360   1.284   2.289  12.494  0.6522  0.2954  0.2820
 9982TIP3    H151361   1.296   2.384  12.493  1.5915  0.1993 -1.9302
 9982TIP3    H251362   1.354   2.255  12.438  0.7014 -1.7594  1.5177
 9983TIP3   OH251363   5.824   0.811  11.359  0.0991 -0.1062 -0.2078
 9983TIP3    H151364   5.833   0.745  11.291  1.5391 -0.1642  0.0328
 9983TIP3    H251365   5.913   0.836  11.381 -0.3341 -0.1952  1.7709
 9984TIP3   OH251366   2.305   3.318   5.900  0.4237  0.0972  0.4107
 9984TIP3    H151367   2.341   3.254   5.839  0.9861  0.3835  0.4439
 9984TIP3    H251368   2.351   3.300   5.982 -0.6775 -0.6153  0.8953
 9985TIP3   OH251369   5.864   6.242  15.170 -0.6946  0.1568 -0.0308
 9985TIP3    H151370   5.789   6.291  15.202  0.2699  0.3635  1.9807
 9985TIP3    H251371   5.936   6.306  15.165  0.5903 -1.0001  2.7041
 9986TIP3   OH251372   2.605   1.050  16.299 -0.5487  0.3663 -0.0122
 9986TIP3    H151373   2.515   1.032  16.271 -1.2273  1.2250  1.5342
 9986TIP3    H251374   2.656   1.050  16.218 -1.9640  0.0332 -0.9288
 9987TIP3   OH251375   3.215   6.325  12.573 -0.5162  1.0440 -0.4901
 9987TIP3    H151376   3.248   6.323  12.663  0.7377 -0.1114 -0.9635
 9987TIP3    H251377   3.146   6.258  12.572  0.0697  0.4439 -0.6195
 9988TIP3   OH251378   0.198   2.047   2.185 -0.4145 -0.3436  0.2317
 9988TIP3    H151379   0.137   1.974   2.176  0.0970 -0.7891  0.3816
 9988TIP3    H251380   0.180   2.083   2.272 -0.3147 -0.6147  0.3657
 9989TIP3   OH251381   3.737   6.230   2.606  0.7704 -0.2759  0.1277
 9989TIP3    H151382   3.709   6.146   2.641  0.0863 -0.0265  0.1749
 9989TIP3    H251383   3.658   6.283   2.602  0.9822 -0.0237 -1.0127
 9990TIP3   OH251384   4.664   5.740   5.062 -0.3455  0.1564  0.2312
 9990TIP3    H151385   4.753   5.770   5.077 -0.2250  0.7446 -1.5377
 9990TIP3    H251386   4.610   5.803   5.110  0.0994  1.1287 -0.4995
 9991TIP3   OH251387   0.342   2.815  11.436 -0.3676  0.4694 -0.3288
 9991TIP3    H151388   0.416   2.782  11.384 -1.1001 -1.2669 -0.2838
 9991TIP3    H251389   0.353   2.774  11.522 -0.2859  1.7696  0.2958
 9992TIP3   OH251390   2.107   6.571   3.227 -0.0554 -0.4142  0.8457
 9992TIP3    H151391   2.158   6.620   3.162  0.9304 -0.6684  1.4287
 9992TIP3    H251392   2.035   6.533   3.176 -0.3723  0.9556  0.2379
 9993TIP3   OH251393   0.856   2.506  14.610 -0.3422 -0.0280 -0.5327
 9993TIP3    H151394   0.807   2.424  14.610 -0.3869  0.0002 -0.7649
 9993TIP3    H251395   0.930   2.489  14.668 -0.7347 -0.0063 -0.0103
 9994TIP3   OH251396   3.133   2.320   5.753 -0.0451 -0.6589  0.3809
 9994TIP3    H151397   3.221   2.319   5.791  0.2404 -1.5182 -0.2628
 9994TIP3    H251398   3.119   2.411   5.726  0.6223 -0.5005  0.5518
 9995TIP3   OH251399   5.459   4.244  13.847  0.1663 -0.3641 -0.2000
 9995TIP3    H151400   5.426   4.304  13.781  2.4397 -0.7546 -1.7472
 9995TIP3    H251401   5.555   4.254  13.844  0.3503 -0.2984  3.1128
 9996TIP3   OH251402   1.002   2.585   3.254  0.0043  0.1031 -0.6228
 9996TIP3    H151403   0.997   2.490   3.242 -0.7779  0.1467 -0.7150
 9996TIP3    H251404   0.916   2.616   3.225  0.3888  0.8727 -0.9270
 9997TIP3   OH251405   6.094   3.047  14.194  0.1311 -0.2483  0.5016
 9997TIP3    H151406   6.189   3.038  14.199  0.0136 -0.3461  4.1502
 9997TIP3    H251407   6.080   3.123  14.137  2.5134  1.4352  2.0750
 9998TIP3   OH251408   3.688   0.730   0.344  0.1191 -0.4146 -0.3208
 9998TIP3    H151409   3.688   0.792   0.417 -0.0785 -0.5808 -0.1797
 9998TIP3    H251410   3.605   0.746   0.300 -0.4865 -1.4363  0.4411
 9999TIP3   OH251411   6.560   6.660  15.682  0.4797  0.1223  0.2047
 9999TIP3    H151412   6.521   6.704  15.757 -1.9632 -1.3848 -0.1444
 9999TIP3    H251413   6.603   6.731  15.633  0.9075  1.3124  2.2495
10000TIP3   OH251414   3.720   3.256  13.022 -0.6070 -0.3577 -0.1704
10000TIP3    H151415   3.812   3.264  13.050 -0.3622 -2.1039 -0.4224
10000TIP3    H251416   3.671   3.255  13.104 -0.4902  1.5770 -0.0666
10001TIP3   OH251417   5.728   4.715   0.944  0.3858  0.3065  0.3539
10001TIP3    H151418   5.721   4.667   0.862 -0.6085  1.6708 -0.3809
10001TIP3    H251419   5.739   4.806   0.918 -1.1171  0.9069  1.7264
10002TIP3   OH251420   6.772   3.595   6.029 -0.1165 -0.4173 -0.0004
10002TIP3    H151421   6.846   3.636   5.984  0.1345  0.5271  1.2165
10002TIP3    H251422   6.808   3.513   6.064  0.3288 -0.0471  0.4349
10003TIP3   OH251423   0.463   0.485   2.890 -0.0220  0.1148 -0.1523
10003TIP3    H151424   0.481   0.578   2.905  0.8512 -0.0299 -0.2576
10003TIP3    H251425   0.535   0.440   2.935 -0.9307 -0.5416  0.6633
10004TIP3   OH251426   1.456   1.628   3.644  0.3228  0.2517 -0.3036
10004TIP3    H151427   1.389   1.647   3.710 -0.8499  0.9908 -1.6907
10004TIP3    H251428   1.518   1.572   3.690 -1.2563 -0.4908  1.0074
10005TIP3   OH251429   1.041   2.059   0.178 -0.1140  0.3317  0.0783
10005TIP3    H151430   1.071   1.983   0.127 -0.4771  0.0092  0.3339
10005TIP3    H251431   1.118   2.089   0.225  0.2092  0.5912 -0.6096
10006TIP3   OH251432   1.696   4.411  13.830  0.3363 -0.7090 -0.1704
10006TIP3    H151433   1.660   4.336  13.877 -2.2790  1.3089  1.1837
10006TIP3    H251434   1.782   4.425  13.871 -0.5228 -0.9966  1.8094
10007TIP3   OH251435   6.684   3.996  16.140 -0.2990  0.1718 -0.1007
10007TIP3    H151436   6.630   3.926  16.176 -2.6814  1.9404 -0.0855
10007TIP3    H251437   6.724   4.037  16.217  0.1396 -0.4266 -0.0157
10008TIP3   OH251438   6.524   3.241   5.337  0.0487  0.1791 -0.2547
10008TIP3    H151439   6.551   3.149   5.340 -0.7378 -0.0630 -0.4874
10008TIP3    H251440   6.483   3.256   5.422  0.6876  0.4779  0.0038
10009TIP3   OH251441   2.693   5.055  11.702  0.1334  0.2591  0.3290
10009TIP3    H151442   2.773   5.036  11.751  0.1354  1.0533  0.6262
10009TIP3    H251443   2.687   4.983  11.638  0.7210 -0.1658  0.7473
10010TIP3   OH251444   4.373   4.166  16.820 -0.4698 -0.5262 -0.3052
10010TIP3    H151445   4.397   4.208  16.903  2.9946 -0.4837 -1.2541
10010TIP3    H251446   4.299   4.218  16.787 -1.6340 -0.3011  2.5191
10011TIP3   OH251447   2.953   2.366  15.355  0.4451 -0.5623 -0.0879
10011TIP3    H151448   2.905   2.396  15.277  1.5144 -0.1690 -0.6084
10011TIP3    H251449   3.000   2.444  15.385 -3.0652  0.3747  3.3362
10012TIP3   OH251450   5.208   6.688  15.799 -0.1187  0.4148 -0.0697
10012TIP3    H151451   5.131   6.744  15.792 -0.0786  0.3550 -1.0677
10012TIP3    H251452   5.282   6.746  15.779  0.0690  0.3823  0.5033
10013TIP3   OH251453   5.224   5.917  16.120 -0.3449 -0.4075  0.3515
10013TIP3    H151454   5.254   5.921  16.030 -1.7025 -0.1893 -0.1062
10013TIP3    H251455   5.266   5.839  16.156 -0.6103 -1.0742 -0.7751
10014TIP3   OH251456   4.938   1.490   0.433 -0.3355 -0.0582 -0.0378
10014TIP3    H151457   4.902   1.507   0.520 -1.3979 -2.2818  0.0011
10014TIP3    H251458   5.030   1.469   0.448  0.5371  3.5579  0.0874
10015TIP3   OH251459   0.606   5.576   2.813  0.3727  0.1651 -0.1277
10015TIP3    H151460   0.615   5.627   2.894  0.5365  0.3150 -0.2422
10015TIP3    H251461   0.661   5.621   2.749  0.5770 -0.1952 -0.2095
10016TIP3   OH251462   3.358   3.117  14.684  0.6802 -0.1502 -0.0987
10016TIP3    H151463   3.358   3.209  14.710  2.0925  0.0925 -0.9280
10016TIP3    H251464   3.271   3.103  14.646  0.0483  0.5255  1.0542
10017TIP3   OH251465   4.667   1.278   5.097 -0.4302  0.6249  0.4532
10017TIP3    H151466   4.700   1.367   5.092 -1.8179  1.1381  0.1628
10017TIP3    H251467   4.590   1.278   5.040 -1.2307 -0.3854  1.5200
10018TIP3   OH251468   0.074   4.861  13.964 -0.5436  0.2462  0.3653
10018TIP3    H151469   0.104   4.820  13.883  1.8669  1.8770  0.3838
10018TIP3    H251470   0.070   4.789  14.027 -0.7455 -0.7344 -0.7535
10019TIP3   OH251471   5.735   1.625   5.406  0.1363 -0.2658 -0.0516
10019TIP3    H151472   5.817   1.611   5.359 -0.0661 -1.4737 -0.0786
10019TIP3    H251473   5.672   1.648   5.338  0.5208  0.9907  0.0096
10020TIP3   OH251474   2.123   0.566   2.427  0.2777 -0.0632 -0.1848
10020TIP3    H151475   2.103   0.478   2.459  1.2983 -0.9799 -2.0008
10020TIP3    H251476   2.058   0.582   2.359 -2.0705  1.9980  2.4400
10021TIP3   OH251477   4.793   5.324   4.532 -0.1414  0.0655  0.4682
10021TIP3    H151478   4.809   5.412   4.498 -0.0749 -0.3236 -0.5334
10021TIP3    H251479   4.797   5.334   4.627  0.6366  1.0014  0.3505
10022TIP3   OH251480   1.915   4.463  16.846  0.1925 -0.7444 -0.4114
10022TIP3    H151481   1.992   4.491  16.896 -0.7238  0.7113  0.2329
10022TIP3    H251482   1.946   4.452  16.757  0.8953  1.1122 -0.4255
10023TIP3   OH251483   4.389   6.015  16.454  0.0298  0.4653 -0.3296
10023TIP3    H151484   4.456   5.958  16.416 -0.0650  0.0487  0.1274
10023TIP3    H251485   4.309   5.963  16.450 -0.5608  1.4561 -2.1052
10024TIP3   OH251486   4.019   2.387   2.909  0.2424  0.3255  0.1147
10024TIP3    H151487   4.052   2.477   2.907  0.2271  0.2973 -2.0890
10024TIP3    H251488   4.095   2.334   2.887 -0.0836 -0.1208  0.0811
10025TIP3   OH251489   1.885   4.105  13.059 -0.1521 -0.7778  0.3210
10025TIP3    H151490   1.836   4.072  13.134  0.3273 -1.5010  0.3241
10025TIP3    H251491   1.974   4.071  13.071 -0.1129 -1.0705 -0.6692
10026TIP3   OH251492   6.488   0.637  16.748 -0.4936 -0.5699  0.2568
10026TIP3    H151493   6.445   0.569  16.800 -0.1585  0.4356  1.8812
10026TIP3    H251494   6.580   0.630  16.770 -0.2337 -0.6349 -0.8118
10027TIP3   OH251495   1.591   0.056  17.131  0.1135 -0.1023  0.0612
10027TIP3    H151496   1.639   0.032  17.209 -0.7920 -2.3720 -0.0337
10027TIP3    H251497   1.649   0.115  17.083  1.2275  0.1950  1.7648
10028TIP3   OH251498   2.723   6.525  14.395  0.4131  0.3226  0.6080
10028TIP3    H151499   2.724   6.500  14.302 -0.9793  2.3736  0.0203
10028TIP3    H251500   2.804   6.488  14.430  0.1776 -1.8501 -1.0481
10029TIP3   OH251501   1.045   6.278  13.319 -0.3190  0.0575 -0.5104
10029TIP3    H151502   1.067   6.325  13.399  1.0759 -0.5901 -0.4952
10029TIP3    H251503   1.041   6.345  13.251 -0.8481  0.5240 -0.0206
10030TIP3   OH251504   4.604   5.219   1.518  0.0366  0.1931  0.1696
10030TIP3    H151505   4.533   5.235   1.580 -0.0309  0.4303  0.0287
10030TIP3    H251506   4.596   5.288   1.453 -0.0752 -0.2282 -0.2731
10031TIP3   OH251507   1.636   0.884  12.444 -0.0924 -0.2473  0.1067
10031TIP3    H151508   1.622   0.791  12.427  3.4804 -0.9903  0.9254
10031TIP3    H251509   1.676   0.918  12.364  3.2485 -0.5656  1.5731
10032TIP3   OH251510   5.870   2.768  16.179  0.5061  0.3397 -0.5601
10032TIP3    H151511   5.824   2.693  16.142  1.5326  0.4334 -2.0319
10032TIP3    H251512   5.878   2.746  16.272 -1.4932 -0.1866 -0.4645
10033TIP3   OH251513   3.703   1.141  13.346  0.3510  0.4011  0.0521
10033TIP3    H151514   3.694   1.234  13.326 -4.1103  0.0872  0.0619
10033TIP3    H251515   3.690   1.136  13.441  2.2514 -0.0987  0.3064
10034TIP3   OH251516   4.295   1.006  13.858 -0.0586 -0.1612  0.2724
10034TIP3    H151517   4.308   0.988  13.951  0.0343 -1.4340  0.0207
10034TIP3    H251518   4.321   0.926  13.814 -0.8003  0.1804 -0.8102
10035TIP3   OH251519   2.465   3.390   3.310 -0.2934 -0.3481  0.3179
10035TIP3    H151520   2.506   3.326   3.252  0.1751  0.3584 -0.1488
10035TIP3    H251521   2.478   3.474   3.265 -1.6322 -0.0295  0.5133
10036TIP3   OH251522   2.057   2.700  15.830  0.1466  0.5781 -0.3481
10036TIP3    H151523   2.003   2.740  15.762  1.1065  3.2271  0.4036
10036TIP3    H251524   2.038   2.750  15.909 -0.8230 -2.3412  1.3619
10037TIP3   OH251525   0.561   4.896   4.797  0.2742  0.0183  0.2666
10037TIP3    H151526   0.554   4.991   4.790 -0.5946 -0.1147 -0.6113
10037TIP3    H251527   0.473   4.864   4.780  0.7501 -1.0008 -0.2930
10038TIP3   OH251528   4.855   2.695   0.269  0.0084 -0.0435  0.0106
10038TIP3    H151529   4.842   2.677   0.176  0.1612 -0.0333 -0.0132
10038TIP3    H251530   4.943   2.662   0.287  0.0209  0.0549  0.1253
10039TIP3   OH251531   1.358   1.934   1.664 -0.0055  0.1865  0.3527
10039TIP3    H151532   1.409   1.909   1.741 -0.6838 -0.3170  0.6515
10039TIP3    H251533   1.267   1.920   1.691 -0.3797  2.4417  0.3220
10040TIP3   OH251534   0.977   4.377  15.055 -0.7843  0.1764  0.0370
10040TIP3    H151535   0.918   4.348  14.985 -1.2219 -0.5197  0.6874
10040TIP3    H251536   1.002   4.297  15.100  1.2901  0.3723 -0.7071
10041TIP3   OH251537   3.684   5.837  15.984 -0.8982  0.1754 -0.2276
10041TIP3    H151538   3.762   5.819  16.037 -1.0964 -1.6825 -0.5431
10041TIP3    H251539   3.688   5.932  15.968  0.2517  0.4300  1.3809
10042TIP3   OH251540   6.719   2.253  15.610 -0.2948  0.1396 -0.4580
10042TIP3    H151541   6.803   2.296  15.628 -0.1493  0.2423 -1.3408
10042TIP3    H251542   6.710   2.258  15.515 -0.7237 -0.9543 -0.4859
10043TIP3   OH251543   2.908   3.997  17.213 -0.5783 -1.0768 -0.1934
10043TIP3    H151544   2.864   3.919  17.248 -1.1603 -1.1742 -1.1192
10043TIP3    H251545   2.851   4.026  17.142 -0.4147  0.2634  0.2197
10044TIP3   OH251546   6.647   1.327  13.373  0.8843  0.5859  0.4003
10044TIP3    H151547   6.597   1.384  13.431  0.7700  0.0391  0.8425
10044TIP3    H251548   6.598   1.244  13.373  0.2246  0.9565 -1.4002
10045TIP3   OH251549   6.119   4.921  15.732 -0.2720 -0.4284 -0.0443
10045TIP3    H151550   6.027   4.914  15.759  0.2823  2.5209  3.0607
10045TIP3    H251551   6.165   4.858  15.787 -0.1512 -0.1171  0.2159
10046TIP3   OH251552   1.629   5.849   0.337  0.1398 -0.5794 -0.7520
10046TIP3    H151553   1.605   5.767   0.293 -0.6553 -0.6439 -0.2168
10046TIP3    H251554   1.722   5.861   0.316  0.5796 -2.2256  0.1086
10047TIP3   OH251555   6.373   2.341   5.505  0.3954 -0.7797 -0.1450
10047TIP3    H151556   6.302   2.404   5.491  0.3610 -0.8760 -0.4067
10047TIP3    H251557   6.337   2.257   5.478  0.4093 -0.9303  0.3020
10048TIP3   OH251558   5.119   3.146  11.499  0.4025  0.4151 -0.2929
10048TIP3    H151559   5.135   3.051  11.495  1.5108  0.5668  0.1374
10048TIP3    H251560   5.042   3.160  11.445 -0.2957 -0.8557  0.3527
10049TIP3   OH251561   3.180   5.406  17.031 -0.1072 -0.0003  0.6068
10049TIP3    H151562   3.209   5.336  17.088 -0.1731 -0.3427  0.2263
10049TIP3    H251563   3.241   5.404  16.957  1.4985  2.0414  1.8215
10050TIP3   OH251564   0.684   3.100  14.321  0.2199  0.9159  0.2788
10050TIP3    H151565   0.720   3.187  14.302  0.1276  0.8553 -0.1779
10050TIP3    H251566   0.590   3.110  14.314  0.1996  0.8302  0.4360
10051TIP3   OH251567   6.238   6.737  11.731  1.1308  0.1508 -0.0716
10051TIP3    H151568   6.319   6.686  11.744  0.9957 -0.2728 -0.9023
10051TIP3    H251569   6.210   6.716  11.642  0.8105  1.3184 -0.2499
10052TIP3   OH251570   1.968   6.272   3.895 -0.0488 -0.0986 -0.4729
10052TIP3    H151571   1.976   6.291   3.802  0.7390  0.4233 -0.3042
10052TIP3    H251572   1.890   6.320   3.923 -0.4053 -0.4242 -0.9052
10053TIP3   OH251573   1.992   4.071  14.810 -0.4017  0.0664 -0.3641
10053TIP3    H151574   2.000   3.975  14.813 -2.1333 -0.0498  1.2632
10053TIP3    H251575   2.052   4.102  14.878  0.9368  0.2095 -1.5907
10054TIP3   OH251576   0.731   2.507  15.125  0.0389  0.2752  0.0298
10054TIP3    H151577   0.722   2.588  15.076  0.1549  0.9098  1.0315
10054TIP3    H251578   0.824   2.505  15.151  0.8569 -1.8567 -2.8223
10055TIP3   OH251579   6.417   2.785  12.632 -0.3739  0.4510  0.5050
10055TIP3    H151580   6.361   2.707  12.634  0.5200 -0.2807 -1.7876
10055TIP3    H251581   6.506   2.750  12.638 -0.0093  1.3728  0.5282
10056TIP3   OH251582   4.500   4.918   1.868 -0.5316  0.7484 -0.2935
10056TIP3    H151583   4.586   4.957   1.851 -0.4411  0.9755  0.6509
10056TIP3    H251584   4.519   4.837   1.915 -0.9203  2.0424  2.1807
10057TIP3   OH251585   1.364   4.101   1.453  0.5219  0.0459 -0.0519
10057TIP3    H151586   1.316   4.179   1.483 -0.6463 -0.9764  0.7764
10057TIP3    H251587   1.312   4.066   1.381 -0.0199 -1.0908  0.8753
10058TIP3   OH251588   1.019   4.956   0.148  0.7998 -0.3381  0.4110
10058TIP3    H151589   1.003   4.995   0.062  1.0371 -0.1862  0.4369
10058TIP3    H251590   0.932   4.953   0.189  1.1474  2.5571  1.4387
10059TIP3   OH251591   5.941   6.097  12.948  0.7003 -0.0372  0.3749
10059TIP3    H151592   5.972   6.187  12.940 -0.5753  0.5045  1.3193
10059TIP3    H251593   5.953   6.059  12.860  1.2386  1.0442 -0.0240
10060TIP3   OH251594   5.002   4.579  14.273  0.1458 -0.5374  0.1080
10060TIP3    H151595   5.008   4.575  14.369  0.6586 -0.0735  0.0927
10060TIP3    H251596   4.955   4.499  14.249  0.9383 -1.1739  0.6654
10061TIP3   OH251597   6.752   4.136   0.399  0.9785  0.1719 -0.4533
10061TIP3    H151598   6.736   4.207   0.336  0.8426 -1.4337 -2.3072
10061TIP3    H251599   6.666   4.120   0.438  0.8736  0.6124 -0.5002
10062TIP3   OH251600   0.192   3.022   2.857 -0.1111  0.0187 -0.4051
10062TIP3    H151601   0.172   3.053   2.769  0.7304 -0.5724 -0.8114
10062TIP3    H251602   0.274   2.975   2.848 -0.2536 -0.4485  0.6130
10063TIP3   OH251603   3.195   3.536  14.543 -0.0722  0.6173 -0.9743
10063TIP3    H151604   3.194   3.546  14.638  1.7527 -0.5583 -0.8130
10063TIP3    H251605   3.168   3.445  14.529  1.3188  0.2677 -1.4753
10064TIP3   OH251606   6.263   6.160   0.143 -0.2132  0.4199 -0.7479
10064TIP3    H151607   6.252   6.247   0.104 -3.7706  0.5878  0.4070
10064TIP3    H251608   6.224   6.169   0.230 -1.3337 -2.5518 -0.9110
10065TIP3   OH251609   2.214   2.489  11.198 -0.0414 -0.1023 -0.0169
10065TIP3    H151610   2.170   2.425  11.255  1.3590  0.0239  1.2371
10065TIP3    H251611   2.302   2.498  11.235  1.3077 -0.8756 -2.9017
10066TIP3   OH251612   5.741   6.360  16.463 -0.4473 -0.3172  0.1327
10066TIP3    H151613   5.672   6.426  16.470  0.2156  0.8403 -3.2780
10066TIP3    H251614   5.822   6.409  16.481 -0.0063 -0.3107 -1.8180
10067TIP3   OH251615   0.603   5.034   3.709  0.8521  0.3487 -0.2838
10067TIP3    H151616   0.642   5.033   3.796  1.5291  0.1428 -0.5865
10067TIP3    H251617   0.548   5.113   3.708 -0.5009 -0.5502  0.9106
10068TIP3   OH251618   2.022   1.832  14.416 -0.3463  0.7558  0.3032
10068TIP3    H151619   1.944   1.870  14.376  0.0800  1.2771 -0.0414
10068TIP3    H251620   2.025   1.742  14.383  1.1442  1.7840 -2.5434
10069TIP3   OH251621   0.357   3.330   5.717 -0.0459 -0.2671 -0.0950
10069TIP3    H151622   0.358   3.252   5.662 -0.2920 -1.9135  2.1576
10069TIP3    H251623   0.406   3.305   5.796 -0.9236  1.5491  1.0760
10070TIP3   OH251624   2.553   6.374   1.521  0.0989 -0.0690 -0.3277
10070TIP3    H151625   2.486   6.441   1.532  1.3332  0.8761  1.7070
10070TIP3    H251626   2.545   6.317   1.598  0.4819 -0.9901 -0.9468
10071TIP3   OH251627   1.545   6.277   0.702 -0.3688  0.1332 -0.4451
10071TIP3    H151628   1.522   6.359   0.659  0.5516  0.1914 -0.8285
10071TIP3    H251629   1.620   6.244   0.653 -0.4990 -0.7478 -0.0608
10072TIP3   OH251630   0.964   6.135   1.405 -0.4021  0.3024 -0.0404
10072TIP3    H151631   1.010   6.083   1.339  1.5263 -0.3284  1.7778
10072TIP3    H251632   0.878   6.151   1.366  0.4231 -0.7122 -2.3814
10073TIP3   OH251633   4.843   5.811  11.199  0.5600  0.1712 -0.0371
10073TIP3    H151634   4.801   5.760  11.130 -1.1828  2.4287 -0.7169
10073TIP3    H251635   4.781   5.808  11.272  3.0517 -3.4680  2.0961
10074TIP3   OH251636   6.675   2.052  13.384 -0.0467  0.4772  0.1546
10074TIP3    H151637   6.704   2.098  13.463  0.8183  1.4383 -0.6953
10074TIP3    H251638   6.582   2.034  13.398  0.4109 -0.5787  1.9652
10075TIP3   OH251639   2.780   4.433  14.809  0.3811  0.6814 -0.3751
10075TIP3    H151640   2.704   4.454  14.755 -0.4598  0.0438  0.5478
10075TIP3    H251641   2.833   4.375  14.754  0.1960  1.1162 -1.0152
10076TIP3   OH251642   1.153   6.374   2.464 -0.4388  0.3135 -0.4606
10076TIP3    H151643   1.228   6.433   2.467 -1.2738  1.3893 -0.3700
10076TIP3    H251644   1.089   6.415   2.522 -1.2448 -0.3779 -0.8620
10077TIP3   OH251645   4.492   0.176   2.930 -0.2047 -0.8642 -0.0888
10077TIP3    H151646   4.481   0.189   3.025  0.1355  1.2111 -0.2963
10077TIP3    H251647   4.525   0.087   2.922  0.4283 -0.8375  1.8061
10078TIP3   OH251648   1.027   0.049  16.436 -0.4871  0.0002 -0.2514
10078TIP3    H151649   1.059  -0.039  16.417 -1.1367 -0.5895  1.2804
10078TIP3    H251650   1.105   0.104  16.438  0.0212 -0.7195 -0.2898
10079TIP3   OH251651   5.775   1.090  16.789 -0.0516 -0.2534  0.4418
10079TIP3    H151652   5.738   1.175  16.814 -3.2292 -1.2672 -0.5224
10079TIP3    H251653   5.831   1.110  16.714 -0.4351  1.0541  0.4904
10080TIP3   OH251654   4.106   3.483   6.529  0.6286  0.5378 -0.1520
10080TIP3    H151655   4.143   3.421   6.592  0.4770 -1.6556 -2.1151
10080TIP3    H251656   4.018   3.450   6.511  0.9550  0.6211 -2.0798
10081TIP3   OH251657   4.532   1.131  15.881  0.1349  0.2513 -0.7993
10081TIP3    H151658   4.522   1.205  15.941  1.8999 -0.8958  0.9795
10081TIP3    H251659   4.444   1.094  15.875 -0.5112  1.7284 -0.7056
10082TIP3   OH251660   1.755   5.708  15.478 -0.2946  0.5922  0.1931
10082TIP3    H151661   1.845   5.676  15.486 -0.7128 -0.6255  0.1239
10082TIP3    H251662   1.757   5.763  15.399  0.3916  0.5725  0.1904
10083TIP3   OH251663   2.196   1.193  12.631  0.0732 -0.4873 -0.1611
10083TIP3    H151664   2.179   1.214  12.539 -0.3721 -1.4226 -0.3000
10083TIP3    H251665   2.271   1.134  12.628  0.8948  0.5235  0.1789
10084TIP3   OH251666   6.588   4.332   2.829  0.0730 -0.2754  0.4355
10084TIP3    H151667   6.506   4.313   2.875 -0.7443  1.7259 -0.1322
10084TIP3    H251668   6.566   4.322   2.736  0.7677 -0.7755  0.3199
10085TIP3   OH251669   4.096   5.592  10.577 -0.0170 -0.2970  1.1173
10085TIP3    H151670   4.158   5.612  10.507  0.6042  1.0028  2.0199
10085TIP3    H251671   4.151   5.560  10.649 -0.3948  0.7477  1.8786
10086TIP3   OH251672   0.263   2.026  15.202  0.1294  0.0863  0.1067
10086TIP3    H151673   0.291   1.939  15.232 -0.8402  0.0191  0.8669
10086TIP3    H251674   0.182   2.010  15.154 -0.6413  0.6841  1.1882
10087TIP3   OH251675   1.439   2.888  16.634 -0.3149 -0.1930  0.2860
10087TIP3    H151676   1.496   2.961  16.613 -1.6929  1.3956  1.9297
10087TIP3    H251677   1.372   2.925  16.692 -0.8192 -2.8079  1.4666
10088TIP3   OH251678   0.666   2.237  13.712  0.0048 -0.0774  0.1858
10088TIP3    H151679   0.684   2.175  13.642  1.4418 -1.5991  1.8519
10088TIP3    H251680   0.752   2.277  13.731 -0.4990  0.8156  0.6197
10089TIP3   OH251681   5.660   1.955   3.182  0.3447 -0.1993  0.1023
10089TIP3    H151682   5.603   1.942   3.258 -0.1191  0.0476 -0.2038
10089TIP3    H251683   5.748   1.951   3.218  0.1130  1.9770  0.9789
10090TIP3   OH251684   2.622   3.940   5.558 -0.0512 -0.0016  0.5741
10090TIP3    H151685   2.552   3.998   5.588  0.2484  1.4474 -1.4117
10090TIP3    H251686   2.665   3.989   5.487  0.4835 -2.4775 -0.8707
10091TIP3   OH251687   0.630   3.402  11.927 -0.3291  0.0003  0.3776
10091TIP3    H151688   0.651   3.468  11.993 -0.7356 -0.5552  1.0678
10091TIP3    H251689   0.535   3.391  11.934 -0.5625  0.8519 -1.1675
10092TIP3   OH251690   5.805   5.896   0.699 -0.2012 -0.3411 -0.2554
10092TIP3    H151691   5.754   5.853   0.768  1.0531  0.0036  0.9237
10092TIP3    H251692   5.896   5.890   0.729  0.3057  0.3435 -1.5995
10093TIP3   OH251693   3.745   5.281  11.452 -0.3257  0.3420 -0.0235
10093TIP3    H151694   3.786   5.265  11.367 -2.6573  2.1069 -1.5534
10093TIP3    H251695   3.704   5.197  11.475  0.1715 -0.0991 -0.7278
10094TIP3   OH251696   0.470   3.738   5.927 -0.0142  0.2689  0.0690
10094TIP3    H151697   0.529   3.809   5.904  0.2991  0.1981  0.6437
10094TIP3    H251698   0.487   3.670   5.862 -1.0451  1.1147 -1.1126
10095TIP3   OH251699   4.768   4.197  10.706 -0.3392 -0.1822  0.3728
10095TIP3    H151700   4.821   4.135  10.755 -0.1312 -0.4598 -0.2016
10095TIP3    H251701   4.678   4.174  10.728 -0.2353  1.8384  3.2885
10096TIP3   OH251702   0.490   1.021   1.491  0.3240  0.2765  0.1373
10096TIP3    H151703   0.398   1.048   1.488  0.0521 -0.6339  0.4385
10096TIP3    H251704   0.528   1.074   1.561  0.4151  1.8355 -1.0541
10097TIP3   OH251705   6.377   0.977  14.757  0.5347 -0.2291  0.2517
10097TIP3    H151706   6.380   1.034  14.834 -0.4816  2.0239 -1.3271
10097TIP3    H251707   6.294   0.929  14.766 -1.2322  2.4662 -1.0603
10098TIP3   OH251708   0.734   6.681   5.715  0.4661  0.0511 -0.0552
10098TIP3    H151709   0.779   6.659   5.797 -2.5768 -0.5947  1.5239
10098TIP3    H251710   0.702   6.770   5.728  0.1324  0.0161 -0.6263
10099TIP3   OH251711   0.525   4.233  12.258  0.6444 -0.2491 -0.0634
10099TIP3    H151712   0.470   4.271  12.189  0.5126  0.3050  0.3437
10099TIP3    H251713   0.593   4.185  12.210 -0.9001 -1.9912 -0.5623
10100TIP3   OH251714   1.021   0.519   4.283  0.6137 -0.1870  1.2048
10100TIP3    H151715   0.989   0.518   4.192  0.4952 -2.3355  1.2248
10100TIP3    H251716   1.060   0.605   4.295 -0.6157  0.6284 -0.4559
10101TIP3   OH251717   3.100   5.085  16.231 -0.5278  0.8417 -0.0261
10101TIP3    H151718   3.056   5.080  16.316 -0.2517  2.6456  0.2437
10101TIP3    H251719   3.052   5.023  16.176  1.7182 -3.3108  2.4583
10102TIP3   OH251720   0.531   2.622  14.753 -1.0877  0.1507  1.0626
10102TIP3    H151721   0.449   2.585  14.721 -1.2460  0.3021  1.2901
10102TIP3    H251722   0.582   2.641  14.674 -0.4786 -1.7443  0.9561
10103TIP3   OH251723   3.122   3.623  11.341  0.0362 -0.0320  0.5807
10103TIP3    H151724   3.123   3.542  11.391 -1.4244 -0.4745 -0.0791
10103TIP3    H251725   3.122   3.595  11.249  0.5163  0.7272  0.3426
10104TIP3   OH251726   2.123   3.474  14.350 -0.1231 -0.2230 -0.3121
10104TIP3    H151727   2.218   3.485  14.346  0.0620 -1.7799 -0.5912
10104TIP3    H251728   2.105   3.453  14.441 -0.2608  0.4962 -0.1666
10105TIP3   OH251729   3.706   5.574  15.215 -0.4237  0.3870 -0.1391
10105TIP3    H151730   3.792   5.550  15.181 -2.4167 -1.5070 -4.3058
10105TIP3    H251731   3.692   5.516  15.289  1.3348 -0.2038 -0.2433
10106TIP3   OH251732   0.597   5.900  11.781  0.6380 -0.4831 -0.2045
10106TIP3    H151733   0.682   5.936  11.805  0.5529 -1.3038  1.3624
10106TIP3    H251734   0.589   5.918  11.687  1.6506  1.3799  0.0550
10107TIP3   OH251735   1.689   0.209  13.670  0.2875 -0.4445 -0.4049
10107TIP3    H151736   1.614   0.268  13.662 -0.5664 -1.5529 -0.5941
10107TIP3    H251737   1.745   0.232  13.596 -0.5211 -0.5552 -1.0568
10108TIP3   OH251738   2.966   3.306  15.383 -0.6857  0.2974  0.1145
10108TIP3    H151739   2.929   3.218  15.378 -0.2219  0.1600 -1.0154
10108TIP3    H251740   3.048   3.295  15.430  0.9114 -0.4181 -2.6726
10109TIP3   OH251741   0.935   4.307   0.277  0.0187  0.0408  0.2469
10109TIP3    H151742   0.959   4.218   0.302 -0.5230  0.2212  1.4367
10109TIP3    H251743   0.896   4.345   0.356  2.1516  2.0357  0.3843
10110TIP3   OH251744   4.915   0.012   0.453 -0.8871 -0.0909  0.2291
10110TIP3    H151745   4.966   0.076   0.504 -0.9488  0.2792 -0.1752
10110TIP3    H251746   4.826   0.048   0.452 -1.1835 -0.7809  1.0088
10111TIP3   OH251747   0.689   2.521  15.436 -0.0216 -0.1315 -0.8626
10111TIP3    H151748   0.628   2.572  15.382  0.3186  0.5977 -0.5717
10111TIP3    H251749   0.729   2.586  15.494  0.6592 -0.6900 -0.7040
10112TIP3   OH251750   2.413   2.399   1.549  0.0496  0.4608 -0.0006
10112TIP3    H151751   2.483   2.464   1.559 -1.2082  1.7261  0.6965
10112TIP3    H251752   2.457   2.323   1.510  2.0616  0.7824  1.5471
10113TIP3   OH251753   2.637   3.346  15.378 -0.6257  0.0173 -0.1899
10113TIP3    H151754   2.638   3.262  15.330 -0.9580 -0.7036  1.0511
10113TIP3    H251755   2.683   3.327  15.460  0.5142  1.4220 -0.4950
10114TIP3   OH251756   0.055   6.338   4.800  0.2185 -0.1991 -0.3391
10114TIP3    H151757   0.002   6.307   4.727 -0.3823  1.5171 -0.6436
10114TIP3    H251758   0.033   6.430   4.809  0.8644 -0.1966  1.5177
10115TIP3   OH251759   6.146   0.034   5.336  0.1277  0.6741  0.6604
10115TIP3    H151760   6.077   0.078   5.288 -2.3705 -1.4397  2.2100
10115TIP3    H251761   6.158   0.086   5.415  0.1466  0.9226  0.4917
10116TIP3   OH251762   5.557   1.846  11.937 -0.1246 -0.0767 -0.1616
10116TIP3    H151763   5.509   1.929  11.932 -0.0795 -0.0177  0.3517
10116TIP3    H251764   5.532   1.799  11.858 -1.0244 -0.0458  0.1019
10117TIP3   OH251765   6.091   5.325  14.495  0.4649 -0.0458  0.1597
10117TIP3    H151766   6.148   5.336  14.571  0.0198  0.3159  0.4465
10117TIP3    H251767   6.011   5.286  14.530  0.2472  0.1488 -0.1146
10118TIP3   OH251768   5.447   1.878   3.374 -0.1908 -1.0306  0.2623
10118TIP3    H151769   5.375   1.896   3.434 -0.5082 -0.8379 -0.1791
10118TIP3    H251770   5.412   1.816   3.311 -0.0347 -0.7732 -0.0799
10119TIP3   OH251771   1.775   2.547   6.421  0.0589  0.1910  0.1581
10119TIP3    H151772   1.749   2.457   6.403 -1.5646  0.4754  0.9582
10119TIP3    H251773   1.863   2.540   6.456 -0.0983 -1.1034  0.3286
10120TIP3   OH251774   6.278   2.673   0.415 -0.3975  0.2528  0.1730
10120TIP3    H151775   6.241   2.700   0.331 -0.8420  1.5082  0.7715
10120TIP3    H251776   6.327   2.749   0.445  2.7164 -1.3711 -0.6107
10121TIP3   OH251777   2.796   6.293  16.566 -0.4586 -0.1132  0.6800
10121TIP3    H151778   2.805   6.281  16.472 -4.3388  0.5393  0.1646
10121TIP3    H251779   2.805   6.387  16.580 -0.7004 -0.1164  0.8626
10122TIP3   OH251780   6.092   5.233   1.111 -0.2255  0.5456 -0.3135
10122TIP3    H151781   6.162   5.285   1.152 -0.9793  0.1690  1.4944
10122TIP3    H251782   6.086   5.154   1.166 -3.0048  1.2055  0.4132
10123TIP3   OH251783   4.919   0.863   3.242 -0.2167  0.2603 -0.1096
10123TIP3    H151784   4.836   0.910   3.231  0.1583  0.8255 -0.5837
10123TIP3    H251785   4.896   0.771   3.229 -0.9281  0.3215  0.6265
10124TIP3   OH251786   3.863   0.787  12.755  0.7145 -0.0346 -0.4723
10124TIP3    H151787   3.773   0.801  12.725  0.8360  1.9861  0.0178
10124TIP3    H251788   3.907   0.744  12.682 -0.4611 -0.4160 -0.9667
10125TIP3   OH251789   4.937   3.118  17.120  0.1115 -0.2607 -0.4737
10125TIP3    H151790   4.843   3.132  17.106  0.3847  1.2012 -0.8985
10125TIP3    H251791   4.941   3.041  17.176 -1.2808 -1.3669 -1.8417
10126TIP3   OH251792   0.903   5.025  14.565 -0.5749 -0.7055 -0.2450
10126TIP3    H151793   0.949   4.956  14.613  0.6295 -0.6478 -1.2956
10126TIP3    H251794   0.958   5.042  14.488 -0.9692  1.2709 -0.1237
10127TIP3   OH251795   5.949   2.868   1.923 -0.1770 -0.0916  0.1692
10127TIP3    H151796   5.918   2.841   2.009 -0.7410  0.8178  0.2669
10127TIP3    H251797   5.886   2.830   1.862 -1.3430  1.4931  0.3473
10128TIP3   OH251798   0.358   5.855   2.268 -0.2246  0.0168  0.3561
10128TIP3    H151799   0.339   5.827   2.178 -0.3650  0.7979  0.1396
10128TIP3    H251800   0.286   5.915   2.289 -0.6392 -0.8013  1.2855
10129TIP3   OH251801   4.946   0.889   0.858  0.2746 -0.0228  0.2905
10129TIP3    H151802   4.895   0.956   0.812  0.8848  0.5215  0.3897
10129TIP3    H251803   5.028   0.934   0.882  1.7630 -1.5116 -1.8440
10130TIP3   OH251804   0.805   4.884   4.325 -0.5130 -0.2765  0.3571
10130TIP3    H151805   0.737   4.951   4.321  0.5081  0.8481  1.5749
10130TIP3    H251806   0.882   4.924   4.285  0.0212 -0.8201  0.8273
10131TIP3   OH251807   0.189   5.557   1.305 -0.6582  0.9691  0.2037
10131TIP3    H151808   0.130   5.561   1.230 -1.3744 -0.6906  0.6508
10131TIP3    H251809   0.133   5.532   1.378  0.5199 -0.2763  0.7059
10132TIP3   OH251810   4.673   3.740   2.481  0.0240  0.5011  0.2242
10132TIP3    H151811   4.647   3.725   2.572  0.1096 -0.4137  0.1047
10132TIP3    H251812   4.753   3.791   2.487 -0.2433  0.8731  0.6546
10133TIP3   OH251813   0.968   3.853  16.147 -0.2142 -0.0489  0.2032
10133TIP3    H151814   0.985   3.912  16.073  0.4217  0.1550  0.5103
10133TIP3    H251815   1.050   3.805  16.158 -0.4066 -0.2856  0.5973
10134TIP3   OH251816   6.101   1.981  14.020 -0.2450 -0.5302  0.1968
10134TIP3    H151817   6.083   1.893  14.055 -0.7508 -0.5524 -0.1090
10134TIP3    H251818   6.102   1.968  13.925  1.8140 -0.6048  0.2085
10135TIP3   OH251819   0.401   3.609  11.147 -0.3340 -0.0034  0.1039
10135TIP3    H151820   0.353   3.626  11.066  0.4312  0.8387 -0.1728
10135TIP3    H251821   0.493   3.610  11.121  0.0464  2.5597  1.3785
10136TIP3   OH251822   4.816   3.372  14.507 -0.4089  0.4580  0.2333
10136TIP3    H151823   4.728   3.351  14.538 -0.1900  1.3021  1.4551
10136TIP3    H251824   4.846   3.291  14.465 -1.4030 -0.1312  0.6350
10137TIP3   OH251825   1.848   2.581  14.779  0.3388  0.6806 -0.2083
10137TIP3    H151826   1.878   2.661  14.737 -0.4778  0.4978 -1.1699
10137TIP3    H251827   1.837   2.604  14.871  2.6251  0.9552  0.0271
10138TIP3   OH251828   1.839   0.685  14.129  0.3991  0.0436 -0.2232
10138TIP3    H151829   1.844   0.780  14.135 -1.4845  0.0920  0.8851
10138TIP3    H251830   1.775   0.668  14.060  0.0164 -0.4167  0.2400
10139TIP3   OH251831   3.472   4.725  14.785  0.7512  0.2041  0.2495
10139TIP3    H151832   3.433   4.638  14.791  0.4857  0.1360 -1.9789
10139TIP3    H251833   3.564   4.713  14.809 -0.1944  0.1460  4.3162
10140TIP3   OH251834   3.641   2.461   3.634 -0.3708  0.0570  0.7536
10140TIP3    H151835   3.686   2.379   3.612 -0.8642 -0.3198  1.1373
10140TIP3    H251836   3.549   2.436   3.641 -0.9824  1.2240 -2.2096
10141TIP3   OH251837   1.836   6.401   4.486  0.0276 -0.1948 -0.1052
10141TIP3    H151838   1.825   6.494   4.504 -1.8572 -0.3312 -0.5076
10141TIP3    H251839   1.848   6.361   4.572  0.6975  0.3868  0.0815
10142TIP3   OH251840   6.642   2.867  15.886  0.5380 -0.4660  0.2362
10142TIP3    H151841   6.670   2.931  15.952 -0.0698 -1.6214  1.6505
10142TIP3    H251842   6.704   2.795  15.895  0.2280 -0.7858 -0.1957
10143TIP3   OH251843   1.593   3.154  14.233  0.3505 -0.0416 -0.1510
10143TIP3    H151844   1.686   3.140  14.253  0.7913  1.8094 -0.7631
10143TIP3    H251845   1.557   3.193  14.312  0.7395  1.7623 -0.8350
10144TIP3   OH251846   6.431   5.813   6.103  0.4881 -0.4589 -0.1546
10144TIP3    H151847   6.485   5.789   6.028  0.7411  0.8386 -0.4005
10144TIP3    H251848   6.468   5.896   6.133 -0.9652  0.1149  0.0664
10145TIP3   OH251849   2.118   4.194  16.592 -0.4217  0.8365  0.0583
10145TIP3    H151850   2.071   4.277  16.593 -0.8487  0.7316 -4.0423
10145TIP3    H251851   2.209   4.218  16.576 -0.6166  0.5131 -1.5837
10146TIP3   OH251852   4.723   5.723  16.863 -0.0639  0.1038 -0.2751
10146TIP3    H151853   4.642   5.673  16.876  0.9340 -2.1777 -2.5522
10146TIP3    H251854   4.791   5.669  16.903  0.4614  1.7162  1.0669
10147TIP3   OH251855   3.525   5.464  16.689  0.4057 -0.2252 -0.0078
10147TIP3    H151856   3.501   5.449  16.597 -0.1659 -1.2742  0.3119
10147TIP3    H251857   3.574   5.546  16.687 -0.6116  0.3820 -1.1029
10148TIP3   OH251858   1.140   4.264   0.558  0.1183 -0.3000  0.1151
10148TIP3    H151859   1.119   4.174   0.582 -2.0068 -0.1506 -1.0551
10148TIP3    H251860   1.100   4.317   0.627 -0.2768 -0.1726 -0.2099
10149TIP3   OH251861   6.558   1.311   5.077  0.2496 -0.7650 -0.0237
10149TIP3    H151862   6.639   1.274   5.042  1.6432  0.8861  1.3544
10149TIP3    H251863   6.584   1.349   5.161 -2.0218 -0.4662  0.5654
10150TIP3   OH251864   1.217   0.491   1.447 -0.2162 -0.2107  0.0549
10150TIP3    H151865   1.179   0.404   1.454 -0.9562 -0.0499 -1.7324
10150TIP3    H251866   1.230   0.504   1.353  1.1274  1.0854  0.3956
10151TIP3   OH251867   1.650   5.690  14.540  0.3691 -0.2347  0.4830
10151TIP3    H151868   1.713   5.641  14.486 -0.3821  0.9661 -1.5475
10151TIP3    H251869   1.592   5.622  14.576  2.0969 -1.2370  1.4255
10152TIP3   OH251870   4.051   5.239   4.321 -0.2273  1.1265 -0.0059
10152TIP3    H151871   4.145   5.251   4.308 -0.3053  1.5390 -0.1943
10152TIP3    H251872   4.026   5.172   4.258  0.1875  0.0698  0.9486
10153TIP3   OH251873   0.077   2.436   0.719 -0.8123 -0.3293  0.8287
10153TIP3    H151874   0.157   2.384   0.720 -1.1247 -0.9848 -2.6993
10153TIP3    H251875   0.024   2.400   0.791  1.3663 -0.9295  2.1746
10154TIP3   OH251876   3.642   2.722   4.282  0.1716  0.4627 -0.4150
10154TIP3    H151877   3.563   2.694   4.330 -0.5661 -0.4096 -2.0905
10154TIP3    H251878   3.617   2.715   4.190  2.0508  0.6980 -0.9502
10155TIP3   OH251879   4.214   2.440  17.077 -0.4936 -0.6572  0.4239
10155TIP3    H151880   4.152   2.425  17.006  0.7231 -0.1001 -0.7816
10155TIP3    H251881   4.208   2.534  17.095 -0.2320 -0.6563  0.5141
10156TIP3   OH251882   1.592   2.319   2.273 -0.4696 -0.2803 -0.0052
10156TIP3    H151883   1.600   2.404   2.231 -0.2755 -1.9386 -3.4675
10156TIP3    H251884   1.676   2.276   2.258 -1.6525 -2.2787 -1.0715
10157TIP3   OH251885   2.465   2.148  13.918 -0.0792  0.0161  0.0337
10157TIP3    H151886   2.413   2.097  13.856  1.0838 -1.3380  0.1506
10157TIP3    H251887   2.428   2.126  14.004 -0.1207  0.0062  0.0138
10158TIP3   OH251888   1.212   0.344  12.304  0.0981  0.4752 -0.4232
10158TIP3    H151889   1.266   0.424  12.304  1.6164 -0.5307 -1.3657
10158TIP3    H251890   1.266   0.279  12.260 -0.8127 -1.3147  1.0789
10159TIP3   OH251891   3.858   5.833   4.032  0.3098  0.0756  0.3674
10159TIP3    H151892   3.911   5.754   4.023 -0.2341 -0.5064  2.1153
10159TIP3    H251893   3.853   5.869   3.943  1.5038 -1.2263 -0.2467
10160TIP3   OH251894   2.424   5.311  13.840 -0.2155 -0.4366  0.5679
10160TIP3    H151895   2.343   5.350  13.872 -0.2045  1.2580 -1.3501
10160TIP3    H251896   2.454   5.371  13.771  1.0333 -2.6782 -0.9079
10161TIP3   OH251897   5.856   6.181  16.045 -0.1566 -0.5728 -0.4708
10161TIP3    H151898   5.794   6.137  15.986 -1.9662  0.1935  0.8092
10161TIP3    H251899   5.801   6.237  16.100  1.7841  0.8843  0.0532
10162TIP3   OH251900   1.637   1.849  10.998  0.7039 -0.0481 -0.0947
10162TIP3    H151901   1.566   1.872  11.057 -0.2319 -0.5433 -1.0153
10162TIP3    H251902   1.659   1.930  10.953  0.0496 -0.1099 -0.5257
10163TIP3   OH251903   0.402   6.383  11.929 -0.1608  0.3988 -0.2397
10163TIP3    H151904   0.325   6.355  11.978  0.6104  0.5170  1.0437
10163TIP3    H251905   0.414   6.475  11.954  0.3997  0.3789 -0.4377
10164TIP3   OH251906   5.185   2.199  13.683  0.6647 -0.2560  0.5823
10164TIP3    H151907   5.093   2.209  13.708  0.6098 -2.1796  1.2139
10164TIP3    H251908   5.232   2.253  13.747 -0.0023  0.7014  0.2865
10165TIP3   OH251909   5.962   5.033   2.660  0.4821  0.7210 -0.4676
10165TIP3    H151910   5.981   4.962   2.599 -0.9899 -0.9400  0.9622
10165TIP3    H251911   5.975   4.995   2.747 -0.3217  2.1951  0.3248
10166TIP3   OH251912   6.768   5.976  14.470  0.0989  0.2522  0.3901
10166TIP3    H151913   6.861   5.980  14.448  0.3594  0.7484  1.5074
10166TIP3    H251914   6.726   5.944  14.391  1.0008  1.7566 -0.7448
10167TIP3   OH251915   0.426   4.266   0.281 -0.1082 -0.0705  0.1369
10167TIP3    H151916   0.357   4.200   0.268  0.9545 -1.0291 -0.7859
10167TIP3    H251917   0.503   4.229   0.237  0.7146  1.4531  0.2621
10168TIP3   OH251918   3.721   6.204  12.913  0.6849 -0.1170 -0.7179
10168TIP3    H151919   3.637   6.211  12.958  1.3139  0.2351  0.4338
10168TIP3    H251920   3.736   6.292  12.878  1.2971  0.2541  0.4329
10169TIP3   OH251921   4.360   1.296  11.492 -0.0435  0.7120  0.5525
10169TIP3    H151922   4.303   1.299  11.568 -1.3540 -0.6024 -0.3620
10169TIP3    H251923   4.417   1.373  11.502 -0.7442  1.0161  2.4079
10170TIP3   OH251924   1.736   2.262  14.146  0.3632 -0.4029  0.0300
10170TIP3    H151925   1.760   2.175  14.178  0.4494  0.2413  1.7302
10170TIP3    H251926   1.750   2.257  14.051  0.5022 -2.1947  0.1247
10171TIP3   OH251927   4.280   2.583  12.166 -0.0302 -0.3136 -0.2643
10171TIP3    H151928   4.202   2.564  12.219 -0.1816 -1.3570 -0.8355
10171TIP3    H251929   4.246   2.626  12.088 -0.1978 -1.9017 -1.1006
10172TIP3   OH251930   6.249   3.638  11.176 -0.1857  0.3229 -0.2961
10172TIP3    H151931   6.209   3.709  11.125 -0.0544 -0.0924 -0.9840
10172TIP3    H251932   6.339   3.635  11.146  0.0281  0.3984  0.3232
10173TIP3   OH251933   1.000   5.428   4.523  0.2438 -0.1527 -1.4024
10173TIP3    H151934   1.094   5.442   4.510  0.3364 -0.3147 -0.9128
10173TIP3    H251935   0.960   5.513   4.502  0.8224  0.9596  1.7436
10174TIP3   OH251936   2.022   3.847  13.680  0.5674 -0.1410 -0.2402
10174TIP3    H151937   1.943   3.886  13.716  0.6124 -0.1272 -0.1578
10174TIP3    H251938   2.013   3.753  13.699  0.2611 -0.2275 -0.8106
10175TIP3   OH251939   3.756   2.068  14.663 -0.6452  0.2839  0.3289
10175TIP3    H151940   3.682   2.062  14.603  0.3090  1.4822 -1.0066
10175TIP3    H251941   3.717   2.057  14.750 -1.8980 -2.6148 -0.5186
10176TIP3   OH251942   5.051   4.786  14.811  0.6143  1.0547 -0.4446
10176TIP3    H151943   4.958   4.764  14.808  0.9945 -0.6014 -0.1927
10176TIP3    H251944   5.066   4.815  14.901  1.2714 -2.9896  0.8432
10177TIP3   OH251945   4.706   0.495   4.507  0.0049 -0.1523 -0.4088
10177TIP3    H151946   4.642   0.566   4.499 -0.6216 -0.4419  1.7437
10177TIP3    H251947   4.696   0.445   4.426 -1.1191  0.9148 -0.9610
10178TIP3   OH251948   0.972   6.025  14.945 -0.4356  0.5464  0.1040
10178TIP3    H151949   1.022   6.008  14.865  0.0945  1.6012  0.1930
10178TIP3    H251950   1.029   5.994  15.015  0.1526  1.8376  0.2113
10179TIP3   OH251951   3.976   3.995  12.284 -1.2414  0.3805 -0.2429
10179TIP3    H151952   4.020   3.911  12.266 -1.3220  0.7558 -2.2276
10179TIP3    H251953   4.047   4.051  12.316 -0.7489  0.2442 -1.0824
10180TIP3   OH251954   5.341   6.517  12.923  0.4275  0.0293  0.2420
10180TIP3    H151955   5.253   6.527  12.887  0.1978  0.4374  0.9147
10180TIP3    H251956   5.359   6.423  12.919  1.0958  0.2107 -2.5728
10181TIP3   OH251957   2.094   2.854   6.546  0.0833 -0.1869 -0.2973
10181TIP3    H151958   2.032   2.926   6.556 -0.0616 -0.3874  0.2683
10181TIP3    H251959   2.116   2.854   6.453 -0.3019  0.2686 -0.3891
10182TIP3   OH251960   6.134   5.161  12.279 -0.2653 -0.2658  0.1859
10182TIP3    H151961   6.076   5.234  12.257  1.2881  0.0587 -3.2694
10182TIP3    H251962   6.213   5.202  12.314 -0.8816 -0.5365  1.9302
10183TIP3   OH251963   1.067   5.120   2.745  0.0627 -0.2351  0.0005
10183TIP3    H151964   1.021   5.190   2.699  1.6072  1.1579  0.4818
10183TIP3    H251965   1.117   5.075   2.677 -1.5204 -1.3696 -0.4274
10184TIP3   OH251966   3.093   0.200  15.072 -0.7124  0.2588 -0.0882
10184TIP3    H151967   3.132   0.229  15.154  0.4652 -0.9167 -0.2035
10184TIP3    H251968   3.159   0.219  15.006  0.4026 -3.1456 -0.0862
10185TIP3   OH251969   3.119   0.490  14.374 -0.4821 -0.0900  0.1590
10185TIP3    H151970   3.044   0.437  14.401 -1.4447  0.5700 -1.1843
10185TIP3    H251971   3.103   0.510  14.282  2.7601 -2.3487 -0.9926
10186TIP3   OH251972   6.712   3.310   5.773 -0.0041 -0.0628  0.2039
10186TIP3    H151973   6.774   3.356   5.829 -0.4616  2.6218 -1.4054
10186TIP3    H251974   6.632   3.306   5.826  0.5170 -0.4819  0.9784
10187TIP3   OH251975   0.928   3.944   3.634 -0.3506 -0.1486 -0.0959
10187TIP3    H151976   0.931   3.850   3.654 -1.0031 -0.3548 -0.9238
10187TIP3    H251977   0.990   3.955   3.562  0.3201  0.1990  0.5291
10188TIP3   OH251978   6.061   6.248   3.560  0.0667 -0.4958 -0.3555
10188TIP3    H151979   6.064   6.341   3.537 -1.2522 -0.3639 -0.0349
10188TIP3    H251980   6.151   6.227   3.585  0.4676  0.5845 -0.8300
10189TIP3   OH251981   4.022   4.585  12.447 -0.0510  0.1206 -0.0868
10189TIP3    H151982   4.116   4.592  12.465 -0.3736  1.5898  1.0822
10189TIP3    H251983   4.013   4.500  12.403  1.9177  0.2850 -0.8657
10190TIP3   OH251984   0.359   5.532  15.031  0.3303 -0.4543  0.7068
10190TIP3    H151985   0.326   5.586  14.959  1.0299  0.1504  0.8392
10190TIP3    H251986   0.283   5.522  15.089 -0.5351 -1.8144 -0.6167
10191TIP3   OH251987   3.450   0.322  14.019 -0.6860 -0.6595  0.1847
10191TIP3    H151988   3.421   0.391  14.079 -0.1948 -0.3809  0.1046
10191TIP3    H251989   3.481   0.369  13.941  1.8399 -0.7976  1.0330
10192TIP3   OH251990   4.205   1.108  15.016 -0.1054  0.3126  0.6014
10192TIP3    H151991   4.146   1.144  15.083 -0.8306 -0.8160  0.5915
10192TIP3    H251992   4.234   1.024  15.052 -0.6259 -0.3813 -0.5468
10193TIP3   OH251993   3.917   2.253   4.463  0.1206  0.7062 -0.1840
10193TIP3    H151994   3.972   2.175   4.463  0.3086  0.8340 -1.0575
10193TIP3    H251995   3.827   2.220   4.456 -0.0043  0.4571  2.0199
10194TIP3   OH251996   2.550   2.078   4.713  0.0958 -0.2101  0.0435
10194TIP3    H151997   2.608   2.136   4.761  2.4929 -0.9692 -1.8577
10194TIP3    H251998   2.551   1.996   4.764 -0.0901  0.0930  0.5370
10195TIP3   OH251999   0.473   6.457  14.420  0.3047 -1.0300  0.5643
10195TIP3    H152000   0.449   6.408  14.341 -0.8698  0.0035  0.2503
10195TIP3    H252001   0.389   6.473  14.464  0.6420  0.8413  0.5565
10196TIP3   OH252002   1.953   1.304  13.089 -0.1918 -0.5778 -0.2687
10196TIP3    H152003   2.025   1.289  13.027  0.1851 -1.5794  0.3955
10196TIP3    H252004   1.995   1.301  13.175 -1.1150 -1.7186  0.1513
10197TIP3   OH252005   1.329   1.734   5.063  0.2629 -0.8066  0.0902
10197TIP3    H152006   1.299   1.738   5.154 -0.2330  1.5497 -0.1492
10197TIP3    H252007   1.412   1.782   5.062 -0.8315  1.1268 -1.0990
10198TIP3   OH252008   6.024   5.729  12.712 -0.0645 -0.0307  0.0851
10198TIP3    H152009   6.026   5.660  12.646  1.5973  0.1748 -0.1004
10198TIP3    H252010   6.002   5.683  12.793 -0.5126 -0.5399 -0.3240
10199TIP3   OH252011   3.515   4.724  12.943 -0.0553  0.2353  0.4596
10199TIP3    H152012   3.555   4.778  13.011 -1.7850 -0.0604  1.7557
10199TIP3    H252013   3.548   4.636  12.960 -0.2211  0.2214  0.7235
10200TIP3   OH252014   2.459   3.252   1.641 -0.8380  0.0728  0.0351
10200TIP3    H152015   2.544   3.213   1.620 -0.4831  1.3603 -1.0383
10200TIP3    H252016   2.468   3.281   1.732 -1.0404 -2.1130  0.7751
10201TIP3   OH252017   5.581   0.311   5.370 -0.1583 -0.0729 -0.0221
10201TIP3    H152018   5.640   0.264   5.429 -1.1219 -0.5523  0.5801
10201TIP3    H252019   5.565   0.394   5.415 -2.0788 -1.0434  1.1410
10202TIP3   OH252020   0.861   1.437  10.931  0.2830 -0.3721 -0.0301
10202TIP3    H152021   0.907   1.450  11.013  0.1448  1.7642 -0.2539
10202TIP3    H252022   0.768   1.441  10.954  0.2270 -1.3584 -0.0645
10203TIP3   OH252023   0.833   3.533   3.248  0.1993 -0.4965  0.3727
10203TIP3    H152024   0.749   3.576   3.263  1.0508  0.2657  3.3675
10203TIP3    H252025   0.869   3.521   3.336  4.3149  1.4149 -0.9502
10204TIP3   OH252026   3.574   2.037   0.277 -0.0976 -0.1523  0.2285
10204TIP3    H152027   3.543   2.092   0.204 -1.5015  3.3339  3.2984
10204TIP3    H252028   3.669   2.047   0.276  0.0726 -1.5756 -2.1400
10205TIP3   OH252029   0.766   0.392  12.773  0.1675  0.1689 -0.4249
10205TIP3    H152030   0.775   0.414  12.865  0.2466 -0.0453 -0.3812
10205TIP3    H252031   0.857   0.388  12.741  0.1076  1.3765 -0.7820
10206TIP3   OH252032   5.763   2.929  12.618 -0.3120  0.5787 -0.2812
10206TIP3    H152033   5.799   2.842  12.634  1.5288  1.2755 -0.4610
10206TIP3    H252034   5.756   2.969  12.705  1.7644  1.3406 -0.4360
10207TIP3   OH252035   0.724   0.417   4.377 -0.5552 -0.8107  0.4333
10207TIP3    H152036   0.801   0.445   4.328 -0.2400 -0.2945  1.2099
10207TIP3    H252037   0.654   0.416   4.312 -0.9162  3.2526  0.6001
10208TIP3   OH252038   5.101   5.503   2.125 -0.1589  0.0206  0.5997
10208TIP3    H152039   5.160   5.453   2.182 -2.1596 -0.9546  1.8548
10208TIP3    H252040   5.079   5.581   2.176  2.3004  1.8507 -1.0306
10209TIP3   OH252041   3.344   0.856   4.526 -0.4137  0.5274 -0.2712
10209TIP3    H152042   3.267   0.895   4.484 -1.1830  0.2105  0.8196
10209TIP3    H252043   3.418   0.898   4.483 -1.2123  2.8163  0.4891
10210TIP3   OH252044   2.517   0.603  15.476 -0.0204  0.4444 -0.1492
10210TIP3    H152045   2.427   0.603  15.508 -0.9053  0.7008 -2.5364
10210TIP3    H252046   2.556   0.525  15.516 -2.4081 -1.7929 -1.9890
10211TIP3   OH252047   3.765   2.561  15.120  0.1665  0.4154  0.0205
10211TIP3    H152048   3.684   2.585  15.166 -0.0106 -0.5049  0.1979
10211TIP3    H252049   3.794   2.480  15.163 -0.1225 -0.5799 -1.6262
10212TIP3   OH252050   2.255   1.543   4.350  0.1153 -0.0214  0.0400
10212TIP3    H152051   2.280   1.571   4.438  0.1708 -3.0089  1.0512
10212TIP3    H252052   2.337   1.540   4.302  0.8487 -2.9526  1.3198
10213TIP3   OH252053   5.149   4.197   2.295 -0.0047  0.1131 -0.0039
10213TIP3    H152054   5.098   4.249   2.233 -2.7594 -2.4431  0.0414
10213TIP3    H252055   5.178   4.121   2.244  1.3867  0.1159  0.7453
10214TIP3   OH252056   0.329   0.061   1.610 -0.4475  0.0653 -0.4514
10214TIP3    H152057   0.374  -0.023   1.602  1.7832  1.0162  1.5350
10214TIP3    H252058   0.331   0.097   1.521  0.9610 -0.8039 -0.8042
10215TIP3   OH252059   5.790   4.415   0.126 -0.9985  0.0863 -0.2695
10215TIP3    H152060   5.805   4.329   0.088 -1.2253  0.1444 -0.4937
10215TIP3    H252061   5.864   4.468   0.096 -1.5895  0.3459 -1.2844
10216TIP3   OH252062   4.223   3.055   1.293 -0.2119 -0.6251  0.0973
10216TIP3    H152063   4.315   3.035   1.278  0.0111 -0.8790  1.7170
10216TIP3    H252064   4.197   2.996   1.363 -2.0777 -1.7446 -1.4813
10217TIP3   OH252065   2.975   3.922  11.867 -0.1713  0.0806  0.4342
10217TIP3    H152066   3.010   4.002  11.906 -1.4746  1.1615 -0.5983
10217TIP3    H252067   3.019   3.852  11.915 -0.3178  1.3930  2.5454
10218TIP3   OH252068   5.434   4.872   5.197 -0.3463  0.4523  0.4911
10218TIP3    H152069   5.488   4.892   5.121  1.0685 -2.4338  0.6833
10218TIP3    H252070   5.484   4.806   5.246 -1.8982  1.1396  3.1463
10219TIP3   OH252071   3.994   4.640  11.815 -0.0574 -0.0112 -0.2774
10219TIP3    H152072   4.085   4.644  11.785 -0.3486 -0.6994 -1.2936
10219TIP3    H252073   3.948   4.702  11.758 -0.8754 -2.3737 -2.2634
10220TIP3   OH252074   5.721   1.921   3.522 -0.0764  0.3564 -0.5338
10220TIP3    H152075   5.628   1.923   3.502 -0.0794  1.6173 -0.4812
10220TIP3    H252076   5.755   2.002   3.483  0.5232  1.1714  1.5730
10221TIP3   OH252077   4.027   2.868  12.645  0.0966 -0.4541 -1.0936
10221TIP3    H152078   4.074   2.926  12.586 -1.7549 -0.7224 -2.8579
10221TIP3    H252079   3.993   2.925  12.714  0.7870  0.1014 -1.2115
10222TIP3   OH252080   6.073   6.162  14.089 -0.0862  0.2238  0.1151
10222TIP3    H152081   6.028   6.246  14.102  0.6868  0.6252  0.2483
10222TIP3    H252082   6.014   6.097  14.126 -0.4463  0.7687  0.5105
10223TIP3   OH252083   6.351   3.777   2.688 -0.5639 -0.1492 -1.3703
10223TIP3    H152084   6.288   3.849   2.686 -2.6931 -1.9593 -1.0590
10223TIP3    H252085   6.431   3.813   2.650 -0.9104  3.0104  0.7177
10224TIP3   OH252086   0.614   5.054  14.909 -0.1117 -0.0119  0.0023
10224TIP3    H152087   0.633   5.146  14.928 -0.0758 -0.2655  1.2511
10224TIP3    H252088   0.700   5.013  14.903 -0.1308  0.0115 -0.3907
10225TIP3   OH252089   1.502   1.036   3.911 -0.1552  0.2405 -0.3311
10225TIP3    H152090   1.473   0.984   3.837  0.4036  0.0628 -0.4259
10225TIP3    H252091   1.561   0.978   3.960  0.9912  0.9870 -0.7990
10226TIP3   OH252092   4.671   2.015   2.209 -0.0659 -0.1460 -0.3186
10226TIP3    H152093   4.578   2.032   2.226 -0.2482 -1.9347  0.6718
10226TIP3    H252094   4.696   1.954   2.279  1.8166  0.2156 -0.6724
10227TIP3   OH252095   2.238   1.920  16.721  0.8918  0.0700 -0.2213
10227TIP3    H152096   2.211   1.944  16.633  0.8050 -1.3372 -0.5802
10227TIP3    H252097   2.162   1.941  16.776  0.3411 -0.5879 -0.7230
10228TIP3   OH252098   1.857   6.688  11.209  0.2568  0.0589  0.5505
10228TIP3    H152099   1.887   6.631  11.138 -2.9494 -2.4906  1.0958
10228TIP3    H252100   1.825   6.767  11.165 -1.4899 -1.4020 -0.9047
10229TIP3   OH252101   3.993   2.972   4.895  0.1724 -0.3798 -0.0927
10229TIP3    H152102   4.057   2.950   4.963 -0.3442 -1.8296 -0.0571
10229TIP3    H252103   3.998   2.899   4.833 -0.9864 -0.1915 -0.4214
10230TIP3   OH252104   3.405   0.607   1.540  0.2931 -0.0986  0.1285
10230TIP3    H152105   3.446   0.678   1.590  1.5549 -0.8904  0.2421
10230TIP3    H252106   3.418   0.633   1.448 -0.4290  0.4695  0.1843
10231TIP3   OH252107   4.795   6.272  16.798 -0.1013 -0.4438 -0.2729
10231TIP3    H152108   4.831   6.209  16.736 -0.7711 -0.7286 -0.3838
10231TIP3    H252109   4.783   6.352  16.747  1.1364 -0.0953 -0.0266
10232TIP3   OH252110   4.444   6.735   4.101 -0.4926  0.3504  0.3304
10232TIP3    H152111   4.363   6.734   4.050 -0.2467  0.9303 -0.0775
10232TIP3    H252112   4.432   6.806   4.163 -0.1724  0.6373  0.0660
10233TIP3   OH252113   3.414   6.712   2.190  0.5149  0.4110  0.2244
10233TIP3    H152114   3.351   6.660   2.241  2.2594 -0.0388  1.9774
10233TIP3    H252115   3.406   6.679   2.101 -0.6571 -0.6784  0.7114
10234TIP3   OH252116   3.420   3.315  14.331 -0.0069  0.4780 -0.4798
10234TIP3    H152117   3.503   3.353  14.361  1.0770 -1.4625 -0.9278
10234TIP3    H252118   3.354   3.352  14.389  1.6026 -0.4150  1.9967
10235TIP3   OH252119   2.720   3.959  11.781  0.5209 -0.2206  0.5560
10235TIP3    H152120   2.698   3.867  11.797  0.4824 -0.2377  0.4065
10235TIP3    H252121   2.806   3.970  11.821  1.0672 -0.6410 -0.4962
10236TIP3   OH252122   4.953   0.645   3.720  0.3365 -0.4360 -0.2400
10236TIP3    H152123   4.935   0.701   3.645 -0.5651 -0.4218 -0.0190
10236TIP3    H252124   5.022   0.585   3.690  1.1554  0.6503 -0.5376
10237TIP3   OH252125   0.680   5.104  16.890 -0.2060 -0.9523 -0.1535
10237TIP3    H152126   0.604   5.138  16.937  0.5599 -0.4762  0.7598
10237TIP3    H252127   0.745   5.174  16.895  0.3579 -1.4189 -0.7787
10238TIP3   OH252128   2.688   3.079   1.541 -0.8343  0.0328 -0.1051
10238TIP3    H152129   2.751   3.107   1.475 -1.2586  0.8555 -0.1598
10238TIP3    H252130   2.609   3.058   1.492 -0.9932  0.1702  0.0901
10239TIP3   OH252131   3.098   2.535  10.828  0.0347 -0.0272  0.5827
10239TIP3    H152132   3.102   2.453  10.778 -0.8879  0.3201 -0.0849
10239TIP3    H252133   3.178   2.536  10.880  0.5625 -0.8452 -0.2045
10240TIP3   OH252134   4.580   3.734  12.189 -0.3919 -0.6476 -0.0884
10240TIP3    H152135   4.611   3.791  12.118  1.0656  0.6864  1.5875
10240TIP3    H252136   4.562   3.650  12.146 -0.9634  0.5518 -2.2937
10241TIP3   OH252137   6.542   2.662   3.183  0.0090 -0.2513 -0.4207
10241TIP3    H152138   6.603   2.604   3.228  1.2401  1.4102  0.0692
10241TIP3    H252139   6.595   2.736   3.153 -1.8358  1.5107  0.5255
10242TIP3   OH252140   1.830   5.511   4.914 -0.6335 -0.3285 -0.2188
10242TIP3    H152141   1.791   5.430   4.948 -0.6292 -0.1333  0.2595
10242TIP3    H252142   1.892   5.482   4.848 -1.6443 -0.6417 -1.0355
10243TIP3   OH252143   5.916   0.850  16.546 -0.6178 -0.1587  0.1557
10243TIP3    H152144   6.011   0.850  16.538 -0.5245 -1.6061  1.0959
10243TIP3    H252145   5.884   0.854  16.456  0.3322 -0.4253 -0.1919
10244TIP3   OH252146   6.595   3.420  11.306 -0.1047 -0.4089 -0.3754
10244TIP3    H152147   6.524   3.417  11.370  2.5045 -0.2302  2.6387
10244TIP3    H252148   6.555   3.461  11.229 -4.1138 -3.2271 -0.0199
10245TIP3   OH252149   0.717   2.484  14.375  0.1673  0.1708  0.3334
10245TIP3    H152150   0.695   2.577  14.379  1.4520  0.6339 -2.1437
10245TIP3    H252151   0.776   2.470  14.449 -0.6848  1.1298  1.2149
10246TIP3   OH252152   4.916   2.298   0.126  0.2864  0.1003  0.1565
10246TIP3    H152153   4.848   2.365   0.138 -0.2614 -0.2167 -1.0912
10246TIP3    H252154   4.998   2.347   0.119  0.0800  0.5395  0.8376
10247TIP3   OH252155   6.381   2.154  16.585 -0.0663 -0.0214 -0.3673
10247TIP3    H152156   6.405   2.235  16.630  0.1892 -1.0572  1.3785
10247TIP3    H252157   6.295   2.173  16.546 -0.4008  0.8140  0.7628
10248TIP3   OH252158   2.314   2.277   4.872  0.1536 -0.0059  0.1954
10248TIP3    H152159   2.273   2.200   4.911 -1.2351  0.6020 -0.0166
10248TIP3    H252160   2.262   2.351   4.906  1.6011  0.8470  0.5726
10249TIP3   OH252161   6.305   4.312   4.446  0.0353 -0.3145 -0.0764
10249TIP3    H152162   6.323   4.295   4.538  0.3248 -3.0482 -0.5993
10249TIP3    H252163   6.389   4.344   4.411  0.4272 -1.0116  0.2193
10250TIP3   OH252164   6.768   6.450   1.011  0.6474 -0.5127 -0.1115
10250TIP3    H152165   6.774   6.384   0.942  1.7466 -0.5967  0.0427
10250TIP3    H252166   6.857   6.486   1.017 -0.1942  1.7585 -0.9497
10251TIP3   OH252167   0.444   5.678   1.322  0.2327 -0.1544 -0.4573
10251TIP3    H152168   0.351   5.655   1.321  0.5651 -1.5791 -1.4713
10251TIP3    H252169   0.486   5.605   1.367  1.2984 -1.5427 -3.5361
10252TIP3   OH252170   2.905   4.164  16.158  0.2272 -0.2972  0.2738
10252TIP3    H152171   2.915   4.176  16.064  2.0086 -0.7045  0.3939
10252TIP3    H252172   2.995   4.156  16.191 -0.3504  0.4712  2.0859
10253TIP3   OH252173   4.838   3.663  14.274 -0.0693 -0.1511  0.6203
10253TIP3    H152174   4.777   3.640  14.204 -1.8766 -1.2535  2.4999
10253TIP3    H252175   4.895   3.587  14.283  0.9821  0.4826 -0.4518
10254TIP3   OH252176   2.753   1.481   0.611  0.4017  0.3500 -0.6953
10254TIP3    H152177   2.750   1.453   0.520  0.4817 -0.2890 -0.4980
10254TIP3    H252178   2.834   1.531   0.618 -0.3861  1.7743 -1.3703
10255TIP3   OH252179   3.271   0.526  13.310 -0.3180 -0.3105 -0.3219
10255TIP3    H152180   3.281   0.619  13.291  0.9653 -0.2701  0.5163
10255TIP3    H252181   3.358   0.497  13.337 -1.2692 -1.1881  1.9166
10256TIP3   OH252182   5.783   2.593  10.890  0.1375 -0.5974  0.1187
10256TIP3    H152183   5.824   2.673  10.857 -0.0424 -0.1761  0.8963
10256TIP3    H252184   5.825   2.579  10.975 -1.1713 -0.2857  0.8228
10257TIP3   OH252185   2.093   1.192   2.391  0.4139 -0.1776  0.0841
10257TIP3    H152186   2.161   1.147   2.439 -0.4096  0.8323  2.2572
10257TIP3    H252187   2.082   1.275   2.437 -0.7476  0.6054 -1.5476
10258TIP3   OH252188   4.727   2.469  12.980 -0.3848  0.2281  0.7765
10258TIP3    H152189   4.685   2.446  13.063  0.3869  1.4284  1.5130
10258TIP3    H252190   4.710   2.393  12.923 -1.3525 -0.3930  1.8541
10259TIP3   OH252191   4.547   6.436  15.427  0.0125  0.7181  0.4162
10259TIP3    H152192   4.596   6.477  15.498  0.2869  1.3470 -0.1295
10259TIP3    H252193   4.602   6.447  15.350  0.0066 -0.5329  0.2275
10260TIP3   OH252194   4.675   1.971  13.748 -0.1515 -0.4856  0.3232
10260TIP3    H152195   4.765   1.952  13.725  0.0647 -2.0576  2.2847
10260TIP3    H252196   4.681   2.036  13.818 -0.5471 -0.5566  0.4283
10261TIP3   OH252197   4.270   2.181   3.773 -0.7295 -0.1126  0.2604
10261TIP3    H152198   4.327   2.212   3.844 -2.0599  0.9168  0.9208
10261TIP3    H252199   4.306   2.221   3.694  0.0545 -0.2840  0.5284
10262TIP3   OH252200   1.127   2.133  13.932 -0.2099 -0.8024  0.7085
10262TIP3    H152201   1.199   2.196  13.929  0.1099 -1.1633  0.7947
10262TIP3    H252202   1.083   2.150  14.015 -1.1548  0.4471 -0.0275
10263TIP3   OH252203   4.140   3.086   2.064 -0.8124 -0.2518 -0.1359
10263TIP3    H152204   4.225   3.130   2.071 -1.0046  0.2298 -0.7592
10263TIP3    H252205   4.141   3.020   2.133 -0.3203  0.4126  0.4996
10264TIP3   OH252206   2.709   6.656  15.826  0.0439 -0.0726  0.2268
10264TIP3    H152207   2.703   6.608  15.909  0.6748  0.8113  0.7948
10264TIP3    H252208   2.794   6.699  15.829 -0.0113  0.1301 -0.7982
10265TIP3   OH252209   2.238   0.954   5.192  0.4567  0.8642 -0.5046
10265TIP3    H152210   2.270   0.951   5.101 -1.8468  0.6857 -1.3350
10265TIP3    H252211   2.192   0.871   5.204 -1.3736  1.9173 -0.0018
10266TIP3   OH252212   1.357   0.412   4.973 -0.1264 -0.2116  0.2768
10266TIP3    H152213   1.317   0.344   5.028  0.0592  0.0017  0.6765
10266TIP3    H252214   1.285   0.473   4.955 -0.9420 -1.7585 -2.1200
10267TIP3   OH252215   6.112   1.192  16.017  0.5232 -0.4606 -0.5799
10267TIP3    H152216   6.198   1.218  15.983 -0.2407  0.4490 -1.8493
10267TIP3    H252217   6.072   1.142  15.946 -0.3854 -0.0484 -0.3699
10268TIP3   OH252218   1.183   6.678   4.976 -0.4483  0.2898 -0.1757
10268TIP3    H152219   1.197   6.587   5.002 -0.1090  0.6280  0.8592
10268TIP3    H252220   1.184   6.727   5.059 -1.4180  1.1327 -0.6551
10269TIP3   OH252221   2.798   1.456   1.824  0.0599 -0.5871  0.3580
10269TIP3    H152222   2.871   1.479   1.766  0.0249 -2.3292 -0.4172
10269TIP3    H252223   2.724   1.506   1.791 -0.0234 -1.7599 -1.3020
10270TIP3   OH252224   3.532   3.432  12.370  0.5460 -0.0035  0.5131
10270TIP3    H152225   3.545   3.464  12.460 -0.3900  1.3307  0.1867
10270TIP3    H252226   3.522   3.511  12.318  0.6591 -0.7872 -0.7077
10271TIP3   OH252227   2.391   2.129  15.312  0.3114  0.0231  0.0898
10271TIP3    H152228   2.481   2.153  15.335  0.7325 -1.8096  0.4123
10271TIP3    H252229   2.398   2.086  15.227 -0.3329  0.2988 -0.1108
10272TIP3   OH252230   0.055   0.928   4.123  0.0753  0.0230 -0.0384
10272TIP3    H152231   0.112   0.851   4.129  1.2898  0.9785  0.8533
10272TIP3    H252232   0.114   1.000   4.103 -1.2712  0.4815 -2.6375
10273TIP3   OH252233   0.754   4.269   6.031 -0.5736  0.2284 -0.2515
10273TIP3    H152234   0.724   4.239   5.945  0.8470 -0.6853 -0.4476
10273TIP3    H252235   0.734   4.362   6.033 -2.4247 -0.1338 -0.7930
10274TIP3   OH252236   4.634   4.639  12.058 -0.5323 -0.7527  0.2160
10274TIP3    H152237   4.647   4.689  12.139  0.3418 -1.0902  0.2895
10274TIP3    H252238   4.563   4.579  12.078 -0.7132 -0.4317  0.5433
10275TIP3   OH252239   4.901   5.226   4.876 -0.3665  0.8004 -0.0155
10275TIP3    H152240   4.922   5.221   4.969 -0.0781  1.9834 -0.0163
10275TIP3    H252241   4.973   5.179   4.833 -1.1420 -0.8343  0.4301
10276TIP3   OH252242   1.759   3.577   1.505  0.1042  0.5561 -0.6397
10276TIP3    H152243   1.700   3.501   1.506  1.3587 -0.4469  0.8297
10276TIP3    H252244   1.730   3.631   1.579  1.7842 -0.5986  0.9246
10277TIP3   OH252245   1.065   3.014  11.254 -0.2415  0.2000  0.3417
10277TIP3    H152246   0.994   3.003  11.317  0.1493 -0.2951  0.7059
10277TIP3    H252247   1.082   3.108  11.252 -1.6299  0.4552 -0.5487
10278TIP3   OH252248   0.040   4.448  15.412  0.5074 -0.5378  0.1095
10278TIP3    H152249   0.043   4.530  15.460 -1.6856 -0.4609  0.1666
10278TIP3    H252250   0.104   4.458  15.342  0.2009  1.2447  0.0768
10279TIP3   OH252251   2.193   6.321   5.820  0.1793  0.5622  0.0470
10279TIP3    H152252   2.206   6.254   5.753 -0.0526  1.1818 -0.6271
10279TIP3    H252253   2.260   6.303   5.886 -0.2726 -0.7045  0.1781
10280TIP3   OH252254   4.834   4.176   2.095 -0.3063  0.0686 -0.0347
10280TIP3    H152255   4.839   4.213   2.183 -1.1052  2.9762 -1.1685
10280TIP3    H252256   4.822   4.082   2.109  0.5054  0.3700  2.9356
10281TIP3   OH252257   6.601   2.284  11.339 -0.2721 -0.2403  0.0901
10281TIP3    H152258   6.664   2.353  11.318 -0.1886 -0.9606 -2.1895
10281TIP3    H252259   6.642   2.236  11.410  1.0889  0.1957 -0.3721
10282TIP3   OH252260   2.977   0.200   2.599 -0.0629  0.3348 -0.8951
10282TIP3    H152261   3.055   0.146   2.590 -1.4652 -2.1834  1.2921
10282TIP3    H252262   2.913   0.159   2.541 -1.0147 -0.1466  0.4686
10283TIP3   OH252263   6.767   6.174   5.728 -0.5771 -0.5203  0.2168
10283TIP3    H152264   6.818   6.146   5.652 -0.6368 -2.8071  0.9862
10283TIP3    H252265   6.815   6.140   5.803  0.1137  2.6886  1.3246
10284TIP3   OH252266   6.588   5.352   2.831 -0.0437 -0.5258 -0.6428
10284TIP3    H152267   6.623   5.272   2.794  0.1764 -0.6130 -0.2406
10284TIP3    H252268   6.515   5.375   2.773  0.2570 -0.6988 -1.0900
10285TIP3   OH252269   2.484   0.160   4.998 -0.0857 -0.2347 -0.0983
10285TIP3    H152270   2.472   0.065   4.992 -4.0537  0.0180  2.4343
10285TIP3    H252271   2.465   0.191   4.909 -2.9755 -1.4716  0.0153
10286TIP3   OH252272   0.798   6.609   4.702  0.5744 -0.3207 -0.2522
10286TIP3    H152273   0.833   6.652   4.624 -0.7256  0.3905 -0.4476
10286TIP3    H252274   0.720   6.659   4.724  1.2472 -0.1325  1.8548
10287TIP3   OH252275   3.308   5.336   1.820  0.2081  0.5205  0.8488
10287TIP3    H152276   3.215   5.354   1.811  0.0253  0.2769  2.1274
10287TIP3    H252277   3.314   5.279   1.897  1.1329 -1.8178 -0.9024
10288TIP3   OH252278   1.675   1.439   1.348  0.6194 -0.6549 -0.1370
10288TIP3    H152279   1.754   1.393   1.376  0.6225 -1.5716 -1.5747
10288TIP3    H252280   1.673   1.427   1.253 -0.3205  0.8440 -0.3206
10289TIP3   OH252281   1.127   5.753  16.398 -0.0774  0.0128 -0.4481
10289TIP3    H152282   1.114   5.745  16.303 -1.2231 -2.2130 -0.1441
10289TIP3    H252283   1.039   5.763  16.433  0.3818  1.3081  0.3697
10290TIP3   OH252284   3.592   4.531   0.309 -0.3402  0.7963 -0.1601
10290TIP3    H152285   3.579   4.593   0.237  0.9130  1.1639 -0.0841
10290TIP3    H252286   3.639   4.581   0.376 -0.6756  0.1938  0.5348
10291TIP3   OH252287   5.375   6.523   3.465 -0.1172 -0.2344 -0.5847
10291TIP3    H152288   5.440   6.491   3.403 -0.6632  1.3818 -2.0213
10291TIP3    H252289   5.348   6.445   3.514  2.1597 -1.0942 -0.6295
10292TIP3   OH252290   4.655   3.585   2.082 -0.0650 -0.4282 -0.1969
10292TIP3    H152291   4.579   3.566   2.137 -1.7471  3.2588 -1.1171
10292TIP3    H252292   4.729   3.546   2.130 -2.2912 -2.6719  1.5214
10293TIP3   OH252293   1.009   0.472  15.797 -0.2972 -0.5452 -0.1850
10293TIP3    H152294   0.983   0.403  15.858 -0.7956  0.5294  0.8255
10293TIP3    H252295   0.954   0.456  15.720 -1.1832 -0.6477  0.4530
10294TIP3   OH252296   3.518   4.303   5.008  0.0944  0.5546  0.7374
10294TIP3    H152297   3.548   4.356   5.081  1.2928 -0.0231  0.6646
10294TIP3    H252298   3.476   4.227   5.048 -0.7374  1.0544  0.8308
10295TIP3   OH252299   2.194   1.467  16.112  0.0273  0.2977  0.2147
10295TIP3    H152300   2.117   1.433  16.159 -0.0833  0.4610  0.1504
10295TIP3    H252301   2.268   1.445  16.169  0.0879 -1.1249 -0.3759
10296TIP3   OH252302   0.363   5.078  12.700 -0.2673  0.6032  0.0673
10296TIP3    H152303   0.352   5.067  12.794 -0.9099  2.0614  0.1643
10296TIP3    H252304   0.458   5.077  12.687 -0.2067 -2.8303  0.3115
10297TIP3   OH252305   2.582   6.479   0.423  0.0844  0.2384 -0.2607
10297TIP3    H152306   2.601   6.430   0.343  0.0066  1.0938 -0.7983
10297TIP3    H252307   2.492   6.454   0.446  1.6547 -3.7570  2.2359
10298TIP3   OH252308   0.042   5.296   0.465  0.1974  0.3151 -0.4598
10298TIP3    H152309   0.117   5.317   0.410  0.4948 -0.3984 -0.3344
10298TIP3    H252310  -0.008   5.233   0.413  0.8960 -0.9735  0.4123
10299TIP3   OH252311   0.377   2.744   2.044 -0.2266 -0.1527 -0.1521
10299TIP3    H152312   0.294   2.709   2.011  0.8383 -2.4891 -0.4805
10299TIP3    H252313   0.436   2.738   1.969  0.3469  1.1482  0.1839
10300TIP3   OH252314   0.678   6.293   0.640 -0.1137  0.7905 -0.3886
10300TIP3    H152315   0.668   6.336   0.725 -0.0398  0.5771 -0.2713
10300TIP3    H252316   0.602   6.323   0.589  0.4757  1.8441 -0.6508
10301TIP3   OH252317   0.515   3.905  12.286  0.5403  0.8199  0.4336
10301TIP3    H152318   0.560   3.988  12.300 -1.3717  2.1218 -0.8748
10301TIP3    H252319   0.494   3.904  12.193 -1.0495 -0.2956  0.7868
10302TIP3   OH252320   4.478   2.264  11.766  0.3611  0.4782  0.5813
10302TIP3    H152321   4.445   2.352  11.752  0.1023  0.1701 -0.7992
10302TIP3    H252322   4.568   2.266  11.734 -0.4779 -0.4280 -1.9527
10303TIP3   OH252323   4.037   5.069  13.624 -0.9516  0.8397  0.0995
10303TIP3    H152324   3.992   4.986  13.606  0.5109 -0.1190  0.7480
10303TIP3    H252325   4.073   5.095  13.539 -1.1626  0.6384 -0.0512
10304TIP3   OH252326   1.541   2.343   6.418  0.1006  0.4643 -0.4853
10304TIP3    H152327   1.606   2.273   6.410 -0.9510 -1.2834  4.2941
10304TIP3    H252328   1.459   2.297   6.432 -1.1050  2.6886 -0.0530
10305TIP3   OH252329   0.569   1.741  14.289  0.2161 -0.4676 -0.2429
10305TIP3    H152330   0.593   1.793  14.366 -1.2739  0.8829 -0.6462
10305TIP3    H252331   0.591   1.798  14.215  0.9732 -1.4685 -0.7885
10306TIP3   OH252332   3.867   1.849   3.741  0.4255  0.6748  0.2132
10306TIP3    H152333   3.834   1.857   3.831 -1.3974  1.3799 -0.4803
10306TIP3    H252334   3.908   1.934   3.723 -0.1094  0.9076  0.0581
10307TIP3   OH252335   2.729   4.084  16.351  0.3840 -0.3044 -0.4565
10307TIP3    H152336   2.762   4.088  16.441  0.9311  1.1389 -0.7149
10307TIP3    H252337   2.798   4.124  16.298 -1.4568  2.1073 -1.0841
10308TIP3   OH252338   4.356   2.277   4.351 -0.5694  0.0038  0.0650
10308TIP3    H152339   4.356   2.224   4.431 -1.2293  3.2382  2.2779
10308TIP3    H252340   4.449   2.286   4.328 -0.2277  0.9561  1.7788
10309TIP3   OH252341   2.973   1.908  16.379  0.0675 -0.1884 -0.4571
10309TIP3    H152342   3.007   1.968  16.445 -0.5516 -1.1924  0.8057
10309TIP3    H252343   3.028   1.830  16.387 -1.0993 -0.9724  0.0869
10310TIP3   OH252344   5.475   0.521   5.517 -0.3363 -0.1231  0.4536
10310TIP3    H152345   5.463   0.545   5.609 -0.6225 -0.4238  0.4946
10310TIP3    H252346   5.397   0.471   5.495  1.2061 -2.8241  0.9485
10311TIP3   OH252347   2.950   1.518   2.065 -0.4795 -0.5668 -0.1322
10311TIP3    H152348   2.891   1.513   2.140 -0.5433 -0.0539 -0.1502
10311TIP3    H252349   2.900   1.480   1.993 -0.1404 -1.7890  0.2469
10312TIP3   OH252350   3.505   1.691  15.001  0.2603  0.4356 -0.3903
10312TIP3    H152351   3.483   1.640  15.079  1.7256 -0.4437 -0.5167
10312TIP3    H252352   3.588   1.734  15.024  0.9982 -0.2870 -1.6417
10313TIP3   OH252353   2.504   5.319   5.349 -0.1659  0.3932  0.5328
10313TIP3    H152354   2.508   5.396   5.406 -0.3690 -0.5726  1.8527
10313TIP3    H252355   2.596   5.301   5.327 -0.0949  0.8260  0.4689
10314TIP3   OH252356   5.159   5.174  16.382 -0.0418 -0.3180 -0.2129
10314TIP3    H152357   5.114   5.247  16.340 -0.9296 -0.0790  1.1003
10314TIP3    H252358   5.222   5.143  16.317  0.1572  1.4440 -0.8751
10315TIP3   OH252359   4.542   0.366   0.089  0.1892 -0.1337 -0.1981
10315TIP3    H152360   4.609   0.428   0.116  0.1915 -0.1073 -0.2654
10315TIP3    H252361   4.542   0.370  -0.007 -0.3199  0.3009 -0.1788
10316TIP3   OH252362   5.689   2.571   5.106 -0.3425  0.1249  0.4674
10316TIP3    H152363   5.728   2.650   5.070  0.3138 -0.2993  0.2251
10316TIP3    H252364   5.595   2.587   5.105 -0.3263  0.1852 -1.2990
10317TIP3   OH252365   6.477   4.945  13.493  0.0783 -0.1419  0.1961
10317TIP3    H152366   6.521   5.014  13.444  2.6880 -1.6200  0.3654
10317TIP3    H252367   6.419   4.904  13.430 -0.1913  1.0702 -0.3584
10318TIP3   OH252368   1.583   2.073   5.299  0.1795  0.0726  0.5564
10318TIP3    H152369   1.536   2.072   5.216 -1.8135  0.0334  1.6581
10318TIP3    H252370   1.630   1.990   5.302 -0.2561 -0.1942 -0.2337
10319TIP3   OH252371   1.272   6.224  14.393 -0.3812 -1.0425 -0.2279
10319TIP3    H152372   1.299   6.158  14.456  0.1379 -0.1155  0.5313
10319TIP3    H252373   1.258   6.303  14.445 -0.2914 -0.3589 -1.2237
10320TIP3   OH252374   6.083   4.969  12.797 -0.0174 -0.1346 -0.5034
10320TIP3    H152375   6.012   4.925  12.843 -2.0357  2.0335 -1.4479
10320TIP3    H252376   6.063   4.957  12.704 -0.4075  2.3930 -0.7854
10321TIP3   OH252377   6.509   3.479  12.227 -0.6804  0.0052  0.3453
10321TIP3    H152378   6.547   3.487  12.140  0.2896  0.5202  0.8149
10321TIP3    H252379   6.431   3.534  12.223 -1.7635 -1.5443 -0.8073
10322TIP3   OH252380   6.482   6.239  14.360  0.0378 -0.4463 -0.2177
10322TIP3    H152381   6.542   6.313  14.348 -0.4213 -0.3172 -1.8031
10322TIP3    H252382   6.508   6.201  14.444  2.4866 -0.5377 -0.9794
10323TIP3   OH252383   5.749   4.859   4.383  0.1359 -0.0533  0.4233
10323TIP3    H152384   5.700   4.855   4.301 -0.3384 -0.7575  0.7358
10323TIP3    H252385   5.783   4.948   4.386 -0.5341  0.2252 -0.1379
10324TIP3   OH252386   6.544   3.709  14.307  0.0553  0.1723  0.3808
10324TIP3    H152387   6.467   3.670  14.267  0.6744 -0.5740 -0.1106
10324TIP3    H252388   6.535   3.803  14.291  0.2805 -0.1007 -1.5225
10325TIP3   OH252389   1.100   2.966  12.943 -0.4499 -0.4266 -0.2453
10325TIP3    H152390   1.160   3.036  12.917 -2.8387  1.4231 -0.9607
10325TIP3    H252391   1.130   2.889  12.895  1.7888  0.2748 -0.0019
10326TIP3   OH252392   6.647   0.963  14.914  0.3216 -0.3516 -0.3590
10326TIP3    H152393   6.590   0.900  14.870 -0.8711 -0.6487  1.5592
10326TIP3    H252394   6.595   1.043  14.918  1.1779  0.2642 -1.2317
10327TIP3   OH252395   1.497   0.061   0.549  0.0455 -0.2106 -0.1294
10327TIP3    H152396   1.428   0.106   0.598 -0.5430 -0.7313 -0.4791
10327TIP3    H252397   1.457   0.038   0.465  0.3938 -1.2146 -0.0335
10328TIP3   OH252398   0.779   2.740   1.350 -0.4137  0.3375 -0.3274
10328TIP3    H152399   0.689   2.707   1.351 -0.2279 -0.1674  0.1296
10328TIP3    H252400   0.824   2.688   1.417  0.2380  0.5271 -0.6173
10329TIP3   OH252401   1.984   5.693   0.973  0.6368 -0.4413 -0.1909
10329TIP3    H152402   2.049   5.623   0.967 -0.5621 -1.5034 -0.8953
10329TIP3    H252403   1.973   5.707   1.067  0.0175 -2.0227 -0.0124
10330TIP3   OH252404   1.681   5.900   3.509 -0.1939 -0.0237 -0.2389
10330TIP3    H152405   1.749   5.834   3.523 -0.9828 -0.6392  0.7513
10330TIP3    H252406   1.638   5.873   3.428  1.2824  0.8572 -1.3464
10331TIP3   OH252407   4.886   5.446  13.041  0.2380  0.6136  0.3933
10331TIP3    H152408   4.867   5.538  13.028  1.1141  0.7385 -0.0874
10331TIP3    H252409   4.831   5.419  13.114 -1.1392  1.1399 -0.4322
10332TIP3   OH252410   0.488   3.013   0.754  0.3141 -0.6294 -0.2476
10332TIP3    H152411   0.484   2.923   0.786  0.3504 -0.6628 -0.3389
10332TIP3    H252412   0.397   3.042   0.754  0.5073  0.1619  2.1637
10333TIP3   OH252413   4.752   3.861   0.907  0.0571  0.0318  0.3501
10333TIP3    H152414   4.807   3.910   0.969  0.2130 -0.4034  0.5573
10333TIP3    H252415   4.706   3.797   0.961 -1.1112  0.7778  0.2627
10334TIP3   OH252416   4.706   2.385   5.563 -0.2228 -0.3346  0.2640
10334TIP3    H152417   4.713   2.480   5.577 -0.6250 -0.4650  1.4591
10334TIP3    H252418   4.669   2.377   5.475 -0.3289  0.6218  0.2096
10335TIP3   OH252419   3.313   0.103  15.268 -0.2493  0.3259  0.3354
10335TIP3    H152420   3.396   0.147  15.286  0.2967 -1.1326  1.5117
10335TIP3    H252421   3.319   0.079  15.175 -0.0908  1.7081 -0.0299
10336TIP3   OH252422   1.172   6.520  12.277 -0.0750 -0.1670  0.3102
10336TIP3    H152423   1.144   6.595  12.225  0.7475  1.1063  1.6752
10336TIP3    H252424   1.228   6.557  12.345  1.5093 -2.1798  0.1523
10337TIP3   OH252425   1.119   5.031   4.580  0.2976  0.3314 -0.2454
10337TIP3    H152426   1.150   4.941   4.586  1.5004  0.7331 -0.1749
10337TIP3    H252427   1.147   5.060   4.494 -0.9657  0.3207 -0.6577
10338TIP3   OH252428   5.521   3.454  11.288 -0.3117 -0.2232 -0.0782
10338TIP3    H152429   5.439   3.463  11.337  0.1500 -0.1481  0.6723
10338TIP3    H252430   5.543   3.361  11.295  0.2497 -0.0341  0.6400
10339TIP3   OH252431   5.672   1.557   5.026  0.2860 -0.2554 -0.0030
10339TIP3    H152432   5.704   1.480   5.072  1.6420 -0.4048 -1.1907
10339TIP3    H252433   5.652   1.620   5.096 -0.1003 -1.3837  0.9177
10340TIP3   OH252434   3.409   3.157  13.523 -0.1187 -0.0151  0.1410
10340TIP3    H152435   3.361   3.099  13.464  0.7523  0.7384 -1.3472
10340TIP3    H252436   3.352   3.233  13.534 -0.0228  0.1086 -0.2156
10341TIP3   OH252437   0.659   6.164   1.000 -0.6182 -0.0527 -0.2509
10341TIP3    H152438   0.659   6.254   0.967 -1.8571  0.1951  0.3904
10341TIP3    H252439   0.613   6.113   0.934  1.2414 -0.4764 -1.2502
10342TIP3   OH252440   2.850   0.520  13.131  0.0616  0.4577 -0.4772
10342TIP3    H152441   2.808   0.437  13.110 -0.2754  0.4682  0.1275
10342TIP3    H252442   2.909   0.499  13.203 -1.0395  0.9985  0.6118
10343TIP3   OH252443   2.833   3.497   4.105  0.5923 -0.0126  0.3058
10343TIP3    H152444   2.801   3.548   4.180 -0.0178 -2.2703  1.6321
10343TIP3    H252445   2.875   3.421   4.145 -0.9274 -1.9361 -1.6903
10344TIP3   OH252446   4.683   2.448   0.165  0.0863  0.3359  0.3059
10344TIP3    H152447   4.626   2.512   0.123 -0.3166  0.4661  1.0510
10344TIP3    H252448   4.630   2.368   0.169  0.3425  0.1491  0.0173
10345TIP3   OH252449   4.109   1.392  11.671  0.5041 -0.2598  0.0623
10345TIP3    H152450   4.095   1.384  11.765 -0.7269 -1.1265 -0.1861
10345TIP3    H252451   4.041   1.337  11.632 -0.1728  1.5699 -1.3835
10346TIP3   OH252452   6.145   3.904   5.551  0.3114 -0.1931  0.3804
10346TIP3    H152453   6.135   3.846   5.627 -0.9930  1.6918  1.6923
10346TIP3    H252454   6.201   3.975   5.582 -1.1831  1.1933 -0.0629
10347TIP3   OH252455   6.373   1.775   4.031  0.1762 -0.4730  0.6991
10347TIP3    H152456   6.382   1.848   3.969 -1.0721 -0.0180  1.0516
10347TIP3    H252457   6.280   1.770   4.049  0.4168 -1.2746  1.7567
10348TIP3   OH252458   4.048   6.547  12.527  0.1150  0.0452 -0.2567
10348TIP3    H152459   4.139   6.539  12.501 -0.0837  1.7493 -1.5675
10348TIP3    H252460   3.999   6.498  12.460 -0.0495  0.4742 -0.4515
10349TIP3   OH252461   3.063   6.281  13.752 -0.6555  0.0390  0.2159
10349TIP3    H152462   3.111   6.213  13.801  1.1246  0.8173 -0.4022
10349TIP3    H252463   3.074   6.256  13.661  1.7532  2.2144 -0.1519
10350TIP3   OH252464   5.265   1.041  16.772  0.2717 -0.1692  0.0942
10350TIP3    H152465   5.284   1.035  16.865  0.0697 -0.4638  0.1177
10350TIP3    H252466   5.345   1.011  16.729  0.3860  0.0261  0.1725
10351TIP3   OH252467   2.291   2.618   6.263 -0.0284 -0.4243  0.2564
10351TIP3    H152468   2.213   2.578   6.225  0.0357  0.4303 -0.7843
10351TIP3    H252469   2.324   2.553   6.325 -0.3711 -1.6411 -0.8348
10352TIP3   OH252470   3.906   2.744   1.301  0.0069  0.0110  0.4542
10352TIP3    H152471   3.876   2.653   1.312  0.9987 -0.4352 -0.4197
10352TIP3    H252472   3.825   2.795   1.302 -0.8704 -1.2194 -2.1616
10353TIP3   OH252473   2.531   3.159   3.790  0.5948 -0.0314 -0.2873
10353TIP3    H152474   2.450   3.209   3.804  0.1627 -0.4740 -1.1605
10353TIP3    H252475   2.584   3.215   3.733  1.4900  0.8601  1.3829
10354TIP3   OH252476   5.552   4.630   5.328  0.6761 -0.2825  0.3895
10354TIP3    H152477   5.639   4.597   5.351  0.2682 -2.0122 -0.5045
10354TIP3    H252478   5.493   4.555   5.341 -0.6092  0.7123  0.4557
10355TIP3   OH252479   4.504   2.534   5.802  0.2109  0.2886  0.3355
10355TIP3    H152480   4.484   2.442   5.818  1.7735  0.3767  3.3542
10355TIP3    H252481   4.449   2.582   5.864  0.1829  1.3139 -0.4655
10356TIP3   OH252482   0.762   5.860   4.584 -0.3689  0.0707 -0.0593
10356TIP3    H152483   0.801   5.885   4.668 -0.9359  0.7987 -0.0053
10356TIP3    H252484   0.671   5.839   4.605 -0.6093  0.6163 -0.5542
10357TIP3   OH252485   3.021   4.983   5.253 -1.0482  0.3935  0.3365
10357TIP3    H152486   3.066   4.901   5.276 -0.1228  0.8910  0.3110
10357TIP3    H252487   2.934   4.955   5.224 -0.6343 -0.6070  0.0398
10358TIP3   OH252488   1.557   0.440  13.193  0.0107  0.3455 -0.1128
10358TIP3    H152489   1.498   0.497  13.242 -1.0283  0.1268 -1.0990
10358TIP3    H252490   1.529   0.352  13.215 -0.8079  0.2447 -1.4953
10359TIP3   OH252491   3.622   2.357   5.979 -0.0261  0.4543  0.8334
10359TIP3    H152492   3.694   2.374   6.040 -0.9153 -0.8278  2.2630
10359TIP3    H252493   3.603   2.264   5.989 -0.8095  0.4207 -0.7467
10360TIP3   OH252494   4.391   3.716   0.048  0.0534 -0.2597  0.1762
10360TIP3    H152495   4.389   3.723   0.144 -0.5427  0.3376  0.1221
10360TIP3    H252496   4.481   3.738   0.024  0.4269 -1.2490  0.6645
10361TIP3   OH252497   3.438   6.636  16.039  0.4236  0.4312 -0.3327
10361TIP3    H152498   3.458   6.726  16.014  1.2245  0.0256 -1.1340
10361TIP3    H252499   3.471   6.628  16.128  0.2546  0.9561 -0.2177
10362TIP3   OH252500   6.179   2.595   1.397 -0.8511 -0.1172 -0.4140
10362TIP3    H152501   6.189   2.617   1.489  2.0753  1.9740 -1.1514
10362TIP3    H252502   6.085   2.586   1.384 -1.2841 -0.8584  2.8384
10363TIP3   OH252503   3.929   2.768   4.399 -0.3800 -0.1277  0.0404
10363TIP3    H152504   3.896   2.694   4.450  1.4266 -0.9800  0.0087
10363TIP3    H252505   4.021   2.747   4.382  0.0486  1.9129 -0.3546
10364TIP3   OH252506   4.933   0.555  13.958  0.7403  0.0111 -0.0771
10364TIP3    H152507   4.965   0.568  13.869 -0.3811 -0.0089 -0.4891
10364TIP3    H252508   4.851   0.506  13.948 -0.2675  1.4712  0.8483
10365TIP3   OH252509   5.613   0.357  17.207  0.1692  0.0888 -0.3480
10365TIP3    H152510   5.640   0.449  17.209  0.7240 -0.0923  0.6258
10365TIP3    H252511   5.683   0.310  17.252 -0.0947 -0.8241 -0.8705
10366TIP3   OH252512   3.021   1.438   0.006  0.3358 -0.2174 -0.1667
10366TIP3    H152513   3.108   1.432  -0.034  1.3812  0.6912  1.8733
10366TIP3    H252514   2.977   1.507  -0.043  0.8042 -0.5651 -1.1056
10367TIP3   OH252515   3.201   6.150  14.412  0.1047  0.5039 -0.1494
10367TIP3    H152516   3.267   6.159  14.480  0.0323  2.2711 -0.2976
10367TIP3    H252517   3.133   6.213  14.435  0.4790  1.7459 -2.3041
10368TIP3   OH252518   3.848   0.200   0.966  0.1843 -0.6946 -0.2436
10368TIP3    H152519   3.902   0.131   0.928  0.4291 -0.9207  0.5190
10368TIP3    H252520   3.821   0.253   0.891  0.5842 -1.2010 -0.7457
10369TIP3   OH252521   1.756   6.118   1.193  0.2848 -0.0496  0.2546
10369TIP3    H152522   1.777   6.129   1.100 -0.4220 -1.4878 -0.0744
10369TIP3    H252523   1.827   6.065   1.228 -0.0537 -0.4852  0.2836
10370TIP3   OH252524   3.112   0.962   4.389 -0.0131 -0.1797 -0.1306
10370TIP3    H152525   3.149   1.051   4.393 -0.1480 -0.1433  0.3675
10370TIP3    H252526   3.059   0.955   4.469 -0.8496 -0.3366 -0.7000
10371TIP3   OH252527   2.086   2.028  13.622 -0.0477 -0.2506 -0.3974
10371TIP3    H152528   2.175   2.013  13.654  0.3344  2.3761 -0.1151
10371TIP3    H252529   2.030   2.001  13.695  0.6833  1.7843  0.9691
10372TIP3   OH252530   6.087   5.402  10.631  0.5433 -0.9684 -0.1743
10372TIP3    H152531   6.026   5.355  10.574  0.7808 -0.2813 -1.0086
10372TIP3    H252532   6.166   5.348  10.630  1.2142 -0.0161 -2.0453
10373TIP3   OH252533   1.913   2.660   6.193 -0.0783  0.1765  0.1316
10373TIP3    H152534   1.969   2.586   6.171 -0.3414  0.2152 -0.6901
10373TIP3    H252535   1.904   2.656   6.288  0.0711 -0.7287  0.1102
10374TIP3   OH252536   2.441   2.881   1.700 -0.0278  0.6212 -0.0471
10374TIP3    H152537   2.361   2.918   1.663  0.0243  0.6231 -0.1587
10374TIP3    H252538   2.461   2.936   1.775  0.0567  0.8230 -0.2195
10375TIP3   OH252539   2.693   5.145  14.988 -0.5188  0.5740 -0.1219
10375TIP3    H152540   2.684   5.169  14.895 -2.1893  0.7258  0.0642
10375TIP3    H252541   2.786   5.128  14.999 -0.6934 -2.3790 -2.5823
10376TIP3   OH252542   5.426   1.946  17.189 -0.7538  0.3263  0.0432
10376TIP3    H152543   5.409   1.958  17.095 -3.1910  1.8191  0.6325
10376TIP3    H252544   5.495   2.010  17.208  1.3355 -1.5106 -1.1371
10377TIP3   OH252545   2.615   6.169  12.767  0.9474  0.3816  0.5636
10377TIP3    H152546   2.588   6.243  12.712  3.1443  1.1283  0.4255
10377TIP3    H252547   2.574   6.092  12.726  2.5509  0.9116 -2.1516
10378TIP3   OH252548   1.465   6.017  13.018  0.3245  0.1431 -0.2688
10378TIP3    H152549   1.378   5.993  13.050  0.4532 -0.1995 -0.1676
10378TIP3    H252550   1.468   5.983  12.928 -0.8600  3.0844 -1.4623
10379TIP3   OH252551   4.681   5.415  10.995 -0.4379 -0.2783 -0.2852
10379TIP3    H152552   4.653   5.339  11.045 -0.4728 -0.5534 -0.7150
10379TIP3    H252553   4.692   5.382  10.906  1.3005 -0.2020 -0.1262
10380TIP3   OH252554   0.785   2.499  10.915 -0.1025 -0.6402 -0.4709
10380TIP3    H152555   0.770   2.579  10.865 -3.0043 -0.4805  0.5659
10380TIP3    H252556   0.748   2.429  10.861  1.8218 -1.2219 -1.0724
10381TIP3   OH252557   4.729   6.307  14.436 -0.8392 -0.3573  0.1446
10381TIP3    H152558   4.754   6.386  14.388 -0.5254  0.4595  1.6202
10381TIP3    H252559   4.638   6.291  14.411 -0.0712 -1.0877 -2.2406
10382TIP3   OH252560   4.267   4.159   6.704  0.3856 -0.0156  0.6760
10382TIP3    H152561   4.225   4.110   6.775 -1.3005 -0.5474 -0.6519
10382TIP3    H252562   4.201   4.162   6.635  1.5906  1.4903 -0.4413
10383TIP3   OH252563   0.694   1.580   1.736  0.4460  0.2436 -0.1447
10383TIP3    H152564   0.751   1.505   1.718 -0.4639 -0.1350 -1.4838
10383TIP3    H252565   0.729   1.618   1.817  0.9444 -1.6060  0.5344
10384TIP3   OH252566   4.893   1.149  11.843 -0.0407  0.3637  0.3843
10384TIP3    H152567   4.874   1.058  11.865 -0.7753  0.3499 -0.2643
10384TIP3    H252568   4.937   1.184  11.920  1.3157 -0.8607  0.1939
10385TIP3   OH252569   3.769   2.035  15.616 -0.0052 -0.3505  0.1230
10385TIP3    H152570   3.699   2.038  15.681  0.8754 -0.9950  1.1403
10385TIP3    H252571   3.725   2.039  15.532 -1.2803 -0.9638  0.7459
10386TIP3   OH252572   1.622   4.478  16.906  0.4465 -0.3328  0.2888
10386TIP3    H152573   1.618   4.521  16.991 -0.2718 -0.4304  0.3057
10386TIP3    H252574   1.714   4.485  16.880  0.1173  2.3487 -0.3019
10387TIP3   OH252575   4.261   2.531   5.464  0.2322  0.5941  0.0319
10387TIP3    H152576   4.186   2.560   5.412  0.0992  1.0466  0.4676
10387TIP3    H252577   4.300   2.613   5.497  0.9284  0.3617 -0.2131
10388TIP3   OH252578   4.585   1.665  15.990  0.1530 -0.4119  0.5879
10388TIP3    H152579   4.551   1.579  15.967 -1.4198  0.0265  1.1673
10388TIP3    H252580   4.590   1.712  15.907 -1.0516 -0.3619  0.5330
10389TIP3   OH252581   1.609   1.755   6.797  0.5188 -0.5947 -0.6401
10389TIP3    H152582   1.612   1.810   6.719 -0.6384  1.4602  0.7101
10389TIP3    H252583   1.699   1.752   6.828  0.8618 -0.8139 -1.6578
10390TIP3   OH252584   1.648   5.667  11.647 -0.2488 -0.3670  0.1402
10390TIP3    H152585   1.623   5.586  11.603  0.9294 -0.9926  0.5946
10390TIP3    H252586   1.615   5.736  11.589 -0.4255 -1.1679 -0.7389
10391TIP3   OH252587   4.995   4.401   5.013 -0.2000  0.2062  0.2793
10391TIP3    H152588   4.981   4.363   4.926 -2.2181  0.8044  0.3189
10391TIP3    H252589   4.926   4.364   5.067 -0.5562  1.8420  0.9730
10392TIP3   OH252590   4.204   6.653   2.383 -0.1708 -0.0229  0.3561
10392TIP3    H152591   4.192   6.559   2.395 -0.7982  0.1368  1.0285
10392TIP3    H252592   4.140   6.678   2.317 -1.3374  0.2504  1.5551
10393TIP3   OH252593   5.254   0.694   2.887  0.3115  0.1960  0.4482
10393TIP3    H152594   5.286   0.710   2.976  0.7895  3.4770 -0.2397
10393TIP3    H252595   5.164   0.726   2.887 -0.2490 -1.3183  0.1510
10394TIP3   OH252596   6.501   3.117   3.752 -0.2820  0.0319 -0.8667
10394TIP3    H152597   6.571   3.052   3.750 -0.0537  0.2609 -0.4996
10394TIP3    H252598   6.544   3.198   3.723 -0.0177  0.5179  0.8544
10395TIP3   OH252599   5.121   0.892  12.865 -0.4137 -0.1047  0.4081
10395TIP3    H152600   5.025   0.896  12.863 -0.4152 -0.4280 -0.1201
10395TIP3    H252601   5.140   0.799  12.879 -0.1440 -0.3669 -1.6010
10396TIP3   OH252602   6.005   5.862   2.573 -0.3668 -0.0696  0.1918
10396TIP3    H152603   6.084   5.839   2.622  0.3930  0.5505 -0.6970
10396TIP3    H252604   6.036   5.926   2.507 -1.8418  1.1666  0.6628
10397TIP3   OH252605   3.309   2.580  10.995  0.3325  0.3969 -0.3442
10397TIP3    H152606   3.392   2.537  10.975  1.4920  1.6381  1.6189
10397TIP3    H252607   3.335   2.666  11.030 -1.8364  1.7830 -2.0137
10398TIP3   OH252608   5.210   6.134  13.928 -0.5436 -0.4380 -0.3856
10398TIP3    H152609   5.123   6.117  13.966 -0.5247  0.7402  0.1979
10398TIP3    H252610   5.248   6.047  13.916 -0.9594 -0.8763  1.3687
10399TIP3   OH252611   3.831   1.630   2.838 -0.7017  0.4706 -0.1165
10399TIP3    H152612   3.853   1.703   2.780  1.7879 -1.1622 -1.3207
10399TIP3    H252613   3.766   1.579   2.790 -0.6722  0.6066 -0.3002
10400TIP3   OH252614   5.076   4.628  11.966 -0.0716  0.5180 -0.9273
10400TIP3    H152615   5.017   4.702  11.956 -0.0473  1.0150  2.0865
10400TIP3    H252616   5.061   4.598  12.056  1.0293 -2.1578 -1.5970
10401TIP3   OH252617   5.983   0.276   2.338 -0.0777 -0.2938 -0.9156
10401TIP3    H152618   6.056   0.261   2.278  0.3136  0.3676 -0.6116
10401TIP3    H252619   5.918   0.210   2.314  0.7247 -1.0550 -1.0231
10402TIP3   OH252620   5.601   5.866  13.486 -0.4242  0.3829 -0.1322
10402TIP3    H152621   5.539   5.795  13.502 -0.5796  0.4344 -0.5100
10402TIP3    H252622   5.682   5.822  13.460 -0.2154  0.3034  0.6412
10403TIP3   OH252623   1.847   0.960  11.461  0.8528  0.2123 -0.0002
10403TIP3    H152624   1.816   0.878  11.501  0.4006 -0.1640 -1.1071
10403TIP3    H252625   1.854   0.940  11.368  1.5696  1.1876 -0.1577
10404TIP3   OH252626   2.954   6.082   5.863  0.3543  0.1878  0.3376
10404TIP3    H152627   2.873   6.081   5.914 -0.0778  1.0176 -0.3385
10404TIP3    H252628   2.963   5.992   5.830  0.9515 -0.5253  2.3592
10405TIP3   OH252629   0.896   0.951  13.081  0.6009 -0.0892 -0.2128
10405TIP3    H152630   0.858   0.982  13.000  2.3443 -1.0585 -1.4419
10405TIP3    H252631   0.898   1.028  13.138 -1.1725  0.4561 -0.8571
10406TIP3   OH252632   2.990   1.576   1.637  0.2312  0.0072  0.6298
10406TIP3    H152633   2.988   1.610   1.548 -0.9205 -2.3080 -0.2548
10406TIP3    H252634   3.084   1.574   1.659  0.7066 -1.5293 -1.3804
10407TIP3   OH252635   3.597   5.885  16.325  0.1660  0.2262  0.2255
10407TIP3    H152636   3.604   5.835  16.406 -0.5571  0.1167  0.2249
10407TIP3    H252637   3.566   5.971  16.351  1.6792  0.7703  0.2550
10408TIP3   OH252638   4.410   4.483   5.290  0.0113  0.2298  0.2071
10408TIP3    H152639   4.382   4.396   5.260 -3.3767  1.2019  0.4239
10408TIP3    H252640   4.408   4.477   5.385  0.2542  0.4060  0.2224
10409TIP3   OH252641   2.268   2.449   2.113  0.0922 -0.0183  0.2169
10409TIP3    H152642   2.275   2.445   2.208  2.6666 -0.3031  0.0477
10409TIP3    H252643   2.302   2.364   2.083  2.8711  1.4781 -1.0660
10410TIP3   OH252644   6.723   0.365  11.146  0.6275  0.7851  0.1232
10410TIP3    H152645   6.628   0.375  11.142  0.6097  0.5142 -0.1556
10410TIP3    H252646   6.748   0.346  11.055  1.0065  1.4010  0.0967
10411TIP3   OH252647   3.894   5.751  16.876  0.6014  0.2818 -0.2497
10411TIP3    H152648   3.903   5.660  16.849 -1.1105 -0.1121  0.4352
10411TIP3    H252649   3.840   5.747  16.954 -1.5000  2.0830 -1.5678
10412TIP3   OH252650   6.340   5.497  14.156 -0.5385 -0.3639  0.3682
10412TIP3    H152651   6.400   5.497  14.082 -0.5819  2.4054  0.2630
10412TIP3    H252652   6.288   5.577  14.145 -1.4701 -0.6007  2.6394
10413TIP3   OH252653   5.581   5.353  16.691 -0.5040 -0.5011 -0.3974
10413TIP3    H152654   5.581   5.449  16.690  0.9463 -0.4602  1.1473
10413TIP3    H252655   5.600   5.328  16.600 -3.0406  0.6090 -1.2771
10414TIP3   OH252656   2.074   6.341  12.673 -0.3294 -0.0621 -0.0663
10414TIP3    H152657   2.049   6.304  12.757  0.3903 -0.8315 -0.1861
10414TIP3    H252658   2.169   6.341  12.673 -0.3009  2.1388  0.0680
10415TIP3   OH252659   0.102   5.638   1.057  0.1174 -0.6582  0.1230
10415TIP3    H152660   0.167   5.620   0.989  0.4151 -0.0218  0.2278
10415TIP3    H252661   0.075   5.728   1.040 -1.3178 -1.1774 -0.3905
10416TIP3   OH252662   1.485   5.833   1.588 -0.0629  0.5783 -0.2800
10416TIP3    H152663   1.510   5.850   1.679  1.2494  1.4512 -0.7878
10416TIP3    H252664   1.407   5.888   1.574 -1.9547 -1.6396  1.1037
10417TIP3   OH252665   0.146   4.361  12.366  0.0918  0.2228 -0.0760
10417TIP3    H152666   0.121   4.451  12.347 -1.2143 -0.3499 -1.0903
10417TIP3    H252667   0.102   4.341  12.449 -1.3050 -0.1543 -0.8945
10418TIP3   OH252668   1.446   5.506  10.857  0.3669  0.3604 -0.1775
10418TIP3    H152669   1.524   5.553  10.827  1.0067  0.1922  1.1906
10418TIP3    H252670   1.479   5.421  10.888 -0.4485  0.0057 -0.2621
10419TIP3   OH252671   3.980   0.862  16.370  0.1702  0.3203 -0.5980
10419TIP3    H152672   4.044   0.904  16.427  1.2447 -1.3028 -0.5754
10419TIP3    H252673   4.018   0.869  16.282 -0.0340  0.1018 -0.7036
10420TIP3   OH252674   2.970   3.217   6.353  0.4478 -0.0753 -0.6236
10420TIP3    H152675   2.876   3.202   6.366  0.4098  0.6387 -0.0746
10420TIP3    H252676   2.998   3.263   6.432  1.0228  0.7862 -1.3314
10421TIP3   OH252677   5.974   0.493  16.189  0.2638 -0.4201 -0.1545
10421TIP3    H152678   5.933   0.450  16.114  1.2317 -0.5705 -0.6121
10421TIP3    H252679   6.051   0.536  16.152 -0.6492  1.6921  0.2941
10422TIP3   OH252680   6.210   4.105  13.020 -0.0880 -0.6049  0.2444
10422TIP3    H152681   6.267   4.176  13.049  0.2488 -1.0054  0.5692
10422TIP3    H252682   6.132   4.149  12.985  0.6191 -0.0349 -0.6532
10423TIP3   OH252683   2.259   6.039   1.947 -0.1478 -0.0651  0.1761
10423TIP3    H152684   2.205   5.984   1.891 -1.0028  1.7673 -0.8355
10423TIP3    H252685   2.209   6.119   1.958  1.1651  0.6056  1.4513
10424TIP3   OH252686   0.241   3.385   4.293 -0.3234  0.2162 -0.5580
10424TIP3    H152687   0.154   3.416   4.318  0.0147  0.0839  0.8482
10424TIP3    H252688   0.226   3.298   4.257 -0.7408  0.0142  0.0863
10425TIP3   OH252689   0.034   5.777   2.287  0.1468  0.3868 -1.0415
10425TIP3    H152690  -0.031   5.708   2.294 -1.1449  1.5572 -1.2144
10425TIP3    H252691   0.012   5.838   2.357  2.9227 -0.6966  0.8630
10426TIP3   OH252692   2.451   2.059   6.089  0.9951 -0.2510 -0.5101
10426TIP3    H152693   2.450   2.069   5.994 -1.9886 -0.5817 -0.5656
10426TIP3    H252694   2.392   1.985   6.106  3.9215 -2.2477  1.4093
10427TIP3   OH252695   3.551   2.151  13.460 -0.3787 -0.1133 -0.4245
10427TIP3    H152696   3.498   2.143  13.539  2.1832 -1.3788  1.2545
10427TIP3    H252697   3.555   2.062  13.425  0.0185  0.0952 -0.9230
10428TIP3   OH252698   1.094   3.873   5.154 -0.4742  0.0513 -0.1290
10428TIP3    H152699   1.036   3.802   5.125  0.0550  0.4207 -2.2001
10428TIP3    H252700   1.141   3.837   5.229 -3.0319 -0.4220  1.3286
10429TIP3   OH252701   3.285   3.387   4.958  0.2492  0.5865  0.0584
10429TIP3    H152702   3.268   3.317   5.021 -0.4435  0.6836 -0.0234
10429TIP3    H252703   3.378   3.379   4.938  0.5678  0.8176  1.4142
10430TIP3   OH252704   0.270   4.666   2.349 -0.3041  0.7404 -0.3949
10430TIP3    H152705   0.283   4.585   2.398  0.3572  1.0087 -0.1249
10430TIP3    H252706   0.177   4.666   2.327 -1.1067  1.7394  2.8326
10431TIP3   OH252707   6.358   0.748  14.540 -0.5541  0.5664  0.0504
10431TIP3    H152708   6.330   0.683  14.605  0.7454 -0.9753 -0.9017
10431TIP3    H252709   6.360   0.831  14.588  0.7573 -0.6081  2.0949
10432TIP3   OH252710   6.130   2.398  12.583  0.2148 -0.0603 -0.8304
10432TIP3    H152711   6.148   2.349  12.663  0.8722  1.5841  0.0516
10432TIP3    H252712   6.215   2.430  12.554 -0.1495  0.2276 -1.6103
10433TIP3   OH252713   6.083   4.037   6.192 -0.3712  0.4681 -0.0901
10433TIP3    H152714   6.119   4.094   6.124  0.6845  0.7796  0.7049
10433TIP3    H252715   6.160   3.997   6.233 -0.9434  0.8837  1.4223
10434TIP3   OH252716   2.426   5.091  16.083 -0.2630  0.1945 -0.0058
10434TIP3    H152717   2.460   5.003  16.069 -0.3537  0.2954 -0.9478
10434TIP3    H252718   2.331   5.081  16.083 -0.2715  0.2692  0.0246
10435TIP3   OH252719   4.998   5.744   2.205  0.4379  0.6824  0.1813
10435TIP3    H152720   4.937   5.719   2.136  0.6604  2.1731 -0.5829
10435TIP3    H252721   5.014   5.838   2.190  1.8858  0.6073  1.1657
10436TIP3   OH252722   6.212   5.810   4.767 -0.0002  0.0306 -0.8170
10436TIP3    H152723   6.300   5.820   4.731  0.1314  0.9781 -0.2679
10436TIP3    H252724   6.155   5.851   4.702  0.3005  2.3340  0.2924
10437TIP3   OH252725   6.518   1.344   0.759  0.5005  0.0203  0.0351
10437TIP3    H152726   6.583   1.357   0.689  0.2685  1.0823  0.0037
10437TIP3    H252727   6.472   1.428   0.765 -0.4639 -0.5327  0.4751
10438TIP3   OH252728   4.498   6.205   2.842  0.3143  0.0905  0.0105
10438TIP3    H152729   4.544   6.282   2.877 -1.7641  0.9387  0.9943
10438TIP3    H252730   4.502   6.141   2.913  1.4541 -0.4932 -0.5587
10439TIP3   OH252731   6.095   2.676   1.040  0.2863 -0.1524 -0.2661
10439TIP3    H152732   6.188   2.669   1.065  0.7829  1.6499 -1.5212
10439TIP3    H252733   6.081   2.604   0.979  1.0333 -0.0764 -0.5339
10440TIP3   OH252734   4.801   1.658  15.461 -0.7973 -0.3713  0.1390
10440TIP3    H152735   4.837   1.594  15.399  0.3764  2.1969 -1.9390
10440TIP3    H252736   4.842   1.638  15.544  2.6382  0.0930 -1.3472
10441TIP3   OH252737   6.312   5.128  11.965  0.0954 -0.0643 -0.4169
10441TIP3    H152738   6.280   5.212  11.997 -0.4673 -0.6233  0.4935
10441TIP3    H252739   6.356   5.089  12.040 -0.1402 -0.8311 -0.6741
10442TIP3   OH252740   2.861   4.630   0.593 -0.4453  0.1340 -0.0767
10442TIP3    H152741   2.861   4.611   0.687  0.3451 -1.6225 -0.4226
10442TIP3    H252742   2.839   4.723   0.588 -2.6625 -0.2628  1.7381
10443TIP3   OH252743   4.331   6.449   4.371 -0.3320  0.1397 -0.4490
10443TIP3    H152744   4.412   6.400   4.384 -0.3746 -0.1975 -1.4191
10443TIP3    H252745   4.317   6.496   4.453 -0.6350 -1.9721  0.7290
10444TIP3   OH252746   2.572   1.906   4.927 -0.7016  0.1286  0.1495
10444TIP3    H152747   2.588   1.833   4.987  2.7662  2.5438  2.3085
10444TIP3    H252748   2.487   1.941   4.956 -0.7334 -0.9057  1.3784
10445TIP3   OH252749   0.858   6.536  17.159 -0.1162  0.2720  0.0588
10445TIP3    H152750   0.905   6.600  17.106 -3.4422  2.3194 -0.5512
10445TIP3    H252751   0.766   6.557  17.146 -1.1782 -2.4650  2.6067
10446TIP3   OH252752   1.346   0.697   2.287 -0.4840 -0.3245  0.0621
10446TIP3    H152753   1.308   0.781   2.262  0.5838  0.0268 -0.3850
10446TIP3    H252754   1.441   0.711   2.285 -0.3020 -1.4577  0.2648
10447TIP3   OH252755   1.813   5.695   2.960  0.0733  0.3597 -0.1025
10447TIP3    H152756   1.823   5.743   3.043  2.2054 -0.9756  0.4586
10447TIP3    H252757   1.870   5.742   2.899  1.2980 -0.7714  0.1547
10448TIP3   OH252758   3.449   2.354  13.073 -0.3700 -0.0629  0.4008
10448TIP3    H152759   3.452   2.330  13.166  0.6260  1.2727  0.7252
10448TIP3    H252760   3.389   2.429  13.070 -0.2838 -0.0110 -0.0215
10449TIP3   OH252761   5.066   4.501  12.452  0.4744 -0.4820 -0.1974
10449TIP3    H152762   5.158   4.492  12.474  0.2313 -3.2926 -0.1948
10449TIP3    H252763   5.060   4.472  12.361 -0.1249  1.5886 -0.8584
10450TIP3   OH252764   2.523   3.625  12.848 -0.8760 -0.1000 -0.7086
10450TIP3    H152765   2.484   3.629  12.935  0.3609 -0.2258 -0.1393
10450TIP3    H252766   2.567   3.540  12.845  0.5294  0.6136 -0.8184
10451TIP3   OH252767   5.632   0.672  14.999 -0.2463  0.5771  0.4545
10451TIP3    H152768   5.691   0.609  15.040  1.4984  1.2831 -0.9226
10451TIP3    H252769   5.661   0.757  15.031 -0.5557  0.9226 -0.1875
10452TIP3   OH252770   1.725   1.539  15.749  0.1687 -0.5901 -0.0279
10452TIP3    H152771   1.754   1.475  15.814 -1.2743 -2.1672 -0.8860
10452TIP3    H252772   1.661   1.593  15.795  1.3153  0.1956  0.6707
10453TIP3   OH252773   0.141   1.794   1.993  0.0602  0.5690  0.0307
10453TIP3    H152774   0.207   1.788   1.924  0.2652  0.6468  0.2200
10453TIP3    H252775   0.058   1.786   1.947  0.2535 -2.0322  0.0491
10454TIP3   OH252776   2.998   1.205   2.450 -0.4776  0.4533 -0.2683
10454TIP3    H152777   3.045   1.124   2.472 -0.1353  0.9771  1.0086
10454TIP3    H252778   3.045   1.273   2.498 -1.4798  1.2412 -0.3884
10455TIP3   OH252779   3.935   2.149  12.669  0.4251 -0.2454  0.1259
10455TIP3    H152780   3.893   2.083  12.724 -0.2627  1.5857  1.8894
10455TIP3    H252781   3.946   2.107  12.584  0.8266 -2.8999  1.4526
10456TIP3   OH252782   6.655   3.104   2.892 -0.0226 -0.1832 -0.2203
10456TIP3    H152783   6.625   3.016   2.917 -0.9752  0.2030  0.0102
10456TIP3    H252784   6.670   3.097   2.798 -0.2572 -0.5554 -0.2340
10457TIP3   OH252785   4.252   5.109   3.339  0.2421  0.3424  0.3389
10457TIP3    H152786   4.316   5.086   3.272  0.3018  3.0950 -0.6235
10457TIP3    H252787   4.194   5.172   3.296 -0.8726  0.7027  2.3102
10458TIP3   OH252788   4.971   0.963  15.974 -0.3060  0.4794 -0.7104
10458TIP3    H152789   4.903   0.930  15.916 -0.8271 -0.9971  0.7284
10458TIP3    H252790   4.928   1.030  16.027 -0.5056 -0.1050 -0.1385
10459TIP3   OH252791   5.049   5.273   5.746  0.8327  1.0018 -0.0607
10459TIP3    H152792   5.003   5.348   5.708  0.8301  1.3153  0.5458
10459TIP3    H252793   5.084   5.306   5.829 -0.3452 -0.0518  0.8698
10460TIP3   OH252794   4.228   2.201  14.404 -0.5718  0.0677  0.9329
10460TIP3    H152795   4.150   2.226  14.453 -0.0797  0.0629  1.7252
10460TIP3    H252796   4.289   2.169  14.470  0.9494  2.1650  0.6188
10461TIP3   OH252797   6.082   2.082  12.626 -1.1067  0.1932  0.0600
10461TIP3    H152798   6.160   2.120  12.585 -0.8544 -0.3509  0.0284
10461TIP3    H252799   6.013   2.092  12.561 -0.8066 -0.2891 -0.3292
10462TIP3   OH252800   5.056   4.536   1.427 -0.0551 -0.0842  0.6694
10462TIP3    H152801   4.983   4.488   1.465  0.0584 -1.2719 -0.5835
10462TIP3    H252802   5.129   4.474   1.430  0.4718  0.5178  0.3678
10463TIP3   OH252803   3.326   2.298  14.968 -0.0068 -0.2723 -0.2835
10463TIP3    H152804   3.280   2.217  14.946  0.1712 -0.1934 -0.9609
10463TIP3    H252805   3.260   2.351  15.014 -0.3259 -0.5294 -0.4409
10464TIP3   OH252806   5.065   5.162   1.560 -0.2762 -0.1361 -0.1533
10464TIP3    H152807   5.020   5.106   1.623 -0.7296  0.4588  0.0573
10464TIP3    H252808   4.997   5.222   1.529  0.2821  0.5122 -0.1271
10465TIP3   OH252809   2.826   6.237   1.132  0.0573  0.1722 -0.0885
10465TIP3    H152810   2.802   6.255   1.223 -0.4294  2.9400 -0.7041
10465TIP3    H252811   2.901   6.294   1.116  0.7523 -1.0229 -1.1454
10466TIP3   OH252812   0.840   0.580   2.418  0.0401 -0.1273 -0.6498
10466TIP3    H152813   0.781   0.528   2.364  1.3687 -1.4121 -0.8984
10466TIP3    H252814   0.926   0.571   2.377  0.2224  2.7553 -1.0357
10467TIP3   OH252815   3.215   5.939   5.897 -0.1747 -0.1357 -0.0505
10467TIP3    H152816   3.270   5.946   5.975 -0.9735  0.6088  0.4584
10467TIP3    H252817   3.248   5.862   5.851  2.4411  1.3106 -0.6757
10468TIP3   OH252818   4.317   3.157  17.081 -0.2773 -0.8841  0.1055
10468TIP3    H152819   4.248   3.141  17.146  0.5362 -1.7975  0.7626
10468TIP3    H252820   4.387   3.200  17.131  0.1810 -1.2117 -0.2526
10469TIP3   OH252821   4.183   4.495   0.972 -1.0571 -0.3448 -0.3384
10469TIP3    H152822   4.097   4.537   0.972 -1.8853 -1.9931 -0.1887
10469TIP3    H252823   4.210   4.493   0.880 -0.5003  1.5122 -0.2223
10470TIP3   OH252824   6.763   3.690  12.458  0.5448 -0.1378  0.1531
10470TIP3    H152825   6.771   3.708  12.551 -0.6891 -0.7751  0.3918
10470TIP3    H252826   6.738   3.598  12.453 -2.0004  0.5475 -0.6658
10471TIP3   OH252827   3.116   1.521  16.926 -0.0891  0.1188 -0.1556
10471TIP3    H152828   3.204   1.487  16.911 -0.9641 -2.0695 -0.5896
10471TIP3    H252829   3.126   1.616  16.925  2.0296 -0.0874 -1.6201
10472TIP3   OH252830   6.033   4.130   2.403  0.6511  0.1030 -0.2272
10472TIP3    H152831   5.952   4.083   2.384 -0.5726  0.5077  3.5878
10472TIP3    H252832   6.005   4.220   2.420  1.9020  0.2392  1.1480
10473TIP3   OH252833   4.817   0.064   4.424  0.6232  0.0070  0.3860
10473TIP3    H152834   4.833  -0.002   4.492 -1.3067  0.3098  1.1504
10473TIP3    H252835   4.753   0.123   4.462 -1.1583 -0.3008 -2.0029
10474TIP3   OH252836   6.125   1.979   2.775  0.2178 -0.3993 -0.1592
10474TIP3    H152837   6.068   1.998   2.700  1.8923 -1.2903 -1.6962
10474TIP3    H252838   6.165   2.064   2.797 -0.4691 -0.0867 -0.1048
10475TIP3   OH252839   2.996   3.783  15.437 -0.2218 -0.1227 -0.1815
10475TIP3    H152840   2.970   3.692  15.450  1.1598 -0.5854 -0.6591
10475TIP3    H252841   3.084   3.789  15.474  0.3428  0.6105 -1.6030
10476TIP3   OH252842   0.210   6.442  13.384 -0.3327  0.2254  0.0127
10476TIP3    H152843   0.281   6.377  13.391  0.7334  1.4873  1.4605
10476TIP3    H252844   0.205   6.463  13.291 -1.3934 -2.6540 -0.6432
10477TIP3   OH252845   2.645   5.087  13.601  0.0318  0.0608  0.4202
10477TIP3    H152846   2.682   5.139  13.672 -0.9535  2.4110 -0.7569
10477TIP3    H252847   2.602   5.150  13.544  1.3871 -1.7158 -2.6719
10478TIP3   OH252848   5.977   0.879   5.831  0.6541 -0.3911  0.5701
10478TIP3    H152849   5.921   0.842   5.763  0.3788 -2.1345  1.6924
10478TIP3    H252850   6.042   0.931   5.784  0.3907 -1.4650 -1.0192
10479TIP3   OH252851   0.605   1.631  15.011 -0.5312  0.1361  0.3335
10479TIP3    H152852   0.644   1.575  15.077 -0.0191  1.1283  0.8837
10479TIP3    H252853   0.591   1.573  14.936  1.5409 -0.3551  0.3008
10480TIP3   OH252854   2.334   3.148  13.751  0.3764  0.7061 -0.1111
10480TIP3    H152855   2.337   3.239  13.723 -1.1208  0.9897  0.6278
10480TIP3    H252856   2.287   3.150  13.834 -1.2099 -0.9564 -0.9600
10481TIP3   OH252857   1.385   2.560  16.689 -0.0640  0.2515 -0.9740
10481TIP3    H152858   1.300   2.598  16.709  0.4676  0.6620  0.5974
10481TIP3    H252859   1.449   2.621  16.727  0.8724 -0.7926 -0.8174
10482TIP3   OH252860   2.946   1.024   0.251  0.5499  0.2895 -0.1773
10482TIP3    H152861   2.888   1.095   0.224 -0.3843 -0.1848  0.5627
10482TIP3    H252862   3.029   1.067   0.271  0.0652  1.1455  0.0084
10483TIP3   OH252863   3.755   4.124   1.062  0.3601  0.5344 -0.3379
10483TIP3    H152864   3.696   4.188   1.102  0.1461  0.9069 -1.2449
10483TIP3    H252865   3.822   4.177   1.019  1.3679  0.1157  0.6800
10484TIP3   OH252866   5.552   3.322   1.529 -0.3647 -0.2468 -0.2835
10484TIP3    H152867   5.551   3.390   1.595  1.2700 -1.0037  0.5616
10484TIP3    H252868   5.464   3.285   1.530 -0.0272 -1.0700  2.3570
10485TIP3   OH252869   0.347   2.759   0.930 -0.0171 -0.2678 -0.3560
10485TIP3    H152870   0.396   2.766   1.012 -1.0743 -0.3937  0.2938
10485TIP3    H252871   0.286   2.687   0.944 -1.0138  0.4649 -0.8180
10486TIP3   OH252872   1.606   0.696  13.939  0.1819 -0.5957 -0.0488
10486TIP3    H152873   1.561   0.677  13.857 -0.6243 -0.7877  0.4332
10486TIP3    H252874   1.572   0.782  13.966  0.9247 -0.2299 -0.2368
10487TIP3   OH252875   4.177   5.288   0.321  0.2395 -0.0728 -0.4061
10487TIP3    H152876   4.201   5.300   0.230 -0.6778 -0.9984 -0.7788
10487TIP3    H252877   4.196   5.373   0.362  1.0441  0.2147 -1.3594
10488TIP3   OH252878   3.844   1.101  12.031 -0.0264  0.2792  0.1186
10488TIP3    H152879   3.876   1.044  11.961 -1.6755 -0.7883  0.1942
10488TIP3    H252880   3.753   1.120  12.007 -0.7261 -0.3691  2.1173
10489TIP3   OH252881   3.580   6.352  12.140 -0.6048  0.5898  0.1533
10489TIP3    H152882   3.503   6.311  12.178 -0.3776  0.7561  0.7902
10489TIP3    H252883   3.653   6.295  12.163 -0.7246 -0.3389 -1.6827
10490TIP3   OH252884   6.575   2.576  14.193 -0.6625  1.2817  0.3499
10490TIP3    H152885   6.550   2.484  14.179 -0.1518  1.1612  0.2112
10490TIP3    H252886   6.622   2.601  14.113  0.4890  1.2127  0.9821
10491TIP3   OH252887   0.852   0.507   3.157 -0.2406 -0.8157  0.6229
10491TIP3    H152888   0.916   0.519   3.227  0.8439  0.1466 -0.5108
10491TIP3    H252889   0.877   0.571   3.090 -3.5993  1.0250  1.0231
10492TIP3   OH252890   6.706   0.555  12.586 -0.0613 -0.6018  0.4369
10492TIP3    H152891   6.692   0.570  12.679 -0.1319 -0.1864  0.3615
10492TIP3    H252892   6.655   0.624  12.543 -0.7323 -1.3116  0.0716
10493TIP3   OH252893   2.504   5.005   5.424 -0.0007  0.4973  0.5861
10493TIP3    H152894   2.490   4.911   5.411  0.2118  0.6778 -1.1364
10493TIP3    H252895   2.574   5.011   5.489 -0.8955 -0.5155  1.6542
10494TIP3   OH252896   0.096   1.161   3.594 -0.4885 -0.2624 -0.1436
10494TIP3    H152897   0.173   1.161   3.651  0.0804 -1.0662 -0.8922
10494TIP3    H252898   0.036   1.099   3.636 -0.7510  0.4143  0.4761
10495TIP3   OH252899   3.482   4.932   2.082 -0.3415 -0.2963  0.1125
10495TIP3    H152900   3.514   4.894   2.001 -0.0253  0.6374 -0.2087
10495TIP3    H252901   3.439   4.860   2.128 -1.2221 -0.6477 -1.2396
10496TIP3   OH252902   2.322   4.300  17.154 -0.2373 -0.1826 -0.4704
10496TIP3    H152903   2.359   4.371  17.207 -0.9718  0.1138 -0.3446
10496TIP3    H252904   2.368   4.307  17.070 -1.6457  1.6645 -1.1251
10497TIP3   OH252905   4.075   5.403  14.617  0.6518 -0.5098  0.6647
10497TIP3    H152906   4.050   5.336  14.680 -0.8885  0.4286  1.0517
10497TIP3    H252907   4.100   5.353  14.538 -0.0428 -1.5496  1.0905
10498TIP3   OH252908   5.001   3.211   3.582 -0.2304  0.3616 -0.1102
10498TIP3    H152909   5.088   3.229   3.546  0.2045 -1.9990 -0.3023
10498TIP3    H252910   5.018   3.158   3.659 -1.4344  1.3165  0.8310
10499TIP3   OH252911   5.226   2.397   2.892 -0.5612 -0.0702  0.9464
10499TIP3    H152912   5.299   2.386   2.830 -0.9801 -0.6245  0.5549
10499TIP3    H252913   5.192   2.309   2.906 -2.8783  0.4704 -0.9546
10500TIP3   OH252914   2.993   0.491   1.767 -0.0361  0.1368  0.2296
10500TIP3    H152915   2.933   0.421   1.741  0.7357 -1.4602  2.5531
10500TIP3    H252916   3.080   0.450   1.767  0.5551  1.3497  0.7133
10501TIP3   OH252917   6.026   3.979   1.704  0.2657 -0.2235 -0.1895
10501TIP3    H152918   5.947   3.940   1.665  1.7491 -1.5283 -1.9678
10501TIP3    H252919   5.992   4.034   1.775 -2.1319 -2.0417  0.1556
10502TIP3   OH252920   3.411   0.396   4.177  0.5449  0.8769 -0.2725
10502TIP3    H152921   3.446   0.482   4.198 -1.7483  1.5136  1.1195
10502TIP3    H252922   3.316   0.406   4.184  0.1488 -1.2967 -1.9345
10503TIP3   OH252923   2.943   0.934   2.463 -0.0797  0.0011  0.0701
10503TIP3    H152924   2.966   0.968   2.549 -1.0455  1.3085 -0.1720
10503TIP3    H252925   2.855   0.898   2.474  0.4022 -1.2486 -0.0097
10504TIP3   OH252926   1.256   0.783   0.307  1.0572  0.3038 -0.2939
10504TIP3    H152927   1.275   0.719   0.239  1.2135  0.1214 -0.0786
10504TIP3    H252928   1.327   0.772   0.371  1.2948  0.9530 -0.4462
10505TIP3   OH252929   5.048   6.245   3.674  0.2897 -0.2677  0.4955
10505TIP3    H152930   5.018   6.185   3.742  0.2595 -2.5284 -1.4685
10505TIP3    H252931   4.974   6.251   3.613  1.4621 -0.8273 -1.0126
10506TIP3   OH252932   0.002   3.611   3.145 -0.3997 -0.1099  0.0289
10506TIP3    H152933  -0.057   3.685   3.129  0.3405  0.1478 -1.7085
10506TIP3    H252934   0.079   3.630   3.090  1.5285 -0.1827  2.6290
10507TIP3   OH252935   3.274   0.255  12.654  0.0186  0.5032 -0.2517
10507TIP3    H152936   3.335   0.247  12.580 -1.3748  0.6318 -1.4232
10507TIP3    H252937   3.309   0.195  12.720 -1.0851 -2.9522 -2.6522
10508TIP3   OH252938   0.752   2.180   3.190 -0.3521  0.5492  0.2903
10508TIP3    H152939   0.759   2.199   3.096 -2.1852 -3.2529 -0.7120
10508TIP3    H252940   0.831   2.131   3.211 -0.5686  0.2417  0.3991
10509TIP3   OH252941   2.818   2.437   2.347  0.1016  0.5418  0.4630
10509TIP3    H152942   2.799   2.420   2.255 -0.5265 -1.2376  0.9020
10509TIP3    H252943   2.739   2.407   2.393  0.5167  1.1699  1.6067
10510TIP3   OH252944   5.172   1.206   0.140 -0.2599 -0.6205 -0.3621
10510TIP3    H152945   5.220   1.179   0.219 -0.9088 -1.1681 -0.1534
10510TIP3    H252946   5.088   1.238   0.173  0.3450  1.3184 -0.6340
10511TIP3   OH252947   2.378   6.480  15.161 -0.6637 -0.4342 -0.0872
10511TIP3    H152948   2.397   6.516  15.247 -0.5556 -1.4069  0.3103
10511TIP3    H252949   2.337   6.552  15.113 -3.6469 -0.7695  1.8365
10512TIP3   OH252950   3.226   1.999  16.740  0.2510  0.1875 -0.1161
10512TIP3    H152951   3.283   2.076  16.739 -0.9056  1.0787  0.6120
10512TIP3    H252952   3.153   2.021  16.682  0.1441 -0.5415 -0.2700
10513TIP3   OH252953   4.870   0.458  17.081  0.7817 -0.5145 -0.3316
10513TIP3    H152954   4.928   0.382  17.080  1.6212  0.1253 -1.1780
10513TIP3    H252955   4.923   0.530  17.046  0.8939  1.1385  2.9883
10514TIP3   OH252956   4.351   0.532   1.621  0.4263  0.6289  0.0944
10514TIP3    H152957   4.373   0.578   1.540  0.9156  3.7431  1.9023
10514TIP3    H252958   4.429   0.480   1.640  1.0465  1.3437 -0.4490
10515TIP3   OH252959   3.873   4.449   2.755 -0.5506  0.4750 -0.4050
10515TIP3    H152960   3.816   4.515   2.794 -0.3150  0.3777  0.0974
10515TIP3    H252961   3.840   4.439   2.665 -1.7332 -0.0583  0.0846
10516TIP3   OH252962   3.825   4.743   2.318 -0.0542 -0.2225  0.8045
10516TIP3    H152963   3.881   4.673   2.353  0.6920  0.2524  0.5643
10516TIP3    H252964   3.859   4.759   2.230  0.6563  1.3929  1.3542
10517TIP3   OH252965   1.892   4.941   4.332  0.0040 -0.3656 -0.0871
10517TIP3    H152966   1.878   4.876   4.401 -0.5076 -0.6034 -0.4052
10517TIP3    H252967   1.891   4.890   4.251  0.3283 -0.0541 -0.2845
10518TIP3   OH252968   2.831   3.088   1.056  0.5572  0.1102  0.2613
10518TIP3    H152969   2.748   3.063   1.015  0.4845  0.1871  0.3606
10518TIP3    H252970   2.892   3.100   0.983  0.8482 -1.2922  0.2637
10519TIP3   OH252971   3.394   6.055  12.994 -0.0404 -0.3381 -0.0411
10519TIP3    H152972   3.471   6.018  13.037 -1.1706 -0.8402  1.5724
10519TIP3    H252973   3.323   5.994  13.014 -0.7064 -0.3150 -2.2090
10520TIP3   OH252974   0.846   0.765  12.481  0.1829  0.3353 -0.5400
10520TIP3    H152975   0.855   0.850  12.440 -0.6309  0.0556 -1.2918
10520TIP3    H252976   0.793   0.714  12.421 -2.2675  0.3728  1.5100
10521TIP3   OH252977   4.006   0.296  16.752 -0.2318  0.2235  0.1581
10521TIP3    H152978   4.006   0.212  16.706  0.4525 -0.4819  1.4257
10521TIP3    H252979   4.065   0.352  16.701  0.1991 -0.4189 -0.0498
10522TIP3   OH252980   2.265   3.326   2.356 -0.0213 -0.0937 -0.5658
10522TIP3    H152981   2.247   3.242   2.397 -0.2306  1.8071  3.4967
10522TIP3    H252982   2.182   3.351   2.315 -1.5234  0.4143  2.6412
10523TIP3   OH252983   2.214   6.450   2.308 -0.2098 -0.3651  0.5574
10523TIP3    H152984   2.220   6.378   2.371 -0.1608  0.2651  1.2742
10523TIP3    H252985   2.130   6.435   2.264 -0.1914 -0.8744  0.6896
10524TIP3   OH252986   3.015   1.713   5.156  0.2883  0.4776  0.2848
10524TIP3    H152987   3.085   1.668   5.203  0.4628 -0.2821 -0.6743
10524TIP3    H252988   2.937   1.700   5.210  0.3232 -1.0372  0.0093
10525TIP3   OH252989   0.744   5.185   4.990 -0.4152 -0.3865  0.1888
10525TIP3    H152990   0.691   5.231   4.926 -0.1989  1.1114  1.0663
10525TIP3    H252991   0.689   5.112   5.020 -0.9850 -0.3542 -0.7764
10526TIP3   OH252992   1.247   4.957   2.257  0.0062  0.3405  0.6033
10526TIP3    H152993   1.230   4.901   2.333 -2.0939 -0.3958 -0.3772
10526TIP3    H252994   1.234   5.046   2.288 -0.4635  0.0572  1.2127
10527TIP3   OH252995   4.828   5.356  17.179  0.1509 -0.4833 -0.0970
10527TIP3    H152996   4.785   5.314  17.104 -2.6203  2.3573 -0.1855
10527TIP3    H252997   4.918   5.322  17.177 -0.5005 -2.2258 -3.3021
10528TIP3   OH252998   6.146   6.119   2.552 -0.3940  0.4285 -0.1419
10528TIP3    H152999   6.216   6.169   2.510  1.3807 -0.6175  1.4933
10528TIP3    H253000   6.132   6.164   2.636  1.5758 -2.0355  1.5688
10529TIP3   OH253001   2.154   6.536   5.509 -0.6634 -0.7031 -0.2628
10529TIP3    H153002   2.211   6.495   5.444 -2.6079 -3.1255 -0.5559
10529TIP3    H253003   2.168   6.630   5.499  0.8251 -1.1387 -2.5516
10530TIP3   OH253004   5.780   5.227  11.011  0.1350  0.0771  0.4064
10530TIP3    H153005   5.848   5.165  10.983  0.1049  0.6180 -0.9278
10530TIP3    H253006   5.790   5.302  10.951 -2.2633 -0.2476 -0.4556
10531TIP3   OH253007   4.312   4.448   4.259 -0.1136 -0.1193 -0.0588
10531TIP3    H153008   4.276   4.454   4.170  0.0449 -1.4861 -0.2335
10531TIP3    H253009   4.290   4.359   4.287  0.3556  0.1107  1.0435
10532TIP3   OH253010   4.844   2.965   4.224  0.3718 -0.0326  0.5074
10532TIP3    H153011   4.829   2.871   4.237 -1.8168 -0.0172 -1.6348
10532TIP3    H253012   4.823   3.005   4.309 -2.7282 -1.0706  0.2929
10533TIP3   OH253013   6.688   4.611  14.906  0.3263 -0.3038 -0.3187
10533TIP3    H153014   6.667   4.548  14.976  1.6725 -0.8155 -0.3579
10533TIP3    H253015   6.675   4.562  14.825 -0.9918  0.2142 -0.4213
10534TIP3   OH253016   6.100   2.451  16.839  0.2978  0.1418 -0.5004
10534TIP3    H153017   6.091   2.487  16.927  1.2284  0.2634 -0.4602
10534TIP3    H253018   6.019   2.477  16.794 -0.4750 -0.4883  0.5191
10535TIP3   OH253019   5.594   2.651   1.023 -0.3901 -0.4093 -0.3896
10535TIP3    H153020   5.672   2.650   1.078  0.8275  0.5877 -2.0610
10535TIP3    H253021   5.581   2.560   0.998 -0.2653 -0.6978  0.5927
10536TIP3   OH253022   6.339   0.926  13.820  0.3560 -0.6645 -0.1088
10536TIP3    H153023   6.288   0.860  13.773  1.7623 -1.7978 -0.0786
10536TIP3    H253024   6.300   0.928  13.907  0.0638 -1.1956 -0.2239
10537TIP3   OH253025   2.781   2.440  14.842  0.4946  0.1244  0.1382
10537TIP3    H153026   2.827   2.367  14.883 -0.8806 -0.1955  1.1475
10537TIP3    H253027   2.840   2.515  14.852  1.2136 -0.4882  0.5361
10538TIP3   OH253028   5.603   2.483  10.550 -0.5506  0.3778  0.0749
10538TIP3    H153029   5.590   2.557  10.609  0.3726  2.4723 -2.2326
10538TIP3    H253030   5.518   2.469  10.509 -1.0720 -0.7695  1.5241
10539TIP3   OH253031   2.206   3.451  16.774  0.2804  0.1152  0.3250
10539TIP3    H153032   2.114   3.432  16.792  0.8073 -2.9401  0.0022
10539TIP3    H253033   2.216   3.439  16.680  1.1635 -0.1840  0.4523
10540TIP3   OH253034   4.255   4.115  12.496  0.3427 -0.0703  0.5558
10540TIP3    H153035   4.308   4.128  12.417 -0.6704  0.5783 -0.0344
10540TIP3    H253036   4.223   4.025  12.488  1.0036 -0.3230  0.7053
10541TIP3   OH253037   6.710   5.037  14.621 -0.0428  0.0774  0.1164
10541TIP3    H153038   6.646   5.108  14.625 -0.4298 -0.2591 -0.0567
10541TIP3    H253039   6.691   4.984  14.698 -0.3031 -0.3014 -0.2069
10542TIP3   OH253040   3.919   4.503   3.591 -0.5540 -0.2404 -0.7059
10542TIP3    H153041   3.981   4.535   3.655 -1.9682  0.5399  0.2999
10542TIP3    H253042   3.961   4.518   3.506  2.3393 -3.4115  0.0525
10543TIP3   OH253043   0.036   6.282   1.405  0.5706  0.3263 -0.4809
10543TIP3    H153044   0.072   6.352   1.351 -0.0255  1.5570  0.6661
10543TIP3    H253045  -0.059   6.293   1.399  0.4893  0.7560  1.0956
10544TIP3   OH253046   4.499   0.173   1.271 -0.2689 -0.2966 -0.4494
10544TIP3    H153047   4.508   0.170   1.366  0.5743  1.2998 -0.4674
10544TIP3    H253048   4.438   0.245   1.255  1.4806  1.0529 -1.2160
10545TIP3   OH253049   3.391   1.503  15.235  0.0515  0.3723 -0.8418
10545TIP3    H153050   3.400   1.437  15.303  0.3929  1.0513 -0.2160
10545TIP3    H253051   3.331   1.568  15.273  0.7684  1.0904 -0.9252
10546TIP3   OH253052   2.234   4.765   3.030 -0.2871  0.0682  0.0386
10546TIP3    H153053   2.317   4.723   3.052  1.5432  2.2952 -2.3095
10546TIP3    H253054   2.209   4.812   3.110  0.5657 -0.8296  0.8460
10547TIP3   OH253055   5.891   3.946   2.729  0.3481  0.5096 -0.3246
10547TIP3    H153056   5.813   3.903   2.694  0.2366 -0.7066  1.3743
10547TIP3    H253057   5.857   4.024   2.773  0.1604  0.3392 -0.1649
10548TIP3   OH253058   0.648   6.108   3.058 -0.2256 -0.2659  0.3228
10548TIP3    H153059   0.714   6.069   3.002  1.0457  0.4322  1.2994
10548TIP3    H253060   0.669   6.076   3.146 -1.6720 -0.6750  0.5308
10549TIP3   OH253061   2.473   4.322   2.344  0.3460  0.0714  0.3299
10549TIP3    H153062   2.384   4.350   2.365  0.3508 -0.0742  0.5359
10549TIP3    H253063   2.488   4.357   2.256  0.0542  0.0171  0.2587
10550TIP3   OH253064   5.097   2.115   0.748 -0.7723 -0.0055 -0.3941
10550TIP3    H153065   5.151   2.098   0.670  1.0483  1.2713  0.5599
10550TIP3    H253066   5.143   2.069   0.819 -1.8474 -0.2730  0.1445
10551TIP3   OH253067   4.851   3.387   0.862  0.2741  0.2485 -0.4054
10551TIP3    H153068   4.821   3.424   0.779  1.7072 -0.7091 -1.3820
10551TIP3    H253069   4.904   3.457   0.901  0.9797  0.1094 -1.0992
10552TIP3   OH253070   5.608   1.015   0.446 -0.1972 -0.3159  0.4789
10552TIP3    H153071   5.570   1.014   0.534 -1.0127  0.4749  0.1350
10552TIP3    H253072   5.646   1.102   0.437  1.3145 -0.9398  0.6449
10553TIP3   OH253073   5.301   6.483   0.249 -0.3018  0.0617 -0.2445
10553TIP3    H153074   5.208   6.496   0.269 -0.4308  0.2102 -0.9356
10553TIP3    H253075   5.347   6.540   0.311 -0.7268  1.0321 -0.8039
10554TIP3   OH253076   6.388   0.715  13.532  0.1433 -0.2502 -0.0296
10554TIP3    H153077   6.474   0.678  13.512  0.7556  1.2088 -0.1828
10554TIP3    H253078   6.407   0.806  13.557 -1.1851 -0.4021  1.5644
10555TIP3   OH253079   3.685   6.172  17.016 -0.0615 -0.0287  0.1760
10555TIP3    H153080   3.647   6.152  16.930  0.0981 -0.2165  0.1498
10555TIP3    H253081   3.671   6.093  17.067  1.0156 -0.3888 -0.0831
10556TIP3   OH253082   3.440   6.650   1.297  0.4728 -0.4612 -0.3323
10556TIP3    H153083   3.369   6.683   1.352  0.4354  2.5707 -2.1049
10556TIP3    H253084   3.520   6.674   1.344  0.3847 -1.3254  0.2665
10557TIP3   OH253085   5.125   1.925  17.007  0.4451 -0.7124  0.0797
10557TIP3    H153086   5.172   2.002  16.975  0.5979 -0.4060  0.9989
10557TIP3    H253087   5.097   1.879  16.929  1.0186 -0.1205 -0.4808
10558TIP3   OH253088   0.020   6.231   4.122 -0.5275 -0.0745 -0.1115
10558TIP3    H153089   0.059   6.145   4.137 -0.0863  0.1500  0.0150
10558TIP3    H253090  -0.042   6.217   4.051  0.4298 -0.2370 -0.9118
10559TIP3   OH253091   0.377   6.346   0.434  0.7576 -0.2356  0.1800
10559TIP3    H153092   0.421   6.303   0.507  2.0112  0.1880 -0.2985
10559TIP3    H253093   0.393   6.440   0.449 -1.3609  0.0337  0.8569
10560TIP3   OH253094   6.410   3.994  10.874 -0.5341 -0.1801  0.2231
10560TIP3    H153095   6.479   3.934  10.901 -1.0560 -1.2476 -0.7600
10560TIP3    H253096   6.453   4.079  10.866  0.0786 -0.2709  2.2621
10561TIP3   OH253097   5.580   5.213  14.714 -0.5478  0.6941  0.1884
10561TIP3    H153098   5.515   5.249  14.654 -0.7717  0.5019  0.3146
10561TIP3    H253099   5.534   5.143  14.760 -0.1943  0.4263  0.1347
10562TIP3   OH253100   2.009   1.229   2.089  0.4986  0.5973  0.2834
10562TIP3    H153101   2.064   1.196   2.159  0.7948  0.1157 -0.1730
10562TIP3    H253102   2.070   1.260   2.022  0.2220  0.0754 -0.2173
10563TIP3   OH253103   2.801   2.264  11.488 -0.2003 -0.2191  0.5296
10563TIP3    H153104   2.720   2.305  11.459 -0.0731 -0.2441  0.1427
10563TIP3    H253105   2.848   2.333  11.535 -0.3698 -0.1588  0.6106
10564TIP3   OH253106   0.879   4.970  15.724 -0.2263  0.2068  0.2032
10564TIP3    H153107   0.888   4.993  15.631 -2.7596 -2.8625 -0.9065
10564TIP3    H253108   0.806   5.024  15.755 -0.8637 -0.4053 -0.2186
10565TIP3   OH253109   0.310   6.269   0.018 -0.5445 -0.2336  0.0530
10565TIP3    H153110   0.385   6.212   0.037  0.5784  1.5130  0.9723
10565TIP3    H253111   0.265   6.226  -0.055  2.2710 -0.4913 -1.5977
10566TIP3   OH253112   5.511   2.136   2.655 -0.3034  0.0198 -0.7365
10566TIP3    H153113   5.479   2.051   2.624 -0.3347 -0.3505  0.3004
10566TIP3    H253114   5.505   2.130   2.751  2.2307  0.1916 -0.5414
10567TIP3   OH253115   0.174   5.108  14.549 -0.0831 -0.3258  0.3886
10567TIP3    H153116   0.087   5.090  14.583 -0.1673  0.3005  0.5134
10567TIP3    H253117   0.231   5.044  14.591 -0.2153  0.3104  1.5529
10568TIP3   OH253118   4.330   3.571   2.279 -0.2818 -0.3748 -0.5683
10568TIP3    H153119   4.376   3.512   2.339 -1.3754 -1.9171 -1.1940
10568TIP3    H253120   4.253   3.600   2.328 -0.1118 -0.0145 -0.5113
10569TIP3   OH253121   0.254   2.819  12.104 -0.2886 -0.4926  0.0095
10569TIP3    H153122   0.347   2.839  12.096 -0.3181 -0.1285  0.5832
10569TIP3    H253123   0.215   2.857  12.025 -0.3149  1.5829  0.9828
10570TIP3   OH253124   0.416   2.232  13.075 -0.6900 -0.4042 -0.0260
10570TIP3    H153125   0.477   2.253  13.004  1.3467 -0.6769  1.6015
10570TIP3    H253126   0.335   2.278  13.051  0.9365  2.1112 -0.9666
10571TIP3   OH253127   2.225   2.083  14.735  0.0614 -0.6740 -0.0878
10571TIP3    H153128   2.286   2.043  14.674  0.5865  0.5357 -0.3603
10571TIP3    H253129   2.267   2.165  14.762 -0.1816 -1.1504  1.8371
10572TIP3   OH253130   6.294   2.544  14.107 -0.0883  0.2086  0.4808
10572TIP3    H153131   6.382   2.570  14.133 -0.2641 -1.6457  3.1646
10572TIP3    H253132   6.237   2.607  14.152 -0.1662  1.7828 -1.7344
10573TIP3   OH253133   3.572   6.138  13.897 -0.5079  0.7912  0.2672
10573TIP3    H153134   3.594   6.213  13.842 -0.2790 -1.2867 -2.5752
10573TIP3    H253135   3.503   6.093  13.849 -0.8310 -0.6734  2.0691
10574TIP3   OH253136   0.622   4.645  13.954 -0.0131  0.7826 -0.0089
10574TIP3    H153137   0.539   4.678  13.920 -0.1629 -0.0523 -0.4562
10574TIP3    H253138   0.689   4.688  13.901 -0.1131  1.9878  0.7986
10575TIP3   OH253139   5.866   1.484   3.702  0.3728 -0.3717  0.0334
10575TIP3    H153140   5.770   1.483   3.698  0.2908  0.6655  1.3692
10575TIP3    H253141   5.886   1.457   3.792  1.3292 -0.3006 -0.1564
10576TIP3   OH253142   2.123   1.191   5.662 -0.3766  0.5201 -0.5764
10576TIP3    H153143   2.099   1.153   5.577  0.3456  0.2244 -0.6583
10576TIP3    H253144   2.158   1.117   5.712  1.3827  1.1245 -0.8631
10577TIP3   OH253145   3.975   4.173   1.363  0.6940  0.1753  0.0424
10577TIP3    H153146   4.032   4.112   1.316 -0.4660 -2.3574  1.7887
10577TIP3    H253147   3.910   4.200   1.298  0.3623 -1.6155 -0.4006
10578TIP3   OH253148   3.596   3.283   5.417 -0.2095 -0.1854  0.2746
10578TIP3    H153149   3.570   3.372   5.444  0.1627  0.4302 -1.3589
10578TIP3    H253150   3.639   3.247   5.495 -2.7081  0.0780  1.8507
10579TIP3   OH253151   5.488   3.373  13.482  0.3807 -0.0044 -0.2409
10579TIP3    H153152   5.482   3.396  13.389 -0.3244  0.3264 -0.1120
10579TIP3    H253153   5.486   3.457  13.528 -0.8903 -0.2543  0.1623
10580TIP3   OH253154   4.388   2.460   3.948  0.3924 -0.4784 -0.2706
10580TIP3    H153155   4.474   2.417   3.952  1.3695  1.5770  1.2964
10580TIP3    H253156   4.376   2.481   3.855  0.4533 -2.9492 -0.8800
10581TIP3   OH253157   6.488   6.755  11.987 -0.7318  0.0721  0.2856
10581TIP3    H153158   6.574   6.749  12.030  0.2554 -1.0513 -1.7315
10581TIP3    H253159   6.439   6.817  12.040  1.8445  1.9063  0.6484
10582TIP3   OH253160   6.147   4.428  14.216  0.1140 -0.1647 -0.1187
10582TIP3    H153161   6.125   4.475  14.136  0.5802 -0.8498 -0.6508
10582TIP3    H253162   6.235   4.457  14.237  0.5096 -1.0235 -0.6067
10583TIP3   OH253163   2.071   2.614   0.442  0.0571  0.0389 -0.6190
10583TIP3    H153164   2.108   2.533   0.406  0.7570  0.1997 -0.2751
10583TIP3    H253165   2.148   2.667   0.465 -0.3806 -0.1312  1.3082
10584TIP3   OH253166   1.160   0.251   5.532 -0.3122  0.2579 -0.0374
10584TIP3    H153167   1.102   0.230   5.606 -1.4416  0.4639 -0.8414
10584TIP3    H253168   1.163   0.171   5.480 -0.1844  0.3706 -0.2043
10585TIP3   OH253169   2.379   0.278  13.729  0.1623 -0.5429  0.2541
10585TIP3    H153170   2.444   0.286  13.799  0.5266  0.1854 -0.1653
10585TIP3    H253171   2.296   0.305  13.770  0.0736 -1.6775  0.8446
10586TIP3   OH253172   2.092   3.549  16.153 -0.1491 -0.2440  0.2792
10586TIP3    H153173   2.089   3.622  16.091  1.7952  0.5022  1.0012
10586TIP3    H253174   2.001   3.521  16.162 -0.3748 -1.0858 -3.7012
10587TIP3   OH253175   1.446   2.910   4.337 -0.6981  0.3874  0.8468
10587TIP3    H153176   1.472   2.819   4.324 -1.0623  0.0289  2.4417
10587TIP3    H253177   1.436   2.918   4.432 -1.7062  1.7998  0.6348
10588TIP3   OH253178   6.737   5.355  12.937  0.2561 -0.2200 -0.6539
10588TIP3    H153179   6.759   5.339  13.028 -0.4325  0.1458 -0.4166
10588TIP3    H253180   6.821   5.368  12.893  0.5931 -0.5414 -0.1037
10589TIP3   OH253181   2.255   6.121   4.762 -0.1807  0.2880 -0.2939
10589TIP3    H153182   2.287   6.133   4.851 -0.6114  0.3647 -0.1464
10589TIP3    H253183   2.278   6.031   4.739  0.1031  0.3309 -0.1784
10590TIP3   OH253184   3.399   3.066   3.566  0.2176 -0.3857 -0.0243
10590TIP3    H153185   3.392   3.128   3.493 -0.2346 -0.3114  0.0779
10590TIP3    H253186   3.458   2.998   3.534  1.5336  0.6180  0.2359
10591TIP3   OH253187   2.364   0.615  12.220 -0.4475  0.6090  0.2708
10591TIP3    H153188   2.366   0.701  12.263  0.8480  0.9256 -0.3791
10591TIP3    H253189   2.403   0.631  12.134 -0.4352 -0.5779  0.0454
10592TIP3   OH253190   3.070   2.867   2.053 -0.1210  0.0951 -0.0508
10592TIP3    H153191   3.107   2.901   2.134  1.0033 -0.6847 -0.2259
10592TIP3    H253192   3.145   2.834   2.004 -0.9309 -0.5605 -0.8740
10593TIP3   OH253193   2.961   3.511   2.526 -0.4746 -0.3036  0.4007
10593TIP3    H153194   2.929   3.487   2.613  0.4044  0.1568  0.8577
10593TIP3    H253195   2.913   3.454   2.466 -0.9268 -0.7751  1.2042
10594TIP3   OH253196   3.999   5.238   1.916 -0.3293 -0.3660  0.0241
10594TIP3    H153197   3.943   5.295   1.969 -0.8559 -0.4206 -0.4545
10594TIP3    H253198   4.030   5.294   1.845 -2.2443 -1.0711 -1.4288
10595TIP3   OH253199   6.601   5.567   1.445 -0.1018  0.0067 -0.0281
10595TIP3    H153200   6.644   5.633   1.499  0.0051  1.3320 -1.6829
10595TIP3    H253201   6.512   5.562   1.479  0.5542 -0.7372  1.6266
10596TIP3   OH253202   2.112   3.246  13.162  0.1627  0.0346 -0.1890
10596TIP3    H153203   2.124   3.210  13.250 -0.6193 -1.3891 -0.6601
10596TIP3    H253204   2.048   3.316  13.174  0.7366  0.4530  0.5178
10597TIP3   OH253205   3.142   3.809  11.529  0.1057  0.2705  0.1068
10597TIP3    H153206   3.112   3.752  11.458 -0.0579  0.2725  0.1739
10597TIP3    H253207   3.173   3.748  11.597  0.5216  0.2755 -0.0814
10598TIP3   OH253208   0.451   4.120  15.359 -0.3075  0.1212  0.0559
10598TIP3    H153209   0.475   4.185  15.425 -0.0406 -1.9263  2.0476
10598TIP3    H253210   0.534   4.094  15.320 -0.0709 -1.2179  1.4101
10599TIP3   OH253211   4.507   6.484   5.062  0.1853  0.5416 -0.3752
10599TIP3    H153212   4.487   6.411   5.121  2.4098 -0.8921 -1.3263
10599TIP3    H253213   4.564   6.542   5.114 -0.9331  1.2051  0.1182
10600TIP3   OH253214   6.180   3.846   4.561 -0.1238 -0.1135  0.1226
10600TIP3    H153215   6.102   3.796   4.537 -1.5756  1.5286  1.2721
10600TIP3    H253216   6.191   3.910   4.491 -0.0418 -0.1029  0.1457
10601TIP3   OH253217   2.445   0.622   4.051  0.3648  0.7897  0.7587
10601TIP3    H153218   2.436   0.656   4.140 -0.8317 -1.0681  1.3759
10601TIP3    H253219   2.387   0.545   4.049  1.7339 -0.2294 -1.0691
10602TIP3   OH253220   4.497   4.429  15.964 -0.0447 -0.3073  0.4114
10602TIP3    H153221   4.438   4.478  15.906  0.6941  1.9330  1.4670
10602TIP3    H253222   4.579   4.422  15.914  0.4700  1.2939  0.9735
10603TIP3   OH253223   1.404   0.543  12.008  0.3818 -0.2600 -0.3222
10603TIP3    H153224   1.492   0.512  11.988  0.1704 -0.3326 -1.1703
10603TIP3    H253225   1.417   0.627  12.052  0.8845 -0.5273  0.0520
10604TIP3   OH253226   1.003   2.242  13.229  0.6127  0.2762 -0.0210
10604TIP3    H153227   1.061   2.187  13.176  0.6121  0.0660  0.1948
10604TIP3    H253228   0.993   2.194  13.311  2.2463  1.5680  0.9651
10605TIP3   OH253229   0.350   2.792   3.742  0.0507 -0.1864  0.0461
10605TIP3    H153230   0.278   2.730   3.749  0.0238 -0.1300  0.2970
10605TIP3    H253231   0.312   2.869   3.699  0.2349 -0.5727 -0.8222
10606TIP3   OH253232   1.758   0.087  15.330 -0.4394 -0.1702 -0.6872
10606TIP3    H153233   1.810   0.123  15.402 -1.0107  2.0188 -1.3219
10606TIP3    H253234   1.670   0.079  15.365 -0.3728 -0.7285 -0.6352
10607TIP3   OH253235   4.442   1.877   1.638 -0.2708 -0.0061 -0.7274
10607TIP3    H153236   4.452   1.969   1.617 -2.2293  0.0265 -1.5882
10607TIP3    H253237   4.348   1.863   1.644  0.0002 -1.9366 -0.5100
10608TIP3   OH253238   5.202   0.887   6.164  0.6072  0.5470 -0.0055
10608TIP3    H153239   5.203   0.961   6.226  0.6529  0.1409  0.4827
10608TIP3    H253240   5.211   0.810   6.220 -0.8022  0.0901 -0.3952
10609TIP3   OH253241   4.905   1.701  12.761  0.2588 -0.5238  0.2036
10609TIP3    H153242   4.933   1.618  12.799 -1.0615 -1.6406 -1.2182
10609TIP3    H253243   4.981   1.759  12.772  1.6926 -2.3064 -0.0337
10610TIP3   OH253244   1.368   0.770   4.491 -0.5378 -0.0262  0.1291
10610TIP3    H153245   1.386   0.679   4.516 -0.0113  0.5521  1.9731
10610TIP3    H253246   1.290   0.794   4.541 -0.3151  0.7094  0.1400
10611TIP3   OH253247   5.136   5.388   6.000 -0.0788  0.1953  0.1850
10611TIP3    H153248   5.056   5.364   6.047 -0.0862  1.5155  0.8627
10611TIP3    H253249   5.207   5.350   6.052 -0.1692  0.4682  0.5095
10612TIP3   OH253250   1.559   5.439  12.824  0.0024  0.0442  0.6874
10612TIP3    H153251   1.573   5.474  12.912  1.0047  1.0867  0.1187
10612TIP3    H253252   1.596   5.505  12.766 -1.7195 -0.0675 -0.5798
10613TIP3   OH253253   5.844   4.680  11.087  0.1015  0.3416 -0.0566
10613TIP3    H153254   5.908   4.626  11.041 -1.8004 -0.5473 -1.7697
10613TIP3    H253255   5.812   4.625  11.158  0.0189  0.1361 -0.2499
10614TIP3   OH253256   1.003   6.775   6.665  0.2616 -0.1944  0.3705
10614TIP3    H153257   0.951   6.715   6.718  0.3909 -0.6493 -0.0074
10614TIP3    H253258   1.086   6.729   6.651  0.7433  0.4938  0.9132
10615TIP3   OH253259   3.705   4.501  11.820 -0.1856 -0.0994  0.8510
10615TIP3    H153260   3.667   4.503  11.732 -0.0942 -1.9597  0.7471
10615TIP3    H253261   3.760   4.579  11.823 -0.4472  0.1717 -0.6399
10616TIP3   OH253262   1.448   1.875  11.194 -0.1314 -0.1397  0.3027
10616TIP3    H153263   1.417   1.794  11.154 -0.0717  0.5356 -1.1374
10616TIP3    H253264   1.407   1.877  11.280 -0.5383 -1.4398  0.1452
10617TIP3   OH253265   1.561   3.508   6.309 -0.3489 -0.5139 -0.2467
10617TIP3    H153266   1.580   3.576   6.245  0.0605 -1.5425 -1.2277
10617TIP3    H253267   1.493   3.455   6.268 -1.1794 -0.2963  0.8097
10618TIP3   OH253268   5.445   3.549  15.246  0.2390  0.3502 -0.6411
10618TIP3    H153269   5.536   3.575  15.262  0.0856  0.7161 -0.3515
10618TIP3    H253270   5.428   3.480  15.310 -0.2968  1.6432  0.6241
10619TIP3   OH253271   6.031   2.736   6.295 -0.2379  0.4368  0.0465
10619TIP3    H153272   5.978   2.740   6.375 -2.2713  1.0056 -1.2888
10619TIP3    H253273   6.063   2.646   6.291 -0.6497  0.2352  1.1573
10620TIP3   OH253274   6.337   0.698   5.773 -0.3272  0.1373  1.2270
10620TIP3    H153275   6.352   0.757   5.847 -0.6666  0.0545  1.3649
10620TIP3    H253276   6.278   0.747   5.716  1.8876  1.2055 -0.2038
10621TIP3   OH253277   6.593   6.080   6.054  0.7096  0.4046  0.1892
10621TIP3    H153278   6.666   6.037   6.009  1.0356  2.3910 -1.2533
10621TIP3    H253279   6.625   6.168   6.072 -1.7305  1.7086 -1.5933
10622TIP3   OH253280   6.176   5.798  16.345  0.9779 -0.3027 -0.2762
10622TIP3    H153281   6.190   5.857  16.419  1.8850  0.8801 -1.3895
10622TIP3    H253282   6.087   5.817  16.315  0.4642 -1.0497  0.7214
10623TIP3   OH253283   1.798   2.111   5.450 -0.2331  0.1607 -0.7923
10623TIP3    H153284   1.754   2.079   5.528  1.7290  0.0959  0.3315
10623TIP3    H253285   1.728   2.129   5.388 -1.7472 -0.8229  0.5982
10624TIP3   OH253286   5.609   0.576  15.827 -0.7173  0.2681  0.2661
10624TIP3    H153287   5.541   0.630  15.866 -0.6219  0.5791 -0.0033
10624TIP3    H253288   5.575   0.551  15.742 -1.2117 -0.9699  0.8179
10625TIP3   OH253289   5.027   2.247  16.665 -0.6078 -0.2066  0.0998
10625TIP3    H153290   5.043   2.166  16.617 -1.2170  0.0024 -0.4575
10625TIP3    H253291   5.028   2.315  16.599  1.2639  0.4122  0.7476
10626TIP3   OH253292   2.305   5.075  14.714  0.4853 -0.5849 -0.3452
10626TIP3    H153293   2.334   5.027  14.791  1.6072  0.4543 -0.1009
10626TIP3    H253294   2.212   5.089  14.729  0.6061 -0.7552  0.6257
10627TIP3   OH253295   5.015   6.326  12.749  0.5955 -0.1201 -0.1457
10627TIP3    H153296   4.954   6.399  12.742  0.1749 -0.3508  0.9840
10627TIP3    H253297   5.052   6.334  12.837  3.3199  0.8943 -1.3200
10628TIP3   OH253298   2.422   5.017  10.665 -0.2899 -0.1858  0.4678
10628TIP3    H153299   2.369   5.070  10.724  0.1682 -0.2289  0.9195
10628TIP3    H253300   2.380   4.931  10.666 -0.0590 -0.2886  1.0157
10629TIP3   OH253301   0.351   0.327   1.443 -0.0532 -0.2145 -0.2424
10629TIP3    H153302   0.291   0.365   1.507 -0.1218 -0.2916 -0.2602
10629TIP3    H253303   0.306   0.339   1.359  0.5088  0.8416 -0.4051
10630TIP3   OH253304   1.308   1.631  17.092 -0.3624 -0.3861 -0.1090
10630TIP3    H153305   1.333   1.696  17.157  0.5975 -1.2797  0.4104
10630TIP3    H253306   1.235   1.584  17.132  0.8907 -1.6160  0.7541
10631TIP3   OH253307   0.944   6.174   5.271 -0.3966  0.0682  0.3496
10631TIP3    H153308   1.030   6.135   5.255 -0.7576 -0.1973 -0.9828
10631TIP3    H253309   0.951   6.263   5.236 -0.0518  0.7477  2.0439
10632TIP3   OH253310   4.126   5.953  15.811 -0.0577 -0.0618 -0.3972
10632TIP3    H153311   4.091   5.885  15.869 -1.9043 -2.1507 -3.7647
10632TIP3    H253312   4.200   5.910  15.767 -0.8866  0.2977 -2.1462
10633TIP3   OH253313   5.416   2.538   2.476  0.1812 -0.8095 -0.2066
10633TIP3    H153314   5.499   2.571   2.443  0.7942 -0.7050  1.3878
10633TIP3    H253315   5.394   2.465   2.419  1.5218 -1.0269 -0.4457
10634TIP3   OH253316   5.024   6.422   1.739  0.1510  0.2652 -0.3030
10634TIP3    H153317   5.098   6.367   1.765  0.3133  0.1854 -0.9321
10634TIP3    H253318   4.966   6.363   1.691  0.3735  0.6617 -1.0667
10635TIP3   OH253319   0.725   4.805   2.184  0.2954 -0.3148 -0.1406
10635TIP3    H153320   0.656   4.810   2.118  0.6483  0.8371 -0.4332
10635TIP3    H253321   0.805   4.789   2.134  0.5721  0.6242  0.0067
10636TIP3   OH253322   6.241   1.540   4.238  0.4904  0.3479  0.3669
10636TIP3    H153323   6.313   1.570   4.183 -1.0111  2.3948 -0.5415
10636TIP3    H253324   6.164   1.543   4.181 -1.0089  1.9523  2.3546
10637TIP3   OH253325   6.598   3.335  16.198  0.1126 -0.1830  0.1190
10637TIP3    H153326   6.643   3.392  16.136 -1.1308 -0.1106 -0.7379
10637TIP3    H253327   6.513   3.318  16.158 -0.9392  0.3246  2.0675
10638TIP3   OH253328   2.133   2.480   1.506  0.5476 -0.7472  0.1474
10638TIP3    H153329   2.226   2.462   1.495  1.0697  2.0079 -0.4940
10638TIP3    H253330   2.095   2.462   1.420  0.7221 -0.5826  0.0358
10639TIP3   OH253331   5.023   1.882   0.019 -0.3131 -0.0642 -0.3416
10639TIP3    H153332   5.082   1.817   0.056  0.0508 -0.5864 -1.7935
10639TIP3    H253333   5.062   1.904  -0.065 -1.2374  0.9172 -0.5200
10640TIP3   OH253334   3.064   6.229  14.639 -0.4044  0.2684 -0.7203
10640TIP3    H153335   3.010   6.180  14.701 -1.7146  0.6668 -1.5344
10640TIP3    H253336   3.152   6.224  14.675 -0.7696 -1.4350 -0.0173
10641TIP3   OH253337   4.540   6.047   3.931  0.1255  0.4291  0.3585
10641TIP3    H153338   4.578   6.078   3.849  2.5941 -0.9611  0.9260
10641TIP3    H253339   4.483   5.975   3.905  1.1372 -0.2108 -0.1299
10642TIP3   OH253340   2.373   6.426  12.889 -0.1513  0.4000 -0.2249
10642TIP3    H153341   2.291   6.429  12.937  0.3174  0.0823  0.5872
10642TIP3    H253342   2.415   6.345  12.917  0.1252  0.2131 -1.1618
10643TIP3   OH253343   2.954   1.241  12.949  0.2420  0.1153 -0.1544
10643TIP3    H153344   2.973   1.170  13.010 -2.2700 -1.2116 -0.8836
10643TIP3    H253345   2.951   1.199  12.863 -2.6813  0.7871 -0.4355
10644TIP3   OH253346   2.391   2.700  14.181  0.1144  0.0545 -0.2849
10644TIP3    H153347   2.320   2.674  14.240  0.4648 -0.3255 -0.0263
10644TIP3    H253348   2.411   2.790  14.205  1.2442 -0.5660  1.1673
10645TIP3   OH253349   6.453   0.575  16.471  0.0395 -0.1171 -0.3908
10645TIP3    H153350   6.445   0.594  16.564  0.0804  0.6307 -0.5369
10645TIP3    H253351   6.402   0.495  16.458 -2.0903  1.1560 -0.1743
10646TIP3   OH253352   4.008   2.498  13.140  0.2320 -0.4733  0.0575
10646TIP3    H153353   4.019   2.552  13.062 -0.2924 -0.3632  0.0584
10646TIP3    H253354   4.075   2.430  13.132 -0.6139 -1.1820 -1.1052
10647TIP3   OH253355   2.385   6.551   3.801 -0.3808  0.1796 -0.2309
10647TIP3    H153356   2.339   6.559   3.885  1.1768 -0.8268  0.7300
10647TIP3    H253357   2.455   6.616   3.807  0.3589 -0.6122 -0.3423
10648TIP3   OH253358   5.082   4.818   0.446  0.5034  0.3712 -0.0116
10648TIP3    H153359   5.141   4.751   0.414 -0.8847 -0.3963 -1.0259
10648TIP3    H253360   5.060   4.790   0.535 -1.8498 -1.8205 -1.1916
10649TIP3   OH253361   1.820   2.938   4.386 -0.8965 -0.4542 -0.1538
10649TIP3    H153362   1.846   2.865   4.442 -0.3594 -1.2403 -1.4083
10649TIP3    H253363   1.829   2.905   4.297 -2.3945  0.5574 -0.7123
10650TIP3   OH253364   5.038   4.946   0.868 -0.1068  0.0528  0.0600
10650TIP3    H153365   5.042   4.886   0.942 -0.6714 -0.8241 -0.6002
10650TIP3    H253366   4.978   5.015   0.896  1.5051  0.9965  1.2886
10651TIP3   OH253367   4.022   6.344   0.483  0.0736  0.6155 -0.1792
10651TIP3    H153368   3.933   6.370   0.461  0.3015  1.6163  0.0521
10651TIP3    H253369   4.065   6.332   0.399  0.4854  2.8442 -0.3201
10652TIP3   OH253370   2.043   3.325   0.780  0.0817  0.7144  0.0540
10652TIP3    H153371   2.006   3.258   0.838  0.7164  0.0247 -0.3283
10652TIP3    H253372   1.985   3.401   0.790 -1.1861 -0.1996 -0.1938
10653TIP3   OH253373   0.055   5.692  13.703  0.1741  0.0486 -0.4060
10653TIP3    H153374  -0.002   5.768  13.694  1.5242  1.0164 -0.9899
10653TIP3    H253375  -0.004   5.619  13.721 -1.2613  0.9616 -1.3637
10654TIP3   OH253376   1.050   0.408  14.949  0.4586  0.0279 -0.0075
10654TIP3    H153377   1.119   0.411  15.016  0.8647 -1.2247 -0.3587
10654TIP3    H253378   0.969   0.419  14.997  0.7002 -1.5275  0.7887
10655TIP3   OH253379   4.585   5.234   0.773 -0.1151 -0.3838  0.0635
10655TIP3    H153380   4.558   5.143   0.777  1.6250 -0.9065  0.2563
10655TIP3    H253381   4.604   5.258   0.864  0.2657 -0.0935 -0.0903
10656TIP3   OH253382   5.819   6.784  12.019 -0.5784 -0.6655 -0.8784
10656TIP3    H153383   5.903   6.740  12.003 -0.0540  0.4526 -1.2274
10656TIP3    H253384   5.795   6.821  11.934  0.2478  1.8895 -0.0406
10657TIP3   OH253385   6.456   1.770   0.977 -0.0511 -0.4285 -0.2205
10657TIP3    H153386   6.501   1.787   0.894  0.1967  0.3901  0.0741
10657TIP3    H253387   6.515   1.805   1.044 -1.2662  0.9778  0.1568
10658TIP3   OH253388   3.492   4.085   0.600 -0.0386 -0.2890  0.1760
10658TIP3    H153389   3.575   4.046   0.627 -0.2781 -1.9188 -1.2656
10658TIP3    H253390   3.474   4.153   0.664  1.7044 -0.8813  1.3159
10659TIP3   OH253391   6.664   0.508  15.634 -0.6374 -0.2639  0.3126
10659TIP3    H153392   6.651   0.565  15.709  1.3732  0.1489  0.3832
10659TIP3    H253393   6.602   0.540  15.568 -1.7596 -0.0476  1.4477
10660TIP3   OH253394   0.054   1.581  15.345 -0.1587  0.1253 -0.0232
10660TIP3    H153395  -0.035   1.616  15.338 -0.3930 -0.5503 -0.4850
10660TIP3    H253396   0.064   1.526  15.267  0.7884  0.4786 -0.1521
10661TIP3   OH253397   1.792   5.862  12.868  0.5276 -0.0390 -0.2298
10661TIP3    H153398   1.821   5.953  12.867  0.8559 -0.0945  2.0292
10661TIP3    H253399   1.701   5.865  12.837 -0.1548  1.3273  1.8663
10662TIP3   OH253400   1.053   0.692   1.604  0.4859 -0.2919  0.2465
10662TIP3    H153401   1.109   0.633   1.553  0.4027 -0.9909  0.9443
10662TIP3    H253402   1.064   0.662   1.694 -1.1847 -0.5909  0.3775
10663TIP3   OH253403   3.106   4.888   5.846 -0.3051  0.3223  0.2598
10663TIP3    H153404   3.101   4.970   5.797 -0.5505  1.3343  1.9195
10663TIP3    H253405   3.105   4.915   5.938  4.6797 -1.1739  0.9085
10664TIP3   OH253406   5.086   3.701   5.121  0.1546 -0.2596 -0.2106
10664TIP3    H153407   5.077   3.795   5.136 -0.8846 -0.5079  0.8786
10664TIP3    H253408   5.062   3.688   5.030 -0.7397  0.4061 -0.0768
10665TIP3   OH253409   4.781   1.402  17.236  0.9012 -0.2797 -0.3527
10665TIP3    H153410   4.840   1.359  17.174 -0.8947 -0.5008 -1.9449
10665TIP3    H253411   4.704   1.346  17.239  1.0484 -0.3867  2.2965
10666TIP3   OH253412   0.435   0.601   2.004  0.0001 -0.5064 -0.1793
10666TIP3    H153413   0.378   0.658   1.952 -0.6720  0.2919  1.4062
10666TIP3    H253414   0.493   0.559   1.940 -0.5606  0.7578 -1.5207
10667TIP3   OH253415   5.619   5.199   3.349  0.1436  0.3819  0.2155
10667TIP3    H153416   5.587   5.115   3.315  0.4147  0.7917 -1.0734
10667TIP3    H253417   5.669   5.176   3.427 -0.9628 -0.5232  0.6653
10668TIP3   OH253418   3.552   2.705  14.391  0.2508 -0.1010 -0.3367
10668TIP3    H153419   3.511   2.636  14.444 -0.8985 -0.7246 -1.9983
10668TIP3    H253420   3.616   2.745  14.449 -0.9881 -0.7687  1.5414
10669TIP3   OH253421   5.986   4.327  15.490 -0.3998 -0.3096  0.0586
10669TIP3    H153422   5.964   4.269  15.417 -1.6134  0.7280 -0.4248
10669TIP3    H253423   6.048   4.390  15.451 -1.0355  0.2337 -0.0761
10670TIP3   OH253424   3.011   3.797   2.138  0.4142 -0.7882  0.2086
10670TIP3    H153425   3.068   3.748   2.198 -0.2132 -0.7044  0.8832
10670TIP3    H253426   2.934   3.742   2.128 -0.6438  0.3921  1.5970
10671TIP3   OH253427   1.564   5.555   0.523 -0.2634  0.5819 -0.2730
10671TIP3    H153428   1.536   5.557   0.432  0.5681  1.0422 -0.5315
10671TIP3    H253429   1.566   5.648   0.549  1.8803  0.6416 -0.5499
10672TIP3   OH253430   1.479   4.256   3.553 -0.1712  0.2948 -0.8535
10672TIP3    H153431   1.568   4.245   3.584  0.0119  0.7941 -1.1908
10672TIP3    H253432   1.443   4.327   3.607 -1.8109 -2.7924  2.3042
10673TIP3   OH253433   4.233   4.896   0.107 -0.0669  0.3130 -0.0130
10673TIP3    H153434   4.177   4.905   0.030 -1.1021  1.5935  0.8570
10673TIP3    H253435   4.178   4.928   0.179  2.5388  3.8150  0.5648
10674TIP3   OH253436   3.246   4.713   0.041 -0.1675 -0.2751  0.1926
10674TIP3    H153437   3.194   4.663   0.104  0.5353 -0.5767  0.5471
10674TIP3    H253438   3.262   4.652  -0.031  2.0464 -1.1415  1.3404
10675TIP3   OH253439   1.127   3.291  11.126 -0.0933  0.1552 -0.1688
10675TIP3    H153440   1.035   3.317  11.134 -0.1108  0.0370  0.0026
10675TIP3    H253441   1.141   3.283  11.031  0.1026  1.4695 -0.2475
10676TIP3   OH253442   4.743   1.862   5.627  1.0309  0.1091 -0.1144
10676TIP3    H153443   4.733   1.905   5.711  2.2866 -1.7087  1.0147
10676TIP3    H253444   4.825   1.814   5.635  0.4617 -1.2050 -1.8790
10677TIP3   OH253445   2.094   4.394  15.777 -0.3696 -0.0266 -0.3874
10677TIP3    H153446   2.110   4.308  15.738 -2.4654  0.7022 -3.0163
10677TIP3    H253447   2.137   4.455  15.717  1.7695  0.7769  1.8715
10678TIP3   OH253448   4.403   2.294  14.739  0.5283 -0.0859 -0.1196
10678TIP3    H153449   4.447   2.209  14.734  1.0058  0.2152 -1.4634
10678TIP3    H253450   4.362   2.295  14.825  2.0801 -0.9067  0.6555
10679TIP3   OH253451   4.796   6.782   4.148 -0.0329 -0.3559  0.5234
10679TIP3    H153452   4.810   6.828   4.231 -2.3716 -0.6817  1.1328
10679TIP3    H253453   4.731   6.715   4.168 -1.0890 -0.0401 -1.6955
10680TIP3   OH253454   6.413   3.613   5.397  0.1332  0.6486 -0.2953
10680TIP3    H153455   6.376   3.525   5.408 -0.4964  0.8382 -0.8475
10680TIP3    H253456   6.414   3.650   5.485  2.6859 -0.7983  0.3201
10681TIP3   OH253457   3.366   4.287  12.925 -0.2801 -0.6841 -0.2696
10681TIP3    H153458   3.284   4.330  12.949 -0.2275 -0.8386  0.1909
10681TIP3    H253459   3.348   4.245  12.841 -0.5173 -0.2836 -0.4174
10682TIP3   OH253460   5.721   5.314   6.044 -1.1378  0.1533  0.7225
10682TIP3    H153461   5.747   5.228   6.077 -0.1978  0.0584 -0.2050
10682TIP3    H253462   5.742   5.374   6.115  0.0876 -0.1421  0.6309
10683TIP3   OH253463   3.981   4.124   6.254 -0.3321 -0.5022 -0.2460
10683TIP3    H153464   4.063   4.165   6.224 -0.4325 -0.5163 -0.5409
10683TIP3    H253465   3.997   4.103   6.346 -0.0585 -0.3631 -0.2609
10684TIP3   OH253466   5.388   0.228   2.443 -0.2261  0.0846 -0.2876
10684TIP3    H153467   5.292   0.230   2.444 -0.2272 -0.6346  1.8715
10684TIP3    H253468   5.411   0.283   2.368 -2.3335 -0.3934 -1.3359
10685TIP3   OH253469   5.704   1.231  13.275  0.3702  0.2188  0.5420
10685TIP3    H153470   5.707   1.191  13.362 -1.7374 -0.0354  0.5178
10685TIP3    H253471   5.613   1.218  13.245  0.8722  0.9331 -1.3929
10686TIP3   OH253472   6.040   0.719  17.074  0.2805  0.0487  0.4181
10686TIP3    H153473   6.010   0.628  17.071  3.1316 -0.9856  1.9190
10686TIP3    H253474   6.106   0.725  17.005 -0.3890  1.1947 -0.1406
10687TIP3   OH253475   6.413   2.953   1.695 -0.2376  0.2143  0.1856
10687TIP3    H153476   6.491   2.984   1.740 -0.6546  0.7051  0.5682
10687TIP3    H253477   6.344   2.956   1.760 -0.5567 -0.3277 -0.1212
10688TIP3   OH253478   6.738   0.045   0.847 -0.5158 -0.0053  0.2735
10688TIP3    H153479   6.812   0.068   0.904 -0.3512  1.9171 -0.6870
10688TIP3    H253480   6.777  -0.010   0.779 -0.2740 -0.3490  0.6868
10689TIP3   OH253481   1.415   0.603  13.395 -0.1445 -0.4374  0.1284
10689TIP3    H153482   1.341   0.597  13.456  1.5169 -1.5193  2.1104
10689TIP3    H253483   1.477   0.662  13.439 -0.4847  1.7257 -2.2307
10690TIP3   OH253484   6.131   0.766  11.107 -0.3794 -0.1027  0.2194
10690TIP3    H153485   6.222   0.735  11.099 -0.8258 -1.4708  0.2941
10690TIP3    H253486   6.135   0.835  11.174  0.9537  1.3322 -1.2882
10691TIP3   OH253487   2.083   3.613  11.774  0.3255  0.0527  0.4304
10691TIP3    H153488   2.000   3.594  11.731  0.5638 -1.1666  0.4772
10691TIP3    H253489   2.148   3.607  11.704  0.5006 -0.0600  0.6036
10692TIP3   OH253490   5.952   5.329  16.477  0.0894 -0.8040  0.1641
10692TIP3    H153491   6.044   5.315  16.452  0.1818  0.6217 -0.3211
10692TIP3    H253492   5.954   5.411  16.526 -0.7995 -1.2461  0.9449
10693TIP3   OH253493   0.907   3.819   0.539  0.1302 -0.2874 -0.4762
10693TIP3    H153494   0.921   3.786   0.628 -0.3446  2.0831  0.4995
10693TIP3    H253495   0.964   3.765   0.484  0.7449 -1.4895  1.3106
10694TIP3   OH253496   0.676   1.338  15.039  0.3728 -0.3490 -0.2097
10694TIP3    H153497   0.654   1.375  15.124 -0.0813 -0.3467 -0.3284
10694TIP3    H253498   0.602   1.282  15.016 -0.0712  0.5843 -1.1419
10695TIP3   OH253499   0.320   0.805  15.455  0.1014  0.1034  0.2822
10695TIP3    H153500   0.287   0.891  15.480  0.6600  0.1900  0.7264
10695TIP3    H253501   0.309   0.801  15.360 -1.8405 -0.1431  0.4994
10696TIP3   OH253502   5.288   3.090   0.124 -0.1751  0.0195  0.1141
10696TIP3    H153503   5.359   3.076   0.187 -1.4030 -0.2318  1.4497
10696TIP3    H253504   5.208   3.070   0.172 -1.1866  0.5555 -1.3060
10697TIP3   OH253505   6.466   0.765  15.820  0.7928 -0.2152  0.0715
10697TIP3    H153506   6.443   0.843  15.770  1.0926  0.1679  0.5243
10697TIP3    H253507   6.515   0.799  15.896  0.5247 -0.8022  0.5078
10698TIP3   OH253508   6.478   2.424  12.599  0.7059 -0.2445 -0.1382
10698TIP3    H153509   6.515   2.447  12.514 -2.6399 -0.3472 -1.6535
10698TIP3    H253510   6.467   2.329  12.596 -1.0652 -0.0363 -0.2596
10699TIP3   OH253511   2.917   2.309   2.596  0.1640 -0.2650  0.3475
10699TIP3    H153512   2.968   2.236   2.561 -1.0944 -0.4104 -1.2371
10699TIP3    H253513   2.828   2.293   2.565 -0.5978  0.6742  1.9951
10700TIP3   OH253514   6.448   3.489   0.647  0.3531 -0.1141 -0.1810
10700TIP3    H153515   6.470   3.404   0.608  0.3629  0.1691 -0.8025
10700TIP3    H253516   6.450   3.550   0.573  2.6789  0.8537  0.6460
10701TIP3   OH253517   3.141   3.644   2.331 -0.0948  0.1891 -0.0840
10701TIP3    H153518   3.102   3.585   2.395 -1.8322  0.1709 -1.1389
10701TIP3    H253519   3.198   3.587   2.278  0.8859  0.1018  1.0371
10702TIP3   OH253520   1.415   5.389  13.416  0.5605  0.3530 -0.4156
10702TIP3    H153521   1.509   5.406  13.419  0.5612  0.2974 -0.0711
10702TIP3    H253522   1.403   5.314  13.474  0.2504  0.5968 -0.1682
10703TIP3   OH253523   0.179   3.936  15.018  0.4871 -0.0859 -0.1850
10703TIP3    H153524   0.142   3.984  14.944  1.1834  0.3326 -0.2715
10703TIP3    H253525   0.127   3.964  15.093  0.1617 -0.0635 -0.4154
10704TIP3   OH253526   5.646   0.046   0.094 -0.0866 -0.2622  0.1453
10704TIP3    H153527   5.637  -0.049   0.086 -1.7538  0.0529 -2.4784
10704TIP3    H253528   5.730   0.065   0.052 -0.6750 -0.4037 -1.1214
10705TIP3   OH253529   0.540   3.165   1.243 -0.2253  0.4068 -0.0171
10705TIP3    H153530   0.587   3.247   1.227  0.6193  0.0174  0.3887
10705TIP3    H253531   0.488   3.151   1.164  1.6607 -0.0170 -1.2260
10706TIP3   OH253532   6.675   3.717   5.794 -0.0239  0.3868  0.3041
10706TIP3    H153533   6.705   3.667   5.870  0.3389 -0.3000 -0.2923
10706TIP3    H253534   6.754   3.757   5.759 -0.4094  2.0077  1.2147
10707TIP3   OH253535   5.934   4.418   2.009  0.1832  0.0660  0.3479
10707TIP3    H153536   5.993   4.492   2.021  0.6024 -0.7242  3.7053
10707TIP3    H253537   5.846   4.455   2.019  0.2465  0.6393 -1.1466
10708TIP3   OH253538   4.271   1.025   2.428 -0.3053 -0.3693  0.2060
10708TIP3    H153539   4.278   1.111   2.470 -0.9402 -0.0663 -0.3010
10708TIP3    H253540   4.288   1.042   2.336  1.2019 -1.0527  0.3494
10709TIP3   OH253541   5.268   1.373   2.631 -0.4344  0.2982  0.1321
10709TIP3    H153542   5.272   1.410   2.719  3.2674  0.4962 -0.0496
10709TIP3    H253543   5.343   1.411   2.586  0.6144 -3.5714 -1.5732
10710TIP3   OH253544   4.932   1.522   6.271  0.0053  0.6038 -0.0399
10710TIP3    H153545   4.894   1.577   6.202  0.6114  0.8304 -0.1989
10710TIP3    H253546   4.933   1.579   6.348 -0.8311  0.2941  0.2026
10711TIP3   OH253547   6.223   5.357  16.389  0.1441 -0.0899  0.0730
10711TIP3    H153548   6.243   5.440  16.347 -0.4157  0.5332  1.0234
10711TIP3    H253549   6.279   5.356  16.467 -1.5177  0.4597  1.3109
10712TIP3   OH253550   0.195   2.138  14.073 -0.2361 -0.4937 -0.0875
10712TIP3    H153551   0.251   2.061  14.067 -0.5753 -0.7290 -0.2234
10712TIP3    H253552   0.238   2.204  14.018  1.4745  0.2887  2.0709
10713TIP3   OH253553   1.940   1.197   2.811  0.3068 -0.8439 -0.4462
10713TIP3    H153554   1.865   1.212   2.869  0.0544 -2.0747 -0.4291
10713TIP3    H253555   1.973   1.111   2.838  0.6173 -1.1118 -1.6583
10714TIP3   OH253556   6.220   3.275  14.546 -0.0394  0.0455  0.3919
10714TIP3    H153557   6.179   3.333  14.610  0.6388  1.1538 -0.1618
10714TIP3    H253558   6.189   3.308  14.461  1.0808  0.1772  0.0281
10715TIP3   OH253559   3.773   0.575   2.560 -0.1999 -0.1978 -0.1377
10715TIP3    H153560   3.868   0.584   2.555 -0.1871  0.4594  1.1253
10715TIP3    H253561   3.745   0.645   2.618 -1.3487 -1.0325  0.3368
10716TIP3   OH253562   5.855   3.694  11.910 -0.4154 -0.1801 -0.2629
10716TIP3    H153563   5.949   3.713  11.905  0.0330 -1.8738  1.3206
10716TIP3    H253564   5.850   3.599  11.898 -1.9167 -0.1207 -0.0911
10717TIP3   OH253565   2.044   2.054  16.858  0.3188  0.2649  0.1646
10717TIP3    H153566   1.998   2.025  16.779  0.1973  1.1419 -0.0989
10717TIP3    H253567   1.994   2.130  16.888 -1.3976 -1.8247  2.8116
10718TIP3   OH253568   1.891   0.642   0.408  0.3677  0.1168  0.0095
10718TIP3    H153569   1.832   0.646   0.333 -1.1360 -0.9077  1.1179
10718TIP3    H253570   1.878   0.725   0.454  0.8665  0.5007 -0.5388
10719TIP3   OH253571   5.286   5.511   1.293  0.0916 -0.0893  0.2632
10719TIP3    H153572   5.272   5.588   1.237 -0.7908 -1.0019 -0.8212
10719TIP3    H253573   5.330   5.448   1.236  0.7365 -0.4228  1.1195
10720TIP3   OH253574   3.373   5.630   5.153  0.0836  0.0453 -0.1249
10720TIP3    H153575   3.429   5.671   5.086  1.0732 -0.2836  0.4988
10720TIP3    H253576   3.305   5.696   5.170  0.1421  0.3583 -1.0459
10721TIP3   OH253577   4.064   1.927  14.148  0.5195 -0.1053 -0.4601
10721TIP3    H153578   4.046   1.847  14.098 -0.6968  0.7385 -1.4133
10721TIP3    H253579   4.029   1.909  14.235 -0.9937 -0.1304 -1.0549
10722TIP3   OH253580   3.761   3.994   3.815 -0.1029  0.1344  0.3346
10722TIP3    H153581   3.812   4.071   3.791 -0.3245  0.4297  0.7858
10722TIP3    H253582   3.723   3.963   3.733 -2.0370  1.9861  0.4594
10723TIP3   OH253583   4.174   2.658   2.478 -0.5098 -0.5044  0.2295
10723TIP3    H153584   4.113   2.731   2.488 -0.9201 -0.8531  0.3016
10723TIP3    H253585   4.230   2.663   2.555 -0.7949 -0.5048  0.4378
10724TIP3   OH253586   2.178   3.700   0.642 -0.0664  0.3536  0.4541
10724TIP3    H153587   2.245   3.707   0.574 -1.2110 -2.2083 -1.0196
10724TIP3    H253588   2.227   3.692   0.724  1.3838  0.7774 -0.3636
10725TIP3   OH253589   6.293   3.961  16.637  0.0135  0.7095  0.7106
10725TIP3    H153590   6.230   3.985  16.705 -0.5458  0.5719  0.2398
10725TIP3    H253591   6.259   3.879  16.600  2.4095 -1.4612  3.0085
10726TIP3   OH253592   3.311   2.970   4.196 -0.6906  0.4540 -0.1726
10726TIP3    H153593   3.319   2.935   4.108 -1.4705 -0.8226  0.2461
10726TIP3    H253594   3.230   3.021   4.195 -0.5869  0.6130 -0.2654
10727TIP3   OH253595   5.918   1.374   3.954  0.5543  0.4922  0.0588
10727TIP3    H153596   5.991   1.369   4.017 -0.1458  2.3526  1.0546
10727TIP3    H253597   5.860   1.302   3.978  0.8601  0.5009  0.8315
10728TIP3   OH253598   5.165   5.781   6.308  0.4422 -0.5543 -0.0054
10728TIP3    H153599   5.213   5.841   6.365  0.7729 -0.7783 -0.0499
10728TIP3    H253600   5.205   5.695   6.323 -2.0010 -1.3711  2.3499
10729TIP3   OH253601   5.849   4.569   5.596 -0.1508  0.1237 -0.2405
10729TIP3    H153602   5.930   4.538   5.635  0.5256  1.5645 -0.4766
10729TIP3    H253603   5.844   4.524   5.512  0.8965  0.7582 -0.6503
10730TIP3   OH253604   0.678   4.897  12.949  0.9409  0.2650  0.8725
10730TIP3    H153605   0.711   4.951  13.021  0.5003  0.5839  0.8342
10730TIP3    H253606   0.754   4.844  12.922  0.7523 -0.8805  2.5018
10731TIP3   OH253607   1.790   3.326   5.887  0.2622  0.0233  0.5389
10731TIP3    H153608   1.736   3.262   5.841  0.5354  1.4809 -1.9453
10731TIP3    H253609   1.727   3.389   5.922  0.0732 -0.8901  1.8554
10732TIP3   OH253610   0.359   4.784  12.468 -0.2249  0.3363  0.2900
10732TIP3    H153611   0.404   4.709  12.506 -0.3252 -0.9449 -2.0077
10732TIP3    H253612   0.422   4.856  12.477  0.9084 -0.6177  0.2149
10733TIP3   OH253613   0.831   1.409   0.225 -0.1055 -0.0221  0.0500
10733TIP3    H153614   0.842   1.356   0.146  0.0462  0.7243 -0.4438
10733TIP3    H253615   0.919   1.418   0.261 -0.1506 -0.2269  0.2065
10734TIP3   OH253616   1.003   1.856   5.176 -0.6627  0.1983 -0.6469
10734TIP3    H153617   1.060   1.810   5.237 -1.1282 -0.0061 -0.3647
10734TIP3    H253618   1.047   1.940   5.161 -1.6916  1.2226  1.7976
10735TIP3   OH253619   5.176   2.227  15.766 -0.0180  0.0215  0.3993
10735TIP3    H153620   5.160   2.163  15.836  0.2896 -0.6471 -0.1402
10735TIP3    H253621   5.263   2.263  15.786  0.3504 -0.6359  0.0093
10736TIP3   OH253622   3.940   1.161   2.897 -0.2652 -0.4416 -0.0603
10736TIP3    H153623   3.959   1.084   2.844  0.6383  0.0944 -0.5217
10736TIP3    H253624   3.979   1.234   2.848  1.1712 -0.0210  1.6746
10737TIP3   OH253625   3.478   1.969  16.318  0.2217  0.0668  0.3290
10737TIP3    H153626   3.388   1.970  16.352  0.4034  0.5055  0.8144
10737TIP3    H253627   3.519   2.047  16.357  0.6554  0.1719 -0.3233
10738TIP3   OH253628   5.582   3.712  12.172  0.1708 -0.2432  0.2561
10738TIP3    H153629   5.606   3.623  12.147 -0.5284 -0.7339  1.2763
10738TIP3    H253630   5.662   3.749  12.208  0.5031 -0.4004 -0.3103
10739TIP3   OH253631   5.259   1.372  13.869 -0.1176  0.1497 -0.0905
10739TIP3    H153632   5.169   1.382  13.838 -0.2441  1.4378  0.6517
10739TIP3    H253633   5.312   1.362  13.790 -1.0306 -1.6065 -0.4917
10740TIP3   OH253634   3.813   4.799  17.017 -0.0102  0.4202  0.0875
10740TIP3    H153635   3.760   4.868  17.056  1.2527  2.1024 -1.0688
10740TIP3    H253636   3.854   4.755  17.091  0.7656  2.2514  0.7844
10741TIP3   OH253637   3.703   2.715   2.674  0.2600  0.5126  0.2146
10741TIP3    H153638   3.692   2.804   2.708 -2.5489  0.1169  0.4549
10741TIP3    H253639   3.710   2.660   2.753 -0.2715  0.2801  0.1049
10742TIP3   OH253640   2.779   4.409  16.858  0.1033 -0.0065 -0.2976
10742TIP3    H153641   2.718   4.436  16.790 -0.7621  1.6155  1.0693
10742TIP3    H253642   2.860   4.454  16.836 -0.7570  2.1939  0.8400
10743TIP3   OH253643   1.882   3.723   5.684 -0.2461  0.1272 -0.1045
10743TIP3    H153644   1.922   3.794   5.634  0.5144  0.0441  0.3741
10743TIP3    H253645   1.920   3.731   5.771  1.2062 -1.9146 -0.5076
10744TIP3   OH253646   1.981   0.279   6.688  0.6509 -0.2184 -0.4162
10744TIP3    H153647   1.930   0.248   6.763  0.5870 -1.0048 -0.7837
10744TIP3    H253648   2.025   0.357   6.721 -0.5899  0.3313 -0.0194
10745TIP3   OH253649   3.464   0.678   4.248  0.3742  0.0624 -0.2567
10745TIP3    H153650   3.495   0.701   4.335 -2.2319 -1.0374  1.0175
10745TIP3    H253651   3.378   0.721   4.241  0.1051 -0.6881 -1.8949
10746TIP3   OH253652   0.262   1.224  13.758  0.8089 -0.4237 -0.3262
10746TIP3    H153653   0.199   1.182  13.818 -2.0806 -0.6550 -3.4058
10746TIP3    H253654   0.298   1.297  13.809 -0.9752 -1.0670  1.9554
10747TIP3   OH253655   6.192   1.096   4.390  0.6545  0.4996  0.4539
10747TIP3    H153656   6.210   1.121   4.300 -1.4532  0.3226 -0.0416
10747TIP3    H253657   6.173   1.179   4.434  1.9271  0.6135  0.8163
10748TIP3   OH253658   4.779   3.430  16.302 -0.1832  0.7820  0.5748
10748TIP3    H153659   4.753   3.363  16.240  0.4101  1.4825 -0.4414
10748TIP3    H253660   4.856   3.394  16.346 -0.5601  0.3163  0.8537
10749TIP3   OH253661   2.084   2.691  12.941  0.3147 -0.0850  0.3936
10749TIP3    H153662   2.103   2.635  12.865 -2.7106  1.3404 -1.5347
10749TIP3    H253663   2.118   2.777  12.916  2.4243 -0.3516  2.1740
10750TIP3   OH253664   4.692   3.890  13.539 -0.7926 -0.4580  0.1741
10750TIP3    H153665   4.741   3.867  13.618 -0.1802  0.1725 -0.0233
10750TIP3    H253666   4.716   3.822  13.476 -1.0040 -0.7579  0.4172
10751TIP3   OH253667   5.692   2.051   4.882  0.0114  0.3752  0.0397
10751TIP3    H153668   5.699   2.137   4.923 -2.0599  0.3730  0.4443
10751TIP3    H253669   5.685   2.069   4.788  1.2050  0.5490 -0.0250
10752TIP3   OH253670   4.318   2.395  10.625  0.0533  0.8856  0.5252
10752TIP3    H153671   4.261   2.341  10.570 -0.6865  2.1332  0.0486
10752TIP3    H253672   4.297   2.370  10.715 -0.7108  0.8033  0.3251
10753TIP3   OH253673   5.387   6.256  15.068  0.7101 -0.1745  0.1498
10753TIP3    H153674   5.454   6.288  15.007 -0.7711  2.7465 -0.0640
10753TIP3    H253675   5.324   6.209  15.013 -0.1538  1.6819 -0.4885
10754TIP3   OH253676   4.720   4.998   3.496  0.7351  0.5584  0.3564
10754TIP3    H153677   4.662   4.946   3.441  1.1401 -0.4577  0.8614
10754TIP3    H253678   4.806   4.957   3.484  0.9963  0.9139  0.9991
10755TIP3   OH253679   4.649   3.856  16.317 -0.3312  0.0887 -0.3002
10755TIP3    H153680   4.560   3.849  16.281 -0.3870 -1.4383  0.0938
10755TIP3    H253681   4.702   3.799  16.260 -0.2484 -1.6248  1.4484
10756TIP3   OH253682   2.336   5.874   1.221 -0.0540  0.4178 -0.0889
10756TIP3    H153683   2.418   5.834   1.249 -0.7124 -0.3216  0.8738
10756TIP3    H253684   2.358   5.925   1.144  0.8358 -1.7899 -1.3244
10757TIP3   OH253685   0.229   4.670  16.709  0.0823 -0.1705 -0.4821
10757TIP3    H153686   0.306   4.714  16.675  0.6084 -0.8673 -0.2112
10757TIP3    H253687   0.162   4.738  16.712  0.7075  0.4600 -0.6423
10758TIP3   OH253688   0.915   4.088   4.287  0.5499  0.3560  0.2551
10758TIP3    H153689   0.941   4.007   4.242 -1.5134 -0.5561  0.6237
10758TIP3    H253690   0.954   4.080   4.374 -0.8703 -0.9867  0.8043
10759TIP3   OH253691   5.750   1.894   3.880 -0.1175  0.3787  0.1730
10759TIP3    H153692   5.736   1.987   3.862  0.7022  1.0064  2.5422
10759TIP3    H253693   5.674   1.870   3.934  0.5881  0.1589  1.0813
10760TIP3   OH253694   4.262   2.132   1.601 -0.3835 -0.3115  0.2069
10760TIP3    H153695   4.314   2.140   1.681  2.2071 -1.9788 -1.2154
10760TIP3    H253696   4.299   2.198   1.542 -0.3479 -1.0329 -0.5856
10761TIP3   OH253697   1.826   4.819  10.516 -0.3955 -0.2078  0.2482
10761TIP3    H153698   1.871   4.735  10.504 -1.3130 -0.8478  1.2055
10761TIP3    H253699   1.737   4.803  10.487  0.0254  1.1418 -1.9151
10762TIP3   OH253700   1.173   0.547   5.486  0.1877  0.7143 -0.1756
10762TIP3    H153701   1.167   0.453   5.504  0.8605  0.8413  0.7763
10762TIP3    H253702   1.238   0.554   5.416  2.5313  0.6715  1.9031
10763TIP3   OH253703   0.761   4.757  15.149  0.8759 -0.4411 -0.3097
10763TIP3    H153704   0.737   4.842  15.185  1.0949 -0.7401  0.5572
10763TIP3    H253705   0.695   4.697  15.182  1.9759 -1.0081  0.9507
10764TIP3   OH253706   1.854   2.011  12.960  0.1329 -0.0408 -0.7910
10764TIP3    H153707   1.830   2.032  13.050 -1.3572  0.6838 -1.3295
10764TIP3    H253708   1.858   1.916  12.957 -1.7817 -0.1594 -0.4172
10765TIP3   OH253709   1.445   3.956  15.717  0.1468 -0.2339 -0.6720
10765TIP3    H153710   1.350   3.957  15.704  0.3665 -1.1081 -2.5453
10765TIP3    H253711   1.457   3.982  15.808 -1.8430  0.7989 -0.6781
10766TIP3   OH253712   0.588   0.645   0.465  0.3969 -0.3494 -0.0211
10766TIP3    H153713   0.642   0.582   0.417  0.6600  1.2732 -1.9157
10766TIP3    H253714   0.636   0.661   0.546  1.7092 -0.5361 -0.7472
10767TIP3   OH253715   3.987   3.948  15.622 -0.5646  0.4000  0.6355
10767TIP3    H153716   4.070   3.969  15.581  1.3778 -0.4522  3.9371
10767TIP3    H253717   3.923   3.948  15.551  2.1657  1.5895 -1.8563
10768TIP3   OH253718   1.070   1.315  15.448 -0.1594  0.2032  0.5469
10768TIP3    H153719   1.155   1.311  15.493  0.3141  0.8442 -0.2742
10768TIP3    H253720   1.066   1.232  15.399  0.2128  0.3886  0.1999
10769TIP3   OH253721   0.344   6.190  12.351 -0.6021  0.2521  0.1316
10769TIP3    H153722   0.370   6.117  12.408  0.6855 -0.8913 -1.8364
10769TIP3    H253723   0.423   6.243  12.344 -1.0510  0.9300  0.2142
10770TIP3   OH253724   5.069   3.909   3.318 -0.1564 -0.1766  0.1833
10770TIP3    H153725   5.110   3.868   3.242  0.5190  0.2561  0.3155
10770TIP3    H253726   5.037   3.836   3.370  2.4736 -0.6228  1.2293
10771TIP3   OH253727   3.683   0.736  13.171 -0.4405  0.2560 -0.6280
10771TIP3    H153728   3.675   0.673  13.242 -2.0409 -0.1609 -1.1610
10771TIP3    H253729   3.770   0.775  13.183  0.7860 -2.4186 -0.6271
10772TIP3   OH253730   6.759   6.418  14.713  0.0947 -0.0588 -0.0983
10772TIP3    H153731   6.727   6.375  14.634  0.1669 -0.4118  0.0578
10772TIP3    H253732   6.853   6.430  14.697  1.3525 -5.2787  2.1271
10773TIP3   OH253733   3.728   0.026  12.449  0.3609  0.2282 -0.2207
10773TIP3    H153734   3.703  -0.048  12.393  1.4906 -0.5082  0.2259
10773TIP3    H253735   3.802   0.066  12.404 -0.5906  1.4375 -0.7379
10774TIP3   OH253736   2.811   5.800   4.494 -0.0449  0.1281  0.5410
10774TIP3    H153737   2.811   5.895   4.485 -1.7511  0.0012 -1.0376
10774TIP3    H253738   2.816   5.785   4.589  3.1686  1.7079  0.7157
10775TIP3   OH253739   0.143   6.647  10.735 -0.1016  0.2402  0.2270
10775TIP3    H153740   0.151   6.720  10.674 -1.5873 -0.2162 -0.5489
10775TIP3    H253741   0.086   6.584  10.690  0.0797 -0.8119  1.4243
10776TIP3   OH253742   5.715   0.655  12.794 -0.3019  0.0125 -0.5643
10776TIP3    H153743   5.767   0.663  12.874 -2.8106  0.9297  1.0431
10776TIP3    H253744   5.740   0.732  12.742  0.5629 -0.0101 -0.1845
10777TIP3   OH253745   1.765   4.867  12.359 -0.1800 -0.5847 -0.0459
10777TIP3    H153746   1.775   4.802  12.428 -0.9175 -0.2914  0.3425
10777TIP3    H253747   1.793   4.823  12.279 -0.9414 -1.4527  0.1711
10778TIP3   OH253748   2.879   2.699  13.188  0.1074  0.4155 -0.0912
10778TIP3    H153749   2.883   2.670  13.097  2.0959  2.5224 -0.7173
10778TIP3    H253750   2.901   2.621  13.239 -2.1997 -1.0931 -1.3273
10779TIP3   OH253751   0.231   5.947  13.901  0.1631 -0.8030  0.0642
10779TIP3    H153752   0.146   5.904  13.904  0.8642 -2.3577 -1.3879
10779TIP3    H253753   0.211   6.039  13.887 -1.3049 -0.9738  0.9107
10780TIP3   OH253754   5.125   5.585   2.895  0.2630  0.0540  0.7014
10780TIP3    H153755   5.181   5.619   2.826  0.1072  0.6294  0.8542
10780TIP3    H253756   5.084   5.663   2.933 -0.6821 -0.3644  0.5509
10781TIP3   OH253757   4.503   4.411   5.629 -0.8043  0.0944  0.6720
10781TIP3    H153758   4.506   4.415   5.725 -0.7480 -0.4132  0.6969
10781TIP3    H253759   4.450   4.333   5.611 -1.3019  0.5152  0.2858
10782TIP3   OH253760   2.899   6.023  15.834 -0.7967 -0.5293 -0.4341
10782TIP3    H153761   2.892   5.971  15.754  0.7143  0.2208 -1.0670
10782TIP3    H253762   2.826   6.085  15.829  1.1920  1.7406 -2.9054
10783TIP3   OH253763   3.491   5.877  11.408 -0.2260  0.1496 -0.4169
10783TIP3    H153764   3.563   5.828  11.448  0.2063  1.2070  0.1395
10783TIP3    H253765   3.414   5.821  11.418  0.0180  0.0867  1.3018
10784TIP3   OH253766   2.733   0.034  12.141  0.4681  1.4729  0.8299
10784TIP3    H153767   2.777   0.052  12.058 -1.0648  0.8873 -0.1272
10784TIP3    H253768   2.792   0.069  12.207  3.0302 -0.4663 -0.3215
10785TIP3   OH253769   2.700   6.250   3.200 -0.3835  0.4089 -0.4328
10785TIP3    H153770   2.652   6.333   3.208  0.5626  0.7864  1.4981
10785TIP3    H253771   2.675   6.200   3.277  0.7776 -0.2030 -0.4451
10786TIP3   OH253772   1.667   3.163   2.879  0.1614 -0.1618 -0.0453
10786TIP3    H153773   1.660   3.191   2.970  0.1240  0.6285 -0.2854
10786TIP3    H253774   1.592   3.105   2.866 -0.8630  1.1434 -0.0712
10787TIP3   OH253775   0.080   3.708  11.511 -0.0842  0.0155  0.6400
10787TIP3    H153776   0.130   3.784  11.539  0.1766  0.0381  0.1293
10787TIP3    H253777   0.131   3.671  11.439 -1.1050  0.4038 -0.3018
10788TIP3   OH253778   1.408   3.209   1.391  0.0051 -0.0032  0.2598
10788TIP3    H153779   1.448   3.123   1.379 -1.3114 -0.9212  2.2148
10788TIP3    H253780   1.360   3.224   1.309  1.3455 -0.4988 -0.6339
10789TIP3   OH253781   1.399   0.813   4.788 -0.1122  0.1295  0.1968
10789TIP3    H153782   1.313   0.805   4.748 -0.6628  0.5106  1.2950
10789TIP3    H253783   1.457   0.765   4.729 -1.3938 -1.8132  0.4551
10790TIP3   OH253784   4.992   2.814   5.259  0.9015  0.5461  0.3505
10790TIP3    H153785   4.910   2.835   5.303 -0.7257  0.6951 -2.6476
10790TIP3    H253786   5.052   2.789   5.330 -1.4798  1.1824  2.6392
10791TIP3   OH253787   3.971   0.071  12.325 -0.2119 -0.3297  0.4648
10791TIP3    H153788   3.957   0.166  12.319 -1.9499 -0.4986  1.4343
10791TIP3    H253789   4.061   0.062  12.356  0.0109  0.9967  0.2536
10792TIP3   OH253790   0.418   3.082  13.512 -0.1096 -0.5313 -0.3486
10792TIP3    H153791   0.359   3.041  13.450 -0.8975 -0.7118  0.5042
10792TIP3    H253792   0.499   3.030  13.506 -0.6557 -1.4101 -0.2122
10793TIP3   OH253793   4.972   5.532  12.659  0.1499 -0.3046  0.6380
10793TIP3    H153794   5.032   5.501  12.727  0.9358 -1.4494 -0.5563
10793TIP3    H253795   4.987   5.627  12.655  1.1608 -0.4452  1.0238
10794TIP3   OH253796   5.143   2.709  16.413 -0.5071  0.2472  0.8976
10794TIP3    H153797   5.227   2.756  16.411 -0.3551 -0.0422 -0.1070
10794TIP3    H253798   5.119   2.702  16.320  0.0300 -2.6823  0.9505
10795TIP3   OH253799   2.692   4.401  12.122  0.4057  0.4251  0.2116
10795TIP3    H153800   2.716   4.324  12.172  1.1738 -0.0760 -0.9052
10795TIP3    H253801   2.671   4.367  12.035 -0.1559  1.3672 -0.0301
10796TIP3   OH253802   5.033   0.745   1.689 -0.2511 -0.6962  0.2572
10796TIP3    H153803   5.063   0.831   1.659 -0.5876 -1.7082 -3.1355
10796TIP3    H253804   4.938   0.753   1.695 -0.3151 -0.9588 -0.4418
10797TIP3   OH253805   1.999   0.907   2.141  0.0252 -0.6419  0.1204
10797TIP3    H153806   1.942   0.968   2.189 -2.2742 -2.8446  0.2888
10797TIP3    H253807   2.077   0.959   2.121  0.9572  0.5433  5.9048
10798TIP3   OH253808   5.146   6.092   3.027  0.3040 -0.2509  0.2521
10798TIP3    H153809   5.117   6.182   3.039  0.3952 -0.3774  1.4358
10798TIP3    H253810   5.234   6.089   3.064 -0.0540 -1.0470  1.0651
10799TIP3   OH253811   4.987   3.604   5.875 -0.0836  0.3688 -0.0789
10799TIP3    H153812   5.072   3.592   5.916  0.5578  2.5344 -0.6853
10799TIP3    H253813   4.927   3.551   5.927  1.8087 -2.1300 -0.3660
10800TIP3   OH253814   1.081   5.789   3.917 -0.4062  0.3584  0.2066
10800TIP3    H153815   0.996   5.761   3.949  0.0001  0.2926  1.2599
10800TIP3    H253816   1.144   5.731   3.961  0.1524  0.1335 -0.8758
10801TIP3   OH253817   3.160   3.234   4.702  0.5498  0.1231  0.3994
10801TIP3    H153818   3.082   3.275   4.664  1.0551  0.8795  0.1716
10801TIP3    H253819   3.167   3.273   4.790  2.1594  2.0406 -0.5427
10802TIP3   OH253820   4.802   2.122   5.452  0.5492  0.6780 -0.0800
10802TIP3    H153821   4.783   2.047   5.508  1.8044  0.3469 -0.0841
10802TIP3    H253822   4.734   2.185   5.473 -0.1107 -0.1971  0.4292
10803TIP3   OH253823   4.573   3.687   6.497 -0.5083 -0.4729 -0.3029
10803TIP3    H153824   4.537   3.757   6.551  0.0338 -0.5653  0.1938
10803TIP3    H253825   4.615   3.732   6.424 -1.5480 -0.3639 -0.8380
10804TIP3   OH253826   0.174   5.251  17.074 -0.1119  0.2299 -0.2084
10804TIP3    H153827   0.171   5.239  16.979 -0.0832 -0.3208 -0.1365
10804TIP3    H253828   0.257   5.295  17.090  1.5453 -2.8226 -0.0834
10805TIP3   OH253829   4.165   4.197   2.705  0.2601 -0.1319 -0.2864
10805TIP3    H153830   4.227   4.224   2.772  0.5590  0.2646 -0.7244
10805TIP3    H253831   4.211   4.130   2.655  0.0180 -0.4666 -0.0638
10806TIP3   OH253832   1.368   0.676   3.538  0.6416  0.1193  0.2601
10806TIP3    H153833   1.301   0.729   3.581 -0.4518 -1.4081  0.4568
10806TIP3    H253834   1.437   0.667   3.604  0.0314 -0.2095  0.8608
10807TIP3   OH253835   5.742   5.389   5.131 -0.5108 -0.1157  0.2235
10807TIP3    H153836   5.833   5.366   5.109 -0.2367 -2.0561  3.0557
10807TIP3    H253837   5.738   5.380   5.226 -3.7427 -0.2476  0.1224
10808TIP3   OH253838   5.387   2.334  16.752 -0.1793 -0.2622  0.3263
10808TIP3    H153839   5.386   2.275  16.677  0.3296  0.5077 -0.3041
10808TIP3    H253840   5.380   2.422  16.713  1.7246  0.2363  1.0710
10809TIP3   OH253841   2.734   5.704  12.343 -0.1186  0.2760 -0.7583
10809TIP3    H153842   2.811   5.660  12.380  0.3567 -0.4587 -2.5715
10809TIP3    H253843   2.752   5.709  12.250 -1.1074  2.5116 -0.8516
10810TIP3   OH253844   3.079   2.239  12.146  0.1054  0.5621 -0.1647
10810TIP3    H153845   3.035   2.322  12.128 -0.1071  0.8479  1.6008
10810TIP3    H253846   3.085   2.235  12.241  1.4513 -0.7601 -0.2825
10811TIP3   OH253847   6.386   2.908   2.367  0.0414 -0.1702 -0.3384
10811TIP3    H153848   6.400   2.825   2.412 -0.6948 -0.9879 -1.5993
10811TIP3    H253849   6.367   2.970   2.437 -0.9163 -1.3917  0.5074
10812TIP3   OH253850   4.447   1.303  14.600  0.0934 -0.1835  0.1290
10812TIP3    H153851   4.472   1.214  14.575  1.1016  0.7741 -2.4612
10812TIP3    H253852   4.365   1.292  14.649  0.9829 -2.6396  1.1614
10813TIP3   OH253853   4.013   5.212   3.532  0.4520  0.0198  0.0199
10813TIP3    H153854   3.919   5.198   3.540  0.4094  0.2319 -0.0919
10813TIP3    H253855   4.034   5.183   3.443  0.0313  2.3855 -0.9073
10814TIP3   OH253856   6.684   6.699   3.678 -0.0582 -0.2120  0.0291
10814TIP3    H153857   6.652   6.669   3.763 -2.8168 -0.2442 -1.0040
10814TIP3    H253858   6.644   6.641   3.615 -1.5394  2.5102 -1.6290
10815TIP3   OH253859   3.981   6.467   3.917  0.5411  0.3278  0.1861
10815TIP3    H153860   4.076   6.482   3.916  0.3283  1.7710 -0.5529
10815TIP3    H253861   3.948   6.535   3.976 -0.1191  0.4868 -0.3636
10816TIP3   OH253862   1.803   3.501  12.585  0.7281 -0.4095 -0.0353
10816TIP3    H153863   1.759   3.515  12.669  0.2344 -0.4342 -0.2827
10816TIP3    H253864   1.878   3.560  12.587 -0.7777  1.5765 -0.6739
10817TIP3   OH253865   4.271   1.872  13.690 -0.2459 -0.6203 -0.1196
10817TIP3    H153866   4.261   1.835  13.602 -0.7710  0.2063 -0.4144
10817TIP3    H253867   4.181   1.894  13.717  0.0802  0.6485 -0.0452
10818TIP3   OH253868   3.931   1.634   4.770  0.0419  0.8275 -0.1741
10818TIP3    H153869   3.971   1.721   4.769 -1.2436  1.4271 -1.3228
10818TIP3    H253870   3.844   1.647   4.730 -1.2408 -0.4717  2.1080
10819TIP3   OH253871   4.507   5.439  10.713 -0.0606 -0.4083  0.2548
10819TIP3    H153872   4.510   5.353  10.670 -0.0327 -0.3259  0.0938
10819TIP3    H253873   4.592   5.479  10.692 -0.6801  0.2914 -0.9488
10820TIP3   OH253874   4.106   0.133   0.280 -0.0305  0.4904  0.1664
10820TIP3    H153875   4.183   0.118   0.225  1.6903  0.2960  2.5349
10820TIP3    H253876   4.108   0.061   0.344 -0.2718  2.3452  2.3193
10821TIP3   OH253877   3.388   0.480  13.743  0.2735 -0.1581  0.4036
10821TIP3    H153878   3.426   0.399  13.708  1.6398  0.2522  0.9159
10821TIP3    H253879   3.446   0.549  13.710 -0.1036  0.4841  1.0924
10822TIP3   OH253880   4.658   5.141  15.871 -0.3887 -0.0215 -0.4115
10822TIP3    H153881   4.731   5.172  15.817 -0.5187  2.1524  0.5856
10822TIP3    H253882   4.598   5.100  15.808  2.2594 -3.0685 -1.0692
10823TIP3   OH253883   4.986   4.602   5.393  0.5922  0.0373 -0.0274
10823TIP3    H153884   4.973   4.697   5.385 -0.4516  0.0068  1.2900
10823TIP3    H253885   4.919   4.573   5.454  0.9129 -1.5667 -0.4141
10824TIP3   OH253886   2.118   2.882  10.716  0.1672 -0.1455 -0.2523
10824TIP3    H153887   2.077   2.805  10.674 -0.2992  0.9410 -1.8348
10824TIP3    H253888   2.089   2.956  10.663 -2.2253  1.5692  3.3144
10825TIP3   OH253889   3.815   3.264   5.867  0.5100  0.3130  0.2519
10825TIP3    H153890   3.763   3.265   5.947  1.4378  2.1858  0.8545
10825TIP3    H253891   3.751   3.249   5.797 -0.6483  1.2471  1.0989
10826TIP3   OH253892   4.156   6.204   4.293  1.0009  0.6687 -0.1510
10826TIP3    H153893   4.149   6.287   4.340 -0.9523 -0.7479  2.1613
10826TIP3    H253894   4.086   6.208   4.227  0.6659  0.7092  0.2042
10827TIP3   OH253895   3.316   6.450  16.296  0.4355  0.1508 -0.2797
10827TIP3    H153896   3.392   6.414  16.341 -0.6886 -1.3951  0.4413
10827TIP3    H253897   3.351   6.517  16.238  2.2575 -0.0662  0.5585
10828TIP3   OH253898   0.902   4.780  12.103 -0.0438 -0.0284 -0.8043
10828TIP3    H153899   0.988   4.816  12.126 -0.3293 -0.4900  1.0154
10828TIP3    H253900   0.910   4.686  12.119 -1.3458  0.1259  0.8053
10829TIP3   OH253901   0.444   1.772  12.367  0.4179  0.4182  0.6703
10829TIP3    H153902   0.451   1.782  12.462 -0.2384 -0.4147  0.8053
10829TIP3    H253903   0.354   1.796  12.346 -0.5637 -2.9608  0.7416
10830TIP3   OH253904   5.577   3.870  14.779  0.3448  0.1704 -0.0500
10830TIP3    H153905   5.621   3.822  14.710 -0.7529  0.1559 -0.7461
10830TIP3    H253906   5.528   3.939  14.734  0.7201  1.0342  0.8172
10831TIP3   OH253907   3.856   2.023  16.459  0.5441  0.4432 -0.2817
10831TIP3    H153908   3.948   2.000  16.446  0.3049  0.0988 -1.3786
10831TIP3    H253909   3.816   1.944  16.494  0.4612  0.2955 -0.7121
10832TIP3   OH253910   5.364   5.349   4.027 -0.4002  0.2592 -0.1730
10832TIP3    H153911   5.359   5.438   3.992  0.4767  0.6886  0.7696
10832TIP3    H253912   5.311   5.351   4.106 -0.2313 -0.0151 -0.0502
10833TIP3   OH253913   2.331   6.359  14.098 -0.2352  0.1298 -0.4072
10833TIP3    H153914   2.293   6.288  14.046 -0.0181  1.7228 -2.8775
10833TIP3    H253915   2.414   6.378  14.054  0.4915  0.7935  1.2327
10834TIP3   OH253916   2.042   3.748   6.335 -0.1423 -0.2656  0.1543
10834TIP3    H153917   2.135   3.756   6.355 -0.1706  0.9374 -0.1364
10834TIP3    H253918   2.035   3.776   6.243 -0.9636  1.0130  0.5803
10835TIP3   OH253919   2.806   3.999  14.579 -0.1565  0.0925 -0.3390
10835TIP3    H153920   2.770   3.933  14.520 -1.1681  2.1302 -2.0707
10835TIP3    H253921   2.871   4.045  14.526  1.2673 -0.1392  1.1554
10836TIP3   OH253922   5.251   1.289  14.148  0.3333 -0.9066 -0.3604
10836TIP3    H153923   5.205   1.205  14.143  1.6759 -1.6543 -0.4659
10836TIP3    H253924   5.247   1.323  14.058 -1.8110  0.0330  0.0688
10837TIP3   OH253925   1.132   1.852  14.473  0.1796 -0.2470  0.1259
10837TIP3    H153926   1.126   1.810  14.559 -3.8364  0.4009  0.2535
10837TIP3    H253927   1.189   1.927  14.487  1.5703 -1.5293  1.5970
10838TIP3   OH253928   6.234   5.174  12.854 -0.1946 -0.9441 -0.8106
10838TIP3    H153929   6.186   5.101  12.817 -0.6145 -0.8005 -0.5560
10838TIP3    H253930   6.323   5.164  12.821 -0.9156  0.0671 -3.1061
10839TIP3   OH253931   2.309   3.999  14.018  0.3056 -0.4774 -0.5089
10839TIP3    H153932   2.390   4.042  14.043 -1.1493  1.6553  0.7415
10839TIP3    H253933   2.313   3.992  13.922  2.5406 -1.6754 -0.3441
10840TIP3   OH253934   0.429   3.974  12.592  0.1915  0.4916  0.3918
10840TIP3    H153935   0.505   3.917  12.589 -2.1069 -2.7073  0.9928
10840TIP3    H253936   0.425   4.003  12.684  0.1601 -0.0742  0.5703
10841TIP3   OH253937   4.415   6.628  10.284 -0.1190  0.2998 -0.3939
10841TIP3    H153938   4.473   6.564  10.242  1.2885  1.1868  0.1578
10841TIP3    H253939   4.442   6.627  10.376 -0.6054  1.1286 -0.2385
10842TIP3   OH253940   3.229   0.403   1.220  0.3287  0.2397  0.0132
10842TIP3    H153941   3.311   0.384   1.266  0.5232  0.9577 -0.0396
10842TIP3    H253942   3.241   0.490   1.183 -0.8731  0.8286  0.9551
10843TIP3   OH253943   6.558   3.504  17.006 -0.0499 -0.4186  0.1763
10843TIP3    H153944   6.546   3.451  17.085  0.3266  0.8904  1.1389
10843TIP3    H253945   6.575   3.441  16.936  1.8307 -1.4942  1.5668
10844TIP3   OH253946   3.282   5.733   0.806 -0.1294 -0.3642 -0.0836
10844TIP3    H153947   3.292   5.826   0.827 -0.0959 -0.4760  0.3931
10844TIP3    H253948   3.315   5.725   0.716 -0.3695  0.1291 -0.2195
10845TIP3   OH253949   2.097   3.609   2.324  0.4330 -0.4630 -0.4268
10845TIP3    H153950   2.144   3.602   2.241 -0.2598  0.3073 -0.8888
10845TIP3    H253951   2.012   3.645   2.300 -0.9893 -3.2651  0.2050
10846TIP3   OH253952   0.223   5.313  12.855  0.4421  0.3041 -0.1644
10846TIP3    H153953   0.270   5.385  12.897  0.5871  1.5013 -2.3138
10846TIP3    H253954   0.286   5.277  12.792 -0.0382 -0.9508  0.0523
10847TIP3   OH253955   6.617   2.649  15.534  0.5122  0.1818 -0.3781
10847TIP3    H153956   6.705   2.626  15.507  0.5664 -0.1172  0.0542
10847TIP3    H253957   6.599   2.593  15.609 -1.3088 -2.1349 -2.4920
10848TIP3   OH253958   6.502   0.827   5.228  0.6081 -0.0369  0.2950
10848TIP3    H153959   6.587   0.821   5.184 -0.1910 -3.3449 -0.9699
10848TIP3    H253960   6.459   0.902   5.187  0.6114 -1.9244 -3.4438
10849TIP3   OH253961   2.831   1.222  11.877 -0.1357  0.0463  0.2716
10849TIP3    H153962   2.859   1.256  11.792 -0.2257  0.9492  0.5988
10849TIP3    H253963   2.893   1.259  11.940 -0.7436  0.2880  0.7332
10850TIP3   OH253964   1.074   3.200   0.167  0.2661  0.3329 -0.7890
10850TIP3    H153965   1.041   3.154   0.244  1.8767  1.1809  0.4080
10850TIP3    H253966   1.122   3.134   0.118 -0.9898 -0.2739 -1.2431
10851TIP3   OH253967   3.507   2.769  15.429  0.1185  0.0936 -0.4458
10851TIP3    H153968   3.594   2.737  15.453 -0.0425  0.2868  0.4051
10851TIP3    H253969   3.507   2.861  15.456  0.3533  0.6632 -2.2800
10852TIP3   OH253970   1.245   3.426  11.400 -0.0236  0.0224 -1.1061
10852TIP3    H153971   1.285   3.362  11.341 -1.7445  0.0932 -2.3747
10852TIP3    H253972   1.304   3.502  11.397  2.6635 -1.8406  1.3015
10853TIP3   OH253973   1.691   1.241  12.136  0.0983  0.1518 -0.3748
10853TIP3    H153974   1.608   1.237  12.087  0.5136  0.8453 -1.1418
10853TIP3    H253975   1.711   1.334  12.142  1.1341 -0.0377 -0.7316
10854TIP3   OH253976   1.392   0.563  16.293  0.4862  0.4634 -0.0388
10854TIP3    H153977   1.301   0.534  16.284  0.8194 -0.0007 -2.2270
10854TIP3    H253978   1.428   0.508  16.363 -0.8020  0.3778  0.5721
10855TIP3   OH253979   5.642   4.415   2.767  0.4389 -0.0285 -0.2596
10855TIP3    H153980   5.607   4.499   2.739 -1.4204  0.0676  2.1538
10855TIP3    H253981   5.631   4.357   2.692 -0.4614  1.2712 -1.1445
10856TIP3   OH253982   4.037   1.434  13.912 -0.4377 -0.3058 -0.4805
10856TIP3    H153983   4.116   1.465  13.956  0.1411 -0.6960 -1.2374
10856TIP3    H253984   4.032   1.485  13.831 -3.0881  2.5015  1.3364
10857TIP3   OH253985   1.831   5.865   0.824 -0.2862  0.1415  0.3918
10857TIP3    H153986   1.906   5.819   0.862 -0.7053  0.5772  1.7798
10857TIP3    H253987   1.758   5.803   0.832  0.0287 -0.4956 -1.4622
10858TIP3   OH253988   2.659   1.177   4.949 -0.3025  0.4464  0.4579
10858TIP3    H153989   2.711   1.250   4.916  0.7971 -0.1853  0.7730
10858TIP3    H253990   2.722   1.107   4.962 -1.3140 -0.4934  0.3782
10859TIP3   OH253991   1.305   0.286   1.131 -0.5829 -0.2954  0.0921
10859TIP3    H153992   1.393   0.317   1.154 -0.7082  0.2510 -0.1467
10859TIP3    H253993   1.320   0.210   1.075 -0.2712 -0.9603  1.0632
10860TIP3   OH253994   1.316   2.234  13.607  0.0673 -0.1586  0.1392
10860TIP3    H153995   1.272   2.309  13.566  0.4132 -1.1579 -2.1465
10860TIP3    H253996   1.262   2.159  13.584  0.7761 -0.8604  0.7404
10861TIP3   OH253997   0.763   0.743  13.727  0.2225 -0.2211  0.3511
10861TIP3    H153998   0.678   0.788  13.725  1.0114  1.3475  1.3726
10861TIP3    H253999   0.742   0.654  13.755 -1.3879 -0.5770 -1.8271
10862TIP3   OH254000   0.063   3.787  13.773  0.0732  0.0240 -0.4416
10862TIP3    H154001   0.004   3.787  13.698  0.9250  1.0872 -1.1163
10862TIP3    H254002   0.064   3.696  13.803 -0.1244 -0.4399 -1.8217
10863TIP3   OH254003   2.266   0.100  14.853  0.0947 -0.1668 -0.5910
10863TIP3    H154004   2.304   0.187  14.838  0.7134  0.1302  2.5053
10863TIP3    H254005   2.342   0.041  14.852 -0.1125 -0.4298 -0.8385
10864TIP3   OH254006   0.242   2.351   4.087 -0.2970  0.3878 -0.1222
10864TIP3    H154007   0.210   2.324   4.173 -2.9791  0.2681 -1.1024
10864TIP3    H254008   0.199   2.291   4.026  2.2279 -0.0717 -1.5087
10865TIP3   OH254009   1.706   4.831  13.959 -0.2821  0.5318 -0.5896
10865TIP3    H154010   1.683   4.751  14.005 -0.4693  0.7072 -0.3813
10865TIP3    H254011   1.739   4.801  13.874  1.2471  0.1334  0.1239
10866TIP3   OH254012   3.620   0.290  11.810  1.0484  0.0398 -0.1392
10866TIP3    H154013   3.616   0.283  11.714  0.8447  0.5689 -0.1707
10866TIP3    H254014   3.587   0.206  11.841 -0.7579  0.5913 -0.5216
10867TIP3   OH254015   3.450   2.184  13.716  0.1686 -0.6101 -0.4057
10867TIP3    H154016   3.459   2.091  13.734 -1.6059 -0.6287  0.5457
10867TIP3    H254017   3.410   2.220  13.795 -0.8558  0.6186 -1.4511
10868TIP3   OH254018   5.591   1.380  14.172 -0.0570  0.0249 -0.2472
10868TIP3    H154019   5.574   1.452  14.112  2.3147 -0.5650 -1.6755
10868TIP3    H254020   5.681   1.393  14.202 -1.0791  0.1359  2.9996
10869TIP3   OH254021   5.669   3.980  16.353  0.8116  0.5384 -0.1558
10869TIP3    H154022   5.616   4.010  16.427  1.4631  0.0067  0.5339
10869TIP3    H254023   5.673   3.885  16.364  3.5816  0.7316  0.9721
10870TIP3   OH254024   1.499   2.536  16.207 -0.2548  0.1062 -0.4096
10870TIP3    H154025   1.522   2.527  16.299 -0.8408  0.4351 -0.2284
10870TIP3    H254026   1.429   2.473  16.193  0.4780 -0.6191 -0.8644
10871TIP3   OH254027   4.729   0.736   0.104  0.1096 -0.3400 -0.5153
10871TIP3    H154028   4.644   0.714   0.143  0.2713 -0.9593 -0.5175
10871TIP3    H254029   4.711   0.745   0.011 -0.2106  0.8105 -0.3601
10872TIP3   OH254030   4.028   4.162   0.393  0.3346  0.2529  0.0774
10872TIP3    H154031   3.966   4.210   0.338 -0.4059 -0.5575  0.1883
10872TIP3    H254032   4.107   4.153   0.339 -0.0465  0.3026 -0.4963
10873TIP3   OH254033   6.276   4.612  15.062  0.5309  0.3727 -0.3450
10873TIP3    H154034   6.200   4.553  15.064 -0.1326  1.2590  1.8180
10873TIP3    H254035   6.253   4.678  14.996 -0.3716  0.3780 -0.0334
10874TIP3   OH254036   1.033   6.619   0.232  0.3376  0.0466  0.6555
10874TIP3    H154037   1.084   6.544   0.201 -2.5871 -2.2526  1.2461
10874TIP3    H254038   0.977   6.642   0.159  1.3216  1.8299  0.4201
10875TIP3   OH254039   1.765   0.321  13.930  0.0407  0.3018  0.4004
10875TIP3    H154040   1.751   0.240  13.881 -1.4432  0.2273  0.9249
10875TIP3    H254041   1.807   0.380  13.867  0.3613 -0.5888 -0.2304
10876TIP3   OH254042   5.324   0.043  13.824 -0.1656  0.1573  0.7014
10876TIP3    H154043   5.379   0.098  13.769  1.8447 -2.1014  0.3430
10876TIP3    H254044   5.236   0.055  13.789  0.5209  1.6486 -0.5794
10877TIP3   OH254045   5.240   0.178  16.828 -0.2857 -0.1679  0.0753
10877TIP3    H154046   5.274   0.176  16.918 -1.2496  1.7500  0.5104
10877TIP3    H254047   5.296   0.118  16.780  2.9882  1.9939  1.0187
10878TIP3   OH254048   3.204   2.000  14.148 -0.1196 -0.1789  0.0389
10878TIP3    H154049   3.248   2.069  14.198 -1.4099  1.0343 -0.4514
10878TIP3    H254050   3.138   1.965  14.209  0.1555 -0.5913  0.1000
10879TIP3   OH254051   5.390   2.782   6.125  0.8076  0.7147  0.1153
10879TIP3    H154052   5.384   2.802   6.218 -1.8888  0.7779 -0.0339
10879TIP3    H254053   5.474   2.737   6.115  1.0738  0.6124  2.5722
10880TIP3   OH254054   6.293   3.463   3.910 -0.5496  0.2272 -0.3514
10880TIP3    H154055   6.320   3.539   3.858 -0.2776  1.7239  1.9057
10880TIP3    H254056   6.207   3.487   3.944  0.2352  0.2106  1.6757
10881TIP3   OH254057   2.085   3.102  16.307 -0.1152 -0.4683  0.1045
10881TIP3    H154058   2.116   3.169  16.246 -0.3844 -1.5715 -1.2562
10881TIP3    H254059   2.165   3.058  16.336  0.1993  1.2096  1.9886
10882TIP3   OH254060   6.154   5.480  15.468 -0.1556 -0.3501 -0.1862
10882TIP3    H154061   6.157   5.420  15.394  0.6342  0.5653 -0.8982
10882TIP3    H254062   6.067   5.519  15.463  1.0203  2.0992 -2.5581
10883TIP3   OH254063   6.472   6.500   1.606  0.1151  0.0316 -0.1738
10883TIP3    H154064   6.525   6.427   1.575 -0.0651 -0.6663  1.1063
10883TIP3    H254065   6.536   6.568   1.628  0.3276  0.0331 -0.8047
10884TIP3   OH254066   2.731   1.240  12.487 -0.2154 -0.5939 -0.0992
10884TIP3    H154067   2.676   1.304  12.442  1.5671 -0.4005 -2.0936
10884TIP3    H254068   2.730   1.266  12.579 -0.8455  1.3030 -0.6338
10885TIP3   OH254069   4.268   4.472  15.821  0.3265  0.2093  0.6302
10885TIP3    H154070   4.267   4.567  15.829  0.3537  0.3955 -1.4390
10885TIP3    H254071   4.181   4.449  15.789 -0.1337 -0.6116  2.3745
10886TIP3   OH254072   4.380   0.069  13.475 -0.8848  0.3208  0.3084
10886TIP3    H154073   4.346   0.012  13.544  0.1877  0.1763  0.7197
10886TIP3    H254074   4.418   0.009  13.411 -3.1233  0.3639 -1.1173
10887TIP3   OH254075   0.891   1.338  14.120 -0.0195 -0.2378 -0.1082
10887TIP3    H154076   0.821   1.383  14.074  1.1733 -0.1387 -1.8837
10887TIP3    H254077   0.894   1.250  14.081 -0.0566 -0.7097  0.9201
10888TIP3   OH254078   1.695   5.399  13.434  0.0519  0.4116 -0.1077
10888TIP3    H154079   1.735   5.316  13.458 -0.7231  0.5081  1.6406
10888TIP3    H254080   1.731   5.462  13.497  1.0094  1.5039 -1.7289
10889TIP3   OH254081   4.864   5.855  12.732  0.1636 -0.2355  0.1250
10889TIP3    H154082   4.834   5.842  12.642 -1.0555 -0.0318  0.4891
10889TIP3    H254083   4.907   5.940  12.731  0.0946 -0.2034 -0.2490
10890TIP3   OH254084   4.904   2.513  10.713 -0.0095 -0.1286 -0.1738
10890TIP3    H154085   4.926   2.475  10.628  1.6178  0.2211  0.0569
10890TIP3    H254086   4.989   2.524  10.756 -0.8720 -1.2188  1.8896
10891TIP3   OH254087   3.509   5.431  16.126 -0.1895  0.4934  0.5265
10891TIP3    H154088   3.583   5.467  16.175 -0.3966 -0.5446  1.6288
10891TIP3    H254089   3.519   5.467  16.038  0.3159  2.2210  1.2604
10892TIP3   OH254090   2.427   6.605  12.355  0.2172  0.4231 -0.4167
10892TIP3    H154091   2.503   6.604  12.413  1.3703  1.2001 -1.8940
10892TIP3    H254092   2.441   6.680  12.297 -1.0994 -0.0997 -1.4539
10893TIP3   OH254093   6.414   2.471  11.881  0.5705 -0.2448  0.6613
10893TIP3    H154094   6.366   2.484  11.800 -1.3916 -0.4315  1.7737
10893TIP3    H254095   6.486   2.413  11.857 -0.4909 -0.9941 -0.7776
10894TIP3   OH254096   3.106   0.842   1.955  0.2343 -0.4604  0.0668
10894TIP3    H154097   3.081   0.813   1.867 -0.6582 -0.9279  0.4604
10894TIP3    H254098   3.074   0.772   2.012  1.8300 -0.7143  0.6645
10895TIP3   OH254099   3.017   5.723   3.836 -0.0411  0.6781 -0.4562
10895TIP3    H154100   3.083   5.683   3.893  0.2539 -0.0832 -1.3130
10895TIP3    H254101   2.960   5.651   3.811 -0.2641  1.0349 -0.9910
10896TIP3   OH254102   3.813   5.224  10.704 -0.4019  0.7277  0.2982
10896TIP3    H154103   3.779   5.144  10.665  0.7101 -0.5194  1.8332
10896TIP3    H254104   3.850   5.272  10.630 -1.4491  0.0362 -0.7003
10897TIP3   OH254105   6.196   3.457  13.256 -0.0763 -0.0589 -0.4056
10897TIP3    H154106   6.290   3.449  13.265 -0.1280 -0.5354 -0.2876
10897TIP3    H254107   6.174   3.537  13.305  0.2940  0.1941 -0.6547
10898TIP3   OH254108   3.455   2.036  12.907 -0.0637  0.4867 -0.0567
10898TIP3    H154109   3.505   2.022  12.826 -0.2102 -2.2859  0.2821
10898TIP3    H254110   3.518   2.072  12.968  0.9601 -0.6933 -0.3838
10899TIP3   OH254111   2.239   5.941  15.723  0.1403 -0.2091  0.2056
10899TIP3    H154112   2.159   5.931  15.671 -0.3467  3.1584  0.2015
10899TIP3    H254113   2.211   5.993  15.799  2.2272  0.6580  0.4035
10900TIP3   OH254114   2.852   2.294   3.940 -0.7700  0.6775  0.2790
10900TIP3    H154115   2.796   2.368   3.962 -2.6658 -1.1066  1.5884
10900TIP3    H254116   2.817   2.259   3.859 -1.4212 -0.2888  0.9678
10901TIP3   OH254117   4.330   2.868  16.296 -0.0465  0.2940 -0.1173
10901TIP3    H154118   4.346   2.867  16.390 -1.6419 -0.0020  0.1736
10901TIP3    H254119   4.300   2.957  16.278 -1.9866 -0.2939  0.0811
10902TIP3   OH254120   6.246   1.217  15.561  0.0503  0.0969 -0.2494
10902TIP3    H154121   6.197   1.269  15.625  0.9350  1.0052 -0.3062
10902TIP3    H254122   6.215   1.250  15.476 -0.2639 -0.2931 -0.2847
10903TIP3   OH254123   5.962   0.105  15.418 -0.4368 -0.4549 -0.0637
10903TIP3    H154124   5.912   0.186  15.425 -0.5935 -0.5985  0.4718
10903TIP3    H254125   6.043   0.122  15.467  0.5443  0.1572 -1.8392
10904TIP3   OH254126   2.386   5.433   6.598  0.2648  0.4592  0.4906
10904TIP3    H154127   2.309   5.488   6.608  0.0858 -0.1766  2.8225
10904TIP3    H254128   2.356   5.345   6.619  1.5809  0.1825  1.3107
10905TIP3   OH254129   3.592   1.110   2.188 -0.4492 -0.2502  0.3288
10905TIP3    H154130   3.583   1.066   2.272 -0.9219  3.3719  2.2722
10905TIP3    H254131   3.502   1.115   2.154 -0.2456 -1.8102 -0.5102
10906TIP3   OH254132   5.469   2.979   5.184 -0.4109 -0.5236  0.3956
10906TIP3    H154133   5.413   2.905   5.206 -0.7835 -0.0490  1.0398
10906TIP3    H254134   5.418   3.029   5.120 -0.8947  0.1240  1.2817
10907TIP3   OH254135   5.348   5.317   4.635  0.0290  0.5820 -0.0004
10907TIP3    H154136   5.374   5.371   4.709 -0.9242  0.6248  0.3152
10907TIP3    H254137   5.277   5.366   4.594 -1.2378 -0.6745  0.6265
10908TIP3   OH254138   3.117   0.316  11.176 -0.3937  0.2206 -0.3384
10908TIP3    H154139   3.171   0.238  11.188 -1.2989 -0.5396 -1.2227
10908TIP3    H254140   3.177   0.389  11.194  0.5790 -0.6565  0.0011
10909TIP3   OH254141   1.796   2.709   1.725  0.1771 -0.4256  0.0326
10909TIP3    H154142   1.891   2.711   1.711 -0.0571 -0.4702 -1.7030
10909TIP3    H254143   1.765   2.641   1.665 -0.8947 -0.7630  0.9633
10910TIP3   OH254144   4.551   1.402   4.719  0.1101 -0.0134  0.0814
10910TIP3    H154145   4.516   1.325   4.764  1.7190 -1.2005 -0.6321
10910TIP3    H254146   4.562   1.374   4.628 -1.3598  1.7750 -0.6903
10911TIP3   OH254147   2.632   6.513   2.043 -0.4414  0.7256 -0.5904
10911TIP3    H154148   2.578   6.508   2.122 -1.4503  1.4706 -1.2252
10911TIP3    H254149   2.668   6.425   2.033  0.3951  0.8431  1.1766
10912TIP3   OH254150   2.837   2.440  17.015  0.0755 -0.5282  0.3781
10912TIP3    H154151   2.847   2.439  17.110  0.1497  0.2903  0.3844
10912TIP3    H254152   2.756   2.489  17.000  0.2414 -0.3644  0.0062
10913TIP3   OH254153   4.226   4.091  11.586  0.4880 -0.4367 -0.0896
10913TIP3    H154154   4.180   4.093  11.502  0.4260 -1.9363 -0.0974
10913TIP3    H254155   4.159   4.109  11.651  0.4895  0.4880 -0.3341
10914TIP3   OH254156   2.003   4.682   3.563 -0.4340  0.5626  0.5155
10914TIP3    H154157   2.018   4.741   3.637 -3.1741  1.3838  0.4461
10914TIP3    H254158   1.950   4.732   3.502 -0.2402 -0.9512 -0.9139
10915TIP3   OH254159   3.846   1.728   0.859  0.5714  0.4964 -0.3049
10915TIP3    H154160   3.764   1.745   0.904  0.3661  0.4414 -0.6559
10915TIP3    H254161   3.829   1.751   0.767  0.5622 -0.7263 -0.6159
10916TIP3   OH254162   1.271   0.295  12.020 -0.2288  0.6364 -0.2605
10916TIP3    H154163   1.309   0.383  12.021 -1.7988  1.3725 -1.9837
10916TIP3    H254164   1.179   0.309  11.997 -0.1592 -1.5422 -2.0797
10917TIP3   OH254165   6.537   3.746  12.896  0.5441 -0.9047 -0.3278
10917TIP3    H154166   6.585   3.806  12.839  0.2096 -1.4475 -1.1887
10917TIP3    H254167   6.451   3.787  12.907  0.7128 -0.6463  0.0458
10918TIP3   OH254168   3.823   4.646  14.472 -0.7098 -0.1396 -0.5798
10918TIP3    H154169   3.828   4.717  14.408 -0.6622  0.5758  0.2124
10918TIP3    H254170   3.882   4.673  14.542  0.2781 -1.5534 -0.8402
10919TIP3   OH254171   5.991   3.918  13.634  0.3921 -0.1356 -0.3891
10919TIP3    H154172   6.049   3.854  13.592 -1.4050 -2.4200  0.4903
10919TIP3    H254173   5.903   3.890  13.609 -0.5376  0.6140  1.9332
10920TIP3   OH254174   3.177   1.700   3.920 -0.4191  0.0360 -0.1199
10920TIP3    H154175   3.123   1.714   3.997 -0.4590 -0.8468  0.0151
10920TIP3    H254176   3.116   1.709   3.846 -0.2452  1.5853 -0.0970
10921TIP3   OH254177   1.498   4.459   0.920  0.5400 -0.0403 -0.0287
10921TIP3    H154178   1.407   4.453   0.951  0.6019 -0.0329  0.1566
10921TIP3    H254179   1.492   4.510   0.840  0.1824 -1.4289 -0.8953
10922TIP3   OH254180   0.352   3.737  11.381  0.4499 -0.0218 -0.2312
10922TIP3    H154181   0.440   3.728  11.418 -0.2136 -3.4046  0.7673
10922TIP3    H254182   0.351   3.675  11.308 -0.6210  1.1586 -1.2352
10923TIP3   OH254183   2.696   0.926  12.509 -0.6225 -0.0814 -0.2117
10923TIP3    H154184   2.781   0.883  12.518 -1.0095 -0.2123  3.2917
10923TIP3    H254185   2.654   0.880  12.437  0.9877 -2.1518  0.1185
10924TIP3   OH254186   0.422   5.406  15.491  0.5028  0.1805  0.3598
10924TIP3    H154187   0.485   5.440  15.555  0.3235 -1.3049  1.3410
10924TIP3    H254188   0.423   5.471  15.421  0.7040  1.8226  1.8521
10925TIP3   OH254189   3.235   4.393  12.205  0.1601  0.6606  0.4445
10925TIP3    H154190   3.142   4.373  12.196  0.2217  0.3962  0.3917
10925TIP3    H254191   3.245   4.421  12.296 -0.0477  1.0926  0.3375
10926TIP3   OH254192   5.275   5.059   0.840 -0.1149 -0.4429  0.1540
10926TIP3    H154193   5.203   4.996   0.839  0.0290 -0.6251  1.1488
10926TIP3    H254194   5.238   5.138   0.801 -1.6914  0.3529  3.0864
10927TIP3   OH254195   1.890   3.773   1.036 -0.0161  0.1320 -0.0197
10927TIP3    H154196   1.830   3.840   1.068 -1.0432 -0.5706 -0.4300
10927TIP3    H254197   1.917   3.725   1.114  1.2858  1.4506  0.3650
10928TIP3   OH254198   5.289   5.647  11.280  0.1861 -0.0309 -0.1109
10928TIP3    H154199   5.226   5.716  11.258  0.1955 -0.2411 -0.7894
10928TIP3    H254200   5.265   5.621  11.369  0.2646  0.9377  0.2002
10929TIP3   OH254201   6.006   3.100   0.813  0.5694  0.2281  0.3346
10929TIP3    H154202   6.029   3.053   0.893 -1.4175  1.5014  1.6884
10929TIP3    H254203   5.971   3.184   0.844 -0.2872  0.7110 -1.8702
10930TIP3   OH254204   3.801   3.546  12.920  0.1287 -0.1077  0.2288
10930TIP3    H154205   3.727   3.489  12.900  0.7597 -1.6766  2.1796
10930TIP3    H254206   3.875   3.487  12.930  1.5395  1.3919 -1.1293
10931TIP3   OH254207   1.750   5.672  11.239 -0.0880  0.5193 -0.4405
10931TIP3    H154208   1.789   5.586  11.229 -0.4573  0.1995  0.8710
10931TIP3    H254209   1.722   5.695  11.150 -0.6550 -1.0289 -0.6779
10932TIP3   OH254210   1.606   0.561   2.124  0.7908 -0.0324  0.4552
10932TIP3    H154211   1.604   0.656   2.112 -0.7382 -0.1174  0.0621
10932TIP3    H254212   1.584   0.525   2.038  3.2976 -0.7839  0.0874
10933TIP3   OH254213   3.399   5.717   3.422 -0.1748 -0.0725  0.2126
10933TIP3    H154214   3.437   5.734   3.508 -0.2230 -0.8391  0.3962
10933TIP3    H254215   3.308   5.694   3.442 -0.6477  1.3896 -0.1878
10934TIP3   OH254216   3.982   1.650  16.034  0.0240  0.5377 -0.5082
10934TIP3    H154217   3.911   1.683  15.979 -0.7257  0.7705  0.5883
10934TIP3    H254218   4.024   1.728  16.069 -0.1218  0.3683  0.0427
10935TIP3   OH254219   3.260   2.326  10.768 -0.1045 -0.3745 -0.6719
10935TIP3    H154220   3.323   2.383  10.725  0.3201  0.2110  0.6777
10935TIP3    H254221   3.303   2.241  10.772 -0.4624 -0.6222 -2.0837
10936TIP3   OH254222   3.591   0.351   4.447 -0.2704 -0.2707  0.1067
10936TIP3    H154223   3.545   0.411   4.505 -0.1407  2.0175 -2.0451
10936TIP3    H254224   3.531   0.277   4.436 -0.8514 -0.1007  2.0368
10937TIP3   OH254225   6.062   4.090   0.038 -0.5287  0.0079  0.1100
10937TIP3    H154226   6.095   4.039  -0.036 -0.0938  0.2747  0.1201
10937TIP3    H254227   6.118   4.167   0.042 -0.8840  0.2578  0.3906
10938TIP3   OH254228   2.158   1.169   4.009  0.2016  0.5235 -0.0874
10938TIP3    H154229   2.147   1.255   4.050  1.1184  0.1694  0.9434
10938TIP3    H254230   2.253   1.156   4.007  0.0181 -1.9198  2.9250
10939TIP3   OH254231   1.524   4.562   4.024  0.4181 -0.2410 -0.1834
10939TIP3    H154232   1.488   4.589   4.108 -0.6720  1.5084 -1.1986
10939TIP3    H254233   1.461   4.498   3.990  1.0573 -1.2385  0.4958
10940TIP3   OH254234   1.931   4.046  11.864 -0.0729 -0.5008 -0.0182
10940TIP3    H154235   1.967   4.003  11.942 -2.3185  0.3530  1.5280
10940TIP3    H254236   1.899   3.974  11.809  0.1007 -1.0275  0.5680
10941TIP3   OH254237   0.933   6.498   2.579  0.3941  0.5259  0.4169
10941TIP3    H154238   0.946   6.583   2.538 -0.0177  1.3314  1.9319
10941TIP3    H254239   0.839   6.492   2.594  0.5330  0.2228  1.2000
10942TIP3   OH254240   6.321   1.189   6.443 -0.1173  0.3082 -0.3616
10942TIP3    H154241   6.252   1.234   6.393 -1.0894 -0.4482  0.2827
10942TIP3    H254242   6.402   1.230   6.413 -0.8580  1.3735 -0.9678
10943TIP3   OH254243   5.041   5.751   2.610  0.4575  0.0231  0.0467
10943TIP3    H154244   5.034   5.666   2.654  0.3603 -0.7009 -1.3244
10943TIP3    H254245   4.951   5.781   2.599  0.4759  0.1552  0.2693
10944TIP3   OH254246   3.538   2.386   1.426  0.3687 -0.2923  0.5582
10944TIP3    H154247   3.521   2.340   1.508  1.6153  0.1569  1.0843
10944TIP3    H254248   3.490   2.336   1.360  2.2965 -2.8053  0.9907
10945TIP3   OH254249   3.291   4.818   6.126 -0.2325  0.0235  0.8010
10945TIP3    H154250   3.271   4.757   6.197 -0.9673  0.1032  0.6698
10945TIP3    H254251   3.332   4.765   6.058  1.2918  0.1007  1.6381
10946TIP3   OH254252   5.721   3.348   6.641 -0.4004 -0.2304  0.0325
10946TIP3    H154253   5.788   3.304   6.693  1.1828  1.8540 -0.1973
10946TIP3    H254254   5.723   3.304   6.557 -1.6101 -2.3177  1.0527
10947TIP3   OH254255   3.530   2.069   3.058 -0.4819  0.3843 -0.2043
10947TIP3    H154256   3.513   2.001   2.993  1.3528 -0.6953  0.3711
10947TIP3    H254257   3.624   2.084   3.052 -0.4888  1.1382  1.3334
10948TIP3   OH254258   2.914   5.647   3.185  0.3317  0.3903 -0.4377
10948TIP3    H154259   2.975   5.629   3.256  0.0950  2.6824  0.4054
10948TIP3    H254260   2.951   5.602   3.109  0.8271 -1.7075  1.0088
10949TIP3   OH254261   0.198   6.653  15.674 -0.4554  0.1161 -0.4709
10949TIP3    H154262   0.252   6.720  15.632 -0.2649  0.7193  0.7163
10949TIP3    H254263   0.158   6.697  15.748 -0.2212 -1.1155  0.4095
10950TIP3   OH254264   3.861   1.961   2.550 -0.1632  0.6323 -0.2995
10950TIP3    H154265   3.832   1.871   2.562 -0.7845  0.7910 -0.5752
10950TIP3    H254266   3.866   1.972   2.455 -0.4497  1.0000 -0.2727
10951TIP3   OH254267   6.384   4.457  12.112  0.4348  0.0616 -0.4127
10951TIP3    H154268   6.462   4.508  12.136  0.8282 -0.9912  0.6147
10951TIP3    H254269   6.312   4.519  12.120  1.3590  1.6329 -3.4392
10952TIP3   OH254270   3.882   5.982   4.714  0.0183 -0.4257 -0.1564
10952TIP3    H154271   3.856   6.020   4.631  0.1594  0.4548  0.1958
10952TIP3    H254272   3.932   6.051   4.758 -2.3908  0.1277  1.8362
10953TIP3   OH254273   0.028   0.189   3.227 -0.3034 -0.2772  0.0507
10953TIP3    H154274   0.115   0.179   3.189 -0.5228 -1.2528 -0.1825
10953TIP3    H254275  -0.017   0.250   3.168  0.3310  0.5145  0.3666
10954TIP3   OH254276   2.660   6.474   4.154 -0.0833 -0.1964  0.3777
10954TIP3    H154277   2.706   6.511   4.079  0.9966 -0.6381  0.8121
10954TIP3    H254278   2.646   6.549   4.213 -2.0613  0.3937 -0.8090
10955TIP3   OH254279   6.234   1.854   3.726 -0.1686  0.0990  0.3775
10955TIP3    H154280   6.259   1.845   3.634  0.0652  0.9979  0.3413
10955TIP3    H254281   6.159   1.795   3.736 -0.7051  0.5843 -0.6005
10956TIP3   OH254282   2.860   2.983   2.884 -0.5146 -0.1236 -0.3169
10956TIP3    H154283   2.935   2.945   2.929 -0.7385 -0.9583 -0.6413
10956TIP3    H254284   2.854   3.072   2.918  0.8857  0.0912 -0.6135
10957TIP3   OH254285   1.851   1.531   2.379  0.1394 -0.0720 -0.0033
10957TIP3    H154286   1.944   1.540   2.360  0.1819 -1.6039 -0.5826
10957TIP3    H254287   1.814   1.617   2.359  1.5865  0.8765  1.2877
10958TIP3   OH254288   2.751   6.099   4.578  0.1504 -0.7131 -0.0099
10958TIP3    H154289   2.679   6.157   4.555 -1.7770 -3.5662 -1.5067
10958TIP3    H254290   2.797   6.083   4.496  1.9708  0.3289  0.7670
10959TIP3   OH254291   6.699   0.084  12.641 -0.6302  0.0758  0.1920
10959TIP3    H154292   6.792   0.066  12.626 -0.0124  0.6122  3.0163
10959TIP3    H254293   6.672   0.019  12.706 -2.0972  0.2925 -0.1789
10960TIP3   OH254294   2.891   0.904   1.368 -0.2299 -0.0186 -0.3974
10960TIP3    H154295   2.914   0.817   1.400 -0.7200 -0.0443 -0.1109
10960TIP3    H254296   2.798   0.913   1.387 -0.6779 -0.2644 -2.3181
10961TIP3   OH254297   4.399   4.211  12.248  0.3492 -0.3966 -0.1986
10961TIP3    H154298   4.392   4.125  12.205  0.0761 -0.3249 -0.3026
10961TIP3    H254299   4.481   4.207  12.297  0.5748 -0.5500 -0.5800
10962TIP3   OH254300   5.201   1.292   1.665 -0.1047 -0.2149 -0.3170
10962TIP3    H154301   5.179   1.216   1.718 -0.5735  0.4798  0.4904
10962TIP3    H254302   5.295   1.284   1.648  0.0839 -0.3416  0.7803
10963TIP3   OH254303   2.747   2.129   4.914 -0.2085 -0.4164 -0.0813
10963TIP3    H154304   2.677   2.116   4.979  1.1853  0.8673  1.7455
10963TIP3    H254305   2.819   2.073   4.944  0.4249  0.1303 -0.5564
10964TIP3   OH254306   1.726   2.629  11.386  0.3796  0.8463  0.1981
10964TIP3    H154307   1.630   2.629  11.386  0.3455 -0.4913 -2.9652
10964TIP3    H254308   1.749   2.627  11.479 -2.6797 -1.2607  0.9800
10965TIP3   OH254309   3.618   6.592   2.545 -0.2385 -0.3534  0.3222
10965TIP3    H154310   3.588   6.508   2.580 -1.0102  0.0785  0.7050
10965TIP3    H254311   3.579   6.658   2.602 -1.1026  0.3395 -1.0478
10966TIP3   OH254312   4.311   3.358  12.585 -0.6065  0.4455  1.0475
10966TIP3    H154313   4.299   3.380  12.678  0.2949  2.0455  0.8039
10966TIP3    H254314   4.371   3.284  12.586 -0.8908  0.2119  1.7524
10967TIP3   OH254315   1.429   1.628   0.536  0.1956  0.2820  0.2501
10967TIP3    H154316   1.490   1.589   0.599 -0.0228 -1.4023 -0.5558
10967TIP3    H254317   1.485   1.679   0.478  0.4815  1.2492  1.3694
10968TIP3   OH254318   4.083   6.660   2.633 -0.1453  0.4092 -0.3318
10968TIP3    H154319   4.159   6.695   2.586 -1.4809  1.7923 -1.5055
10968TIP3    H254320   4.035   6.609   2.567 -1.2475  1.1326 -0.0953
10969TIP3   OH254321   6.524   6.284   0.768  0.2418  0.2782  0.0865
10969TIP3    H154322   6.598   6.291   0.708  1.3583  0.5988  1.4787
10969TIP3    H254323   6.530   6.195   0.804 -1.3028 -0.4511 -1.3639
10970TIP3   OH254324   0.836   0.009  15.380  0.1498  0.1279  0.1207
10970TIP3    H154325   0.852   0.096  15.346 -2.1898  1.1651  1.5050
10970TIP3    H254326   0.802   0.024  15.469 -2.9260 -2.0072 -0.6059
10971TIP3   OH254327   0.721   2.731  16.794 -0.4394 -0.5325  0.0355
10971TIP3    H154328   0.710   2.797  16.863  1.3921 -1.2055  0.9861
10971TIP3    H254329   0.745   2.781  16.717  2.8040 -0.2117  1.2124
10972TIP3   OH254330   3.265   5.968   3.246  0.1246  0.3628  0.0129
10972TIP3    H154331   3.180   5.925   3.256  0.0298  0.0860 -1.8828
10972TIP3    H254332   3.260   6.043   3.305 -1.0273 -0.2477  0.7234
10973TIP3   OH254333   4.710   5.876   1.689  0.0178 -0.5702 -0.4952
10973TIP3    H154334   4.672   5.945   1.635  1.0312  0.3750 -0.0208
10973TIP3    H254335   4.801   5.871   1.661  0.7619  0.4727  1.6127
10974TIP3   OH254336   6.333   2.295   4.872 -0.3532  0.0758 -0.8391
10974TIP3    H154337   6.310   2.273   4.782  1.1401  0.4954 -1.3256
10974TIP3    H254338   6.325   2.390   4.877  0.2783  0.1240 -0.7307
10975TIP3   OH254339   6.499   1.312   2.062  0.0580  0.3962  0.0637
10975TIP3    H154340   6.563   1.332   2.131  1.1238  1.2503 -1.1598
10975TIP3    H254341   6.502   1.388   2.003  0.0746 -0.8811 -1.6134
10976TIP3   OH254342   2.956   1.127   1.247 -0.1981  0.1244 -0.1047
10976TIP3    H154343   2.930   1.053   1.302 -2.0531  0.4584 -0.4805
10976TIP3    H254344   3.011   1.182   1.304 -0.6240 -0.4319  0.8554
10977TIP3   OH254345   6.699   5.716  15.042  0.4595 -0.9625 -0.1299
10977TIP3    H154346   6.676   5.625  15.025 -0.0556 -0.9284  0.3521
10977TIP3    H254347   6.647   5.740  15.119  0.9686 -0.4148  0.0502
10978TIP3   OH254348   4.576   5.614   3.693 -0.4089  0.4048 -0.5206
10978TIP3    H154349   4.619   5.529   3.700 -0.1445  0.5990  0.2852
10978TIP3    H254350   4.547   5.634   3.782 -2.6842  0.0171 -1.1554
10979TIP3   OH254351   6.004   5.461  14.998 -0.1764  0.6540  0.2395
10979TIP3    H154352   5.994   5.536  14.939  2.4483  0.5116 -0.4110
10979TIP3    H254353   5.940   5.478  15.068 -1.6658  2.0050 -1.4003
10980TIP3   OH254354   5.578   2.100  16.033 -0.1523 -0.3829 -0.0050
10980TIP3    H154355   5.655   2.116  15.979 -1.7843  3.0074 -1.4535
10980TIP3    H254356   5.541   2.018  15.999  0.3642  0.2900 -2.2817
10981TIP3   OH254357   0.807   1.033   2.060  0.3985 -0.3205 -0.1505
10981TIP3    H154358   0.810   0.938   2.066  0.3090 -0.2592  0.8310
10981TIP3    H254359   0.882   1.063   2.112  0.0523  0.1718  0.0627
10982TIP3   OH254360   4.894   3.502   4.642 -0.9116  0.1615 -0.1313
10982TIP3    H154361   4.874   3.437   4.575  0.3285 -2.1499  1.6670
10982TIP3    H254362   4.880   3.457   4.725 -1.9360  2.8175  1.1945
10983TIP3   OH254363   2.393   0.319  11.176 -0.1699 -0.1385  0.3923
10983TIP3    H154364   2.355   0.324  11.088 -0.1163 -2.5976  0.1924
10983TIP3    H254365   2.366   0.400  11.219  0.8144  1.6932 -2.2803
10984TIP3   OH254366   0.805   4.428  16.233 -0.2164 -0.1405  0.1253
10984TIP3    H154367   0.813   4.479  16.153 -0.8073  0.3384  0.3718
10984TIP3    H254368   0.733   4.367  16.216 -0.7491  0.3736  0.5051
10985TIP3   OH254369   3.265   0.821  10.921  0.3463  0.1180 -0.4975
10985TIP3    H154370   3.202   0.759  10.886  1.6741 -1.7801  0.3662
10985TIP3    H254371   3.327   0.835  10.849 -0.9394  1.8416 -1.2840
10986TIP3   OH254372   1.494   4.783  13.552 -0.1028 -0.3047  0.4273
10986TIP3    H154373   1.472   4.694  13.579  0.2985 -0.7784 -0.7712
10986TIP3    H254374   1.520   4.775  13.460  1.0426  0.8713  0.6282
10987TIP3   OH254375   3.569   1.163  17.199 -0.7996 -0.4789 -0.2948
10987TIP3    H154376   3.588   1.118  17.281  0.1252  0.3235 -0.0670
10987TIP3    H254377   3.546   1.093  17.138 -1.1607 -1.1054  0.5536
10988TIP3   OH254378   3.612   0.030   3.749 -0.5469  0.0379 -0.2410
10988TIP3    H154379   3.599   0.123   3.763  0.0511  0.3016 -1.3904
10988TIP3    H254380   3.657   0.024   3.665 -0.4308 -1.2753 -0.1000
10989TIP3   OH254381   5.316   4.540  12.578  0.3241  0.0878  0.2917
10989TIP3    H154382   5.349   4.516  12.664  1.1165  0.4844  0.1114
10989TIP3    H254383   5.388   4.519  12.518 -0.6910 -1.3822 -0.4440
10990TIP3   OH254384   6.211   2.567  12.074 -0.3937  0.2013 -0.5002
10990TIP3    H154385   6.229   2.661  12.067  0.4723 -0.1198 -3.3563
10990TIP3    H254386   6.269   2.527  12.009 -0.1895 -2.4074  1.2379
10991TIP3   OH254387   2.445   0.076   1.529  0.4762  0.2317  0.0011
10991TIP3    H154388   2.502   0.040   1.597  2.0359  0.7611 -1.0001
10991TIP3    H254389   2.437   0.005   1.465 -0.8062 -0.1849  0.5989
10992TIP3   OH254390   6.458   5.066   5.651 -0.4111 -0.3290 -0.1548
10992TIP3    H154391   6.512   5.113   5.714 -0.0209 -1.2764  0.2225
10992TIP3    H254392   6.459   4.975   5.681 -3.7415 -0.0807  0.9605
10993TIP3   OH254393   6.024   3.166   0.294  0.2696  0.3171  0.2683
10993TIP3    H154394   5.952   3.141   0.236  0.0409  0.8430  0.3237
10993TIP3    H254395   6.013   3.111   0.371  1.8962 -2.0527 -1.0958
10994TIP3   OH254396   4.974   6.694  15.239  0.2810 -0.3484  0.3580
10994TIP3    H154397   4.968   6.762  15.306  1.6590 -0.3508  0.4945
10994TIP3    H254398   5.063   6.701  15.205 -0.1511 -0.8790 -0.9138
10995TIP3   OH254399   4.789   2.695  16.585 -0.0077 -0.7166 -0.0404
10995TIP3    H154400   4.762   2.710  16.494  0.5054 -2.1217 -0.4309
10995TIP3    H254401   4.777   2.601  16.599  1.3167 -0.7666  0.8764
10996TIP3   OH254402   4.713   5.856  16.628  0.2158 -0.0531 -0.3147
10996TIP3    H154403   4.724   5.813  16.713 -1.8645 -0.8444 -0.4240
10996TIP3    H254404   4.755   5.941  16.639 -1.6920  0.6272  2.1405
10997TIP3   OH254405   0.573   5.050  13.463  0.5162  0.3427  0.2699
10997TIP3    H154406   0.646   5.101  13.497 -0.2139  1.7929 -0.3094
10997TIP3    H254407   0.613   4.968  13.434  1.5127  0.0777  2.3136
10998TIP3   OH254408   3.764   3.397   0.548  0.6923  0.3417  0.8402
10998TIP3    H154409   3.811   3.340   0.608  0.4688  0.8671  1.5197
10998TIP3    H254410   3.832   3.437   0.494  0.7389 -1.8327 -0.7793
10999TIP3   OH254411   3.379   4.256   3.032  0.0449 -0.2030  0.8346
10999TIP3    H154412   3.342   4.329   3.083 -0.5098  0.0746  0.0419
10999TIP3    H254413   3.338   4.264   2.946  1.0166 -0.6485  0.3293
11000TIP3   OH254414   1.725   2.755  11.947 -0.3555 -0.0183 -0.1647
11000TIP3    H154415   1.800   2.722  11.897  0.2175 -0.0409  0.6966
11000TIP3    H254416   1.708   2.841  11.909  0.6504  0.3470  0.1984
11001TIP3   OH254417   4.708   6.229   5.366  0.6065 -0.2149  0.1358
11001TIP3    H154418   4.781   6.204   5.309  1.3951 -1.2418  1.5646
11001TIP3    H254419   4.680   6.147   5.407 -1.1065  0.2315 -0.1071
11002TIP3   OH254420   6.292   5.624   3.003  0.2444  0.1223 -0.0070
11002TIP3    H154421   6.374   5.647   2.959 -0.7760  1.6154 -1.1750
11002TIP3    H254422   6.251   5.560   2.944  1.2410 -1.7513  1.3021
11003TIP3   OH254423   6.651   6.148   3.902 -0.3782 -0.2351  0.0639
11003TIP3    H154424   6.692   6.219   3.852 -0.2489 -0.7655 -0.5800
11003TIP3    H254425   6.695   6.069   3.872  0.8925 -0.4023  2.2199
11004TIP3   OH254426   0.964   5.646  10.675 -0.5196  0.1944 -0.1472
11004TIP3    H154427   0.965   5.715  10.609 -1.0658  1.2946  0.9702
11004TIP3    H254428   1.016   5.575  10.637  1.0050  1.6480 -0.8358
11005TIP3   OH254429   0.800   0.930   1.321 -0.3052 -0.3931  0.4394
11005TIP3    H154430   0.727   0.881   1.282 -0.8108  1.2302 -0.6986
11005TIP3    H254431   0.877   0.900   1.272 -0.4609 -0.7567  0.4118
11006TIP3   OH254432   6.382   6.498  16.017  0.7458 -0.0341 -0.3125
11006TIP3    H154433   6.360   6.431  15.953 -1.4475  0.4261 -0.1005
11006TIP3    H254434   6.359   6.459  16.101 -1.2183  1.2154 -0.2472
11007TIP3   OH254435   5.948   4.526   4.945 -0.7208 -0.2243 -0.1066
11007TIP3    H154436   5.925   4.470   4.871  0.5343 -1.2046  0.2289
11007TIP3    H254437   6.037   4.501   4.968 -0.0854  2.0279 -0.0167
11008TIP3   OH254438   2.698   2.499   1.356  0.0111 -0.7139  0.0983
11008TIP3    H154439   2.760   2.564   1.320  0.8095 -0.0748  2.5185
11008TIP3    H254440   2.612   2.530   1.327  0.7626 -1.4375 -3.0566
11009TIP3   OH254441   3.372   0.022   0.306 -0.4207  0.3217 -0.0671
11009TIP3    H154442   3.453   0.012   0.255 -2.3688 -0.9007 -3.0485
11009TIP3    H254443   3.371  -0.055   0.364  2.0601  1.9892  2.3699
11010TIP3   OH254444   4.129   4.293  13.624 -0.7560  0.0350 -0.2270
11010TIP3    H154445   4.196   4.354  13.595  0.4466 -0.8719  0.6092
11010TIP3    H254446   4.121   4.230  13.553  0.4565 -0.7919  0.3534
11011TIP3   OH254447   0.939   4.379   1.537  0.0214  0.2195  0.3860
11011TIP3    H154448   0.902   4.376   1.626  1.7371  1.6900  1.1874
11011TIP3    H254449   0.940   4.472   1.515 -1.8253 -0.2382 -1.8505
11012TIP3   OH254450   0.324   6.165   3.115 -0.1046  0.5227  0.0084
11012TIP3    H154451   0.333   6.234   3.180  3.2471 -0.6737  0.9581
11012TIP3    H254452   0.380   6.193   3.043  0.1343 -0.4870 -0.2139
11013TIP3   OH254453   0.919   6.681  15.005 -0.2771  0.1574 -0.1719
11013TIP3    H154454   0.893   6.772  14.989 -0.6530 -0.1283 -1.2625
11013TIP3    H254455   0.884   6.633  14.930  1.4545 -0.6004 -0.5247
11014TIP3   OH254456   3.648   5.326  13.808 -0.0414 -0.0343 -0.4215
11014TIP3    H154457   3.701   5.322  13.728 -1.1658 -0.4404 -1.1521
11014TIP3    H254458   3.565   5.364  13.780 -0.2825  0.2353  0.6472
11015TIP3   OH254459   1.238   3.639   2.516 -0.0887 -0.1913 -0.0409
11015TIP3    H154460   1.275   3.587   2.588  0.5975 -1.4572 -1.2885
11015TIP3    H254461   1.168   3.584   2.480 -0.2385  0.3138 -0.5374
11016TIP3   OH254462   2.153   0.399  10.979  0.2183  0.1224  0.8503
11016TIP3    H154463   2.190   0.474  10.934 -0.1382 -0.6287 -0.7425
11016TIP3    H254464   2.097   0.437  11.047 -0.6563  1.3039 -0.5109
11017TIP3   OH254465   0.089   2.277  13.320 -0.1404 -0.4895  0.0431
11017TIP3    H154466   0.177   2.294  13.287 -0.3113 -0.4263 -0.3888
11017TIP3    H254467   0.096   2.195  13.368  0.3592  0.0085  0.8233
11018TIP3   OH254468   4.660   0.493  15.827  0.7019 -0.0926  0.0955
11018TIP3    H154469   4.742   0.542  15.837  0.3901  0.0371  2.3080
11018TIP3    H254470   4.606   0.521  15.901 -0.3669 -2.0754  0.1168
11019TIP3   OH254471   1.945   5.483   1.698 -0.0480  0.4407 -0.3295
11019TIP3    H154472   2.025   5.443   1.664  0.2540  1.1384 -0.4443
11019TIP3    H254473   1.883   5.480   1.625 -0.5507 -1.2490  0.1429
11020TIP3   OH254474   5.864   5.580  15.226  0.0062 -0.1715 -0.7918
11020TIP3    H154475   5.801   5.634  15.273  0.0684  0.7271 -1.7223
11020TIP3    H254476   5.940   5.637  15.213  0.1580 -0.5444 -1.5865
11021TIP3   OH254477   4.580   5.642   1.802 -0.9095 -0.0275 -0.6810
11021TIP3    H154478   4.632   5.712   1.762 -1.6971  0.4383 -0.9084
11021TIP3    H254479   4.522   5.687   1.863 -2.0561 -0.3673 -1.4940
11022TIP3   OH254480   4.516   6.369   3.735 -0.4926  0.8318 -0.6559
11022TIP3    H154481   4.579   6.391   3.666 -1.7578 -0.2449 -2.2151
11022TIP3    H254482   4.569   6.355   3.813  1.3529 -1.0414 -2.1747
11023TIP3   OH254483   2.014   2.791  12.107  0.7280  0.9012  0.0164
11023TIP3    H154484   2.039   2.808  12.016 -0.0343 -1.8005 -0.7436
11023TIP3    H254485   2.033   2.698  12.121 -1.0941  0.7618  1.9650
11024TIP3   OH254486   3.639   3.437  11.886  0.2097  0.2305  0.7131
11024TIP3    H154487   3.641   3.416  11.979  0.2516 -1.6612  0.3064
11024TIP3    H254488   3.662   3.355  11.842 -0.5022  0.9151 -0.9974
11025TIP3   OH254489   6.700   3.014  16.087 -0.2017  0.3087  0.2522
11025TIP3    H154490   6.735   2.930  16.117  0.7294  0.4863 -0.2879
11025TIP3    H254491   6.702   3.070  16.165 -0.7517 -0.1507  0.5939
11026TIP3   OH254492   1.381   0.046  16.314 -0.1456  0.8667  0.5994
11026TIP3    H154493   1.343   0.132  16.332  1.2610  1.2989  1.6215
11026TIP3    H254494   1.324  -0.016  16.360 -0.1561  1.4229  1.3406
11027TIP3   OH254495   3.052   5.916  14.530  0.5801 -0.0837  0.1914
11027TIP3    H154496   3.145   5.901  14.514  0.5757  0.2595 -0.1558
11027TIP3    H254497   3.033   6.000  14.488  0.5759  0.8332  1.9532
11028TIP3   OH254498   1.540   4.113  17.158  0.3506  0.2815 -0.2700
11028TIP3    H154499   1.634   4.125  17.164  0.0095  3.2110  0.0187
11028TIP3    H254500   1.511   4.180  17.097 -1.5317 -0.7656 -0.5771
11029TIP3   OH254501   0.724   3.851   5.178  0.0462  0.6375 -0.1047
11029TIP3    H154502   0.638   3.825   5.143 -0.1975  2.1566 -0.6866
11029TIP3    H254503   0.760   3.910   5.112  0.5056  1.8817  1.2248
11030TIP3   OH254504   4.523   1.911  15.444  0.6704  0.3716  0.1093
11030TIP3    H154505   4.473   1.988  15.415  0.6797  1.4598  2.7721
11030TIP3    H254506   4.557   1.873  15.364 -0.9817  2.0253 -1.4370
11031TIP3   OH254507   3.985   1.558   0.065  0.6678  0.0874  0.0919
11031TIP3    H154508   4.080   1.544   0.063  0.4006 -1.7234 -1.2998
11031TIP3    H254509   3.965   1.597  -0.020  0.2864  1.4144  0.7830
11032TIP3   OH254510   6.176   6.498   2.186  0.1164  0.5364 -0.1115
11032TIP3    H154511   6.126   6.422   2.157 -0.0470  0.7236 -0.3274
11032TIP3    H254512   6.261   6.462   2.211 -0.5978  0.0240  1.6300
11033TIP3   OH254513   1.138   0.518   2.256 -0.5514 -0.5934 -0.3365
11033TIP3    H154514   1.135   0.504   2.162 -2.3367  2.4434 -0.7763
11033TIP3    H254515   1.201   0.589   2.268 -3.0755  1.6010  0.3748
11034TIP3   OH254516   3.898   6.210   0.146 -0.2294  0.4699  0.3503
11034TIP3    H154517   3.822   6.154   0.167  0.1436 -0.2895 -0.2714
11034TIP3    H254518   3.965   6.148   0.116  0.7821  1.1003  1.2706
11035TIP3   OH254519   3.838   2.804  13.001 -0.0433 -0.0121  0.1935
11035TIP3    H154520   3.921   2.763  12.975  0.2552  1.4469 -1.2552
11035TIP3    H254521   3.853   2.833  13.091 -0.2062 -2.8682  1.2010
11036TIP3   OH254522   5.727   4.804   5.675 -0.1124 -0.2709  0.0794
11036TIP3    H154523   5.758   4.714   5.660  0.9821  0.1181  0.0166
11036TIP3    H254524   5.730   4.845   5.589 -0.8534 -0.2439  0.0637
11037TIP3   OH254525   1.872   6.242   2.831  0.3890  0.2705  0.2070
11037TIP3    H154526   1.965   6.227   2.814  0.4297  0.8433 -0.1012
11037TIP3    H254527   1.829   6.216   2.749  0.2932  0.1366  0.3006
11038TIP3   OH254528   1.374   0.019   1.047 -0.4984 -0.2105 -0.2053
11038TIP3    H154529   1.462  -0.014   1.063 -1.0018 -1.6081 -0.2475
11038TIP3    H254530   1.319  -0.059   1.047 -1.7985  0.6886  0.2325
11039TIP3   OH254531   4.003   6.378  11.877 -0.2318 -0.2763  0.3898
11039TIP3    H154532   3.978   6.431  11.954  0.5899 -0.8305  1.0468
11039TIP3    H254533   3.932   6.393  11.814 -0.6452  0.6180  1.0446
11040TIP3   OH254534   5.030   2.499  14.758 -0.3602  0.0620  0.0511
11040TIP3    H154535   5.024   2.457  14.844 -0.1810 -0.8927 -0.3959
11040TIP3    H254536   4.998   2.432  14.696  0.3954  0.4026 -0.7164
11041TIP3   OH254537   3.312   1.880   2.138 -0.3609  0.5168  0.5372
11041TIP3    H154538   3.274   1.887   2.051 -0.9967 -1.9500  0.5799
11041TIP3    H254539   3.237   1.864   2.196  0.3130 -0.3742  1.1813
11042TIP3   OH254540   5.842   2.064   6.182 -0.0016  0.4462 -0.0021
11042TIP3    H154541   5.781   2.124   6.138  1.6288  1.0184 -1.5260
11042TIP3    H254542   5.896   2.029   6.111  1.2659 -0.2549  1.3045
11043TIP3   OH254543   5.592   4.550   6.162 -0.4767  0.0958  0.4237
11043TIP3    H154544   5.666   4.489   6.173 -0.3229  0.0565 -0.7294
11043TIP3    H254545   5.520   4.508   6.208 -0.0743 -0.4292  0.5856
11044TIP3   OH254546   1.205   4.199   2.711 -0.2753  0.0772  0.1619
11044TIP3    H154547   1.183   4.110   2.681 -0.7069 -0.4789  2.0498
11044TIP3    H254548   1.148   4.256   2.660 -1.0804 -0.8508  0.0067
11045TIP3   OH254549   6.064   0.737   3.760  0.0933  0.1848 -0.6383
11045TIP3    H154550   5.971   0.723   3.744 -0.2859  0.7409  1.0013
11045TIP3    H254551   6.075   0.722   3.854  1.4917  0.9791 -0.6605
11046TIP3   OH254552   6.620   0.230   1.934 -0.0920  0.1010  0.4264
11046TIP3    H154553   6.633   0.212   1.840 -2.2065 -0.6195  0.2441
11046TIP3    H254554   6.602   0.143   1.971  1.9812  0.2076  1.7380
11047TIP3   OH254555   5.852   6.543  13.793 -0.0090  0.2425 -0.4937
11047TIP3    H154556   5.759   6.557  13.808  0.0833 -1.0119  1.3784
11047TIP3    H254557   5.894   6.622  13.829 -0.1457 -0.5940  1.5701
11048TIP3   OH254558   1.438   1.067  12.522 -0.4761  0.1827  0.0942
11048TIP3    H154559   1.378   1.103  12.456  1.1295  2.2081 -0.2843
11048TIP3    H254560   1.502   1.017  12.472  1.1401  2.2751  0.0071
11049TIP3   OH254561   5.617   2.703   6.762 -0.0354  0.1315  0.0639
11049TIP3    H154562   5.623   2.794   6.791 -0.8903  0.2656 -0.1643
11049TIP3    H254563   5.525   2.680   6.774 -0.4815  0.2611 -2.7332
11050TIP3   OH254564   1.237   2.367  13.290  0.5650 -0.4685 -0.2747
11050TIP3    H154565   1.144   2.346  13.283  0.5095  0.1155 -1.3360
11050TIP3    H254566   1.281   2.283  13.277  0.2031 -0.6963 -0.0475
11051TIP3   OH254567   5.599   3.886   2.205  0.0152  0.0607 -0.5987
11051TIP3    H154568   5.662   3.957   2.222  0.0940 -0.5463  1.7694
11051TIP3    H254569   5.631   3.813   2.257 -2.4919 -0.3516  0.4031
11052TIP3   OH254570   5.586   5.699   3.940  0.1471 -0.2260 -0.3091
11052TIP3    H154571   5.496   5.670   3.927  0.5125 -1.9414  0.7309
11052TIP3    H254572   5.579   5.791   3.965 -1.5657 -1.1357  2.7889
11053TIP3   OH254573   2.917   2.828   3.268 -0.8095 -0.1401 -0.1471
11053TIP3    H154574   2.928   2.743   3.225 -1.3138 -0.7178  0.8389
11053TIP3    H254575   2.992   2.880   3.238  0.3658 -1.4509  0.4383
11054TIP3   OH254576   1.522   1.626   4.857  0.0188 -0.2497  0.8299
11054TIP3    H154577   1.451   1.677   4.817 -0.1902 -0.2661  1.1761
11054TIP3    H254578   1.480   1.578   4.928 -0.5000 -3.6181 -1.6208
11055TIP3   OH254579   5.897   1.689   1.203 -0.5876  0.6164 -0.0497
11055TIP3    H154580   5.897   1.783   1.182 -1.4161  0.5547 -0.3426
11055TIP3    H254581   5.952   1.649   1.136  1.7648  1.1872  1.4747
11056TIP3   OH254582   4.637   3.730   2.790  0.5244  0.1845  0.1394
11056TIP3    H154583   4.730   3.747   2.801  0.0978  1.5186  1.8061
11056TIP3    H254584   4.622   3.647   2.835  1.0004 -0.2856 -0.5680
11057TIP3   OH254585   6.530   3.502   2.368  0.2667 -0.2121 -0.1740
11057TIP3    H154586   6.517   3.515   2.273  2.4861 -2.1089 -0.7730
11057TIP3    H254587   6.585   3.576   2.394 -0.0889  0.1447 -0.4052
11058TIP3   OH254588   2.815   6.304  14.888  0.9823  0.1001  0.1864
11058TIP3    H154589   2.837   6.325  14.979  2.5313  0.7876 -0.3307
11058TIP3    H254590   2.878   6.236  14.864  2.3789  1.8464 -1.2188
11059TIP3   OH254591   2.555   1.605   5.388 -0.2423 -0.0641 -0.3288
11059TIP3    H154592   2.567   1.526   5.335  1.6182  0.5508 -0.8774
11059TIP3    H254593   2.559   1.574   5.478 -0.4896 -0.7232 -0.5400
11060TIP3   OH254594   6.735   0.592   0.425 -0.5727 -0.3529 -0.2188
11060TIP3    H154595   6.718   0.654   0.354  1.6988 -0.6161 -1.0278
11060TIP3    H254596   6.722   0.642   0.505 -4.2573 -0.3291 -0.7342
11061TIP3   OH254597   5.185   4.018   5.208 -0.1566 -0.3240 -0.4609
11061TIP3    H154598   5.194   4.016   5.113 -1.3198 -1.1447 -0.5547
11061TIP3    H254599   5.104   4.067   5.224 -0.8435 -1.6013  0.0448
11062TIP3   OH254600   5.485   2.492   5.935  0.2178  0.2803  0.3826
11062TIP3    H154601   5.500   2.537   6.018 -1.4465  1.3982  0.0934
11062TIP3    H254602   5.553   2.528   5.877 -0.9977  2.3613  0.1941
11063TIP3   OH254603   4.648   0.287  11.053 -0.0509 -0.0927 -0.0112
11063TIP3    H154604   4.608   0.249  10.975  1.3941 -0.7577 -0.4487
11063TIP3    H254605   4.698   0.216  11.093  0.9238  0.7721  0.3561
11064TIP3   OH254606   0.194   6.712   5.037  0.7358 -0.0942 -0.2844
11064TIP3    H154607   0.200   6.626   5.079 -1.2848 -1.2325 -2.2784
11064TIP3    H254608   0.234   6.700   4.951 -0.6903  0.6220 -1.0638
11065TIP3   OH254609   0.605   0.659   0.046  0.3033 -0.1602  0.2629
11065TIP3    H154610   0.521   0.647   0.091  0.5870  1.8774  1.4173
11065TIP3    H254611   0.607   0.589  -0.019 -1.8443 -0.8587  0.8758
11066TIP3   OH254612   4.294   6.569   4.912 -0.2923  0.1850 -0.1493
11066TIP3    H154613   4.365   6.557   4.976 -0.4719 -0.3770 -0.0509
11066TIP3    H254614   4.339   6.571   4.827  0.0451  1.9236  0.0566
11067TIP3   OH254615   1.699   4.303   1.024  0.0570  0.6661 -0.1244
11067TIP3    H154616   1.664   4.380   0.978  0.9118  0.1120 -1.7426
11067TIP3    H254617   1.787   4.292   0.988 -0.8242 -2.3408 -1.4922
11068TIP3   OH254618   1.300   0.235   3.827 -0.0711  0.4608  0.5208
11068TIP3    H154619   1.328   0.177   3.897 -0.2362 -0.5928 -0.2692
11068TIP3    H254620   1.382   0.267   3.789  0.1017 -1.4990 -0.8648
11069TIP3   OH254621   1.187   5.973  10.337 -0.0990  0.3738  0.0434
11069TIP3    H154622   1.174   5.892  10.289 -0.6018  0.1004  0.6382
11069TIP3    H254623   1.251   6.022  10.286 -0.2520 -0.1367 -0.6294
11070TIP3   OH254624   0.426   3.443  13.521 -0.4588 -0.6538  0.0812
11070TIP3    H154625   0.480   3.388  13.578  0.4133  2.4526  2.3954
11070TIP3    H254626   0.464   3.432  13.434  3.0735  0.3300  1.4126
11071TIP3   OH254627   2.796   5.124  15.594 -0.5947  0.3976 -0.2151
11071TIP3    H154628   2.740   5.201  15.589  1.0088  1.4642 -2.2511
11071TIP3    H254629   2.810   5.097  15.503  0.3885 -1.1738  0.3707
11072TIP3   OH254630   1.838   1.125  12.878 -0.0189 -0.1090  0.2310
11072TIP3    H154631   1.815   1.162  12.793  2.4934 -0.5105 -0.6752
11072TIP3    H254632   1.872   1.199  12.928  2.0334 -0.5147 -0.4808
11073TIP3   OH254633   2.891   4.578  11.038  0.5230  0.5027  0.0107
11073TIP3    H154634   2.920   4.649  10.981  1.4812  1.2253  1.3860
11073TIP3    H254635   2.813   4.544  10.994 -0.3009  2.7744 -0.3909
11074TIP3   OH254636   1.866   4.896   0.183  0.3366 -0.1264  0.2949
11074TIP3    H154637   1.917   4.817   0.165 -0.0825 -0.7098  1.5244
11074TIP3    H254638   1.800   4.866   0.246 -1.0260  0.7780 -0.6848
11075TIP3   OH254639   5.367   3.762  16.210  0.4127  0.5039 -0.2080
11075TIP3    H154640   5.292   3.780  16.153  1.0453 -0.5712 -1.4037
11075TIP3    H254641   5.425   3.707  16.157  0.1728 -2.0837  2.0914
11076TIP3   OH254642   0.377   4.764   5.614  0.2919 -0.1911 -0.1324
11076TIP3    H154643   0.288   4.799   5.621  0.4999  0.0013  1.6681
11076TIP3    H254644   0.410   4.801   5.532 -1.2912 -0.2883 -0.8356
11077TIP3   OH254645   1.626   5.702   4.897  0.1130  0.6720 -0.4284
11077TIP3    H154646   1.597   5.663   4.815 -1.8568  0.0936  0.5018
11077TIP3    H254647   1.705   5.654   4.921  0.1790  0.2400 -1.5205
11078TIP3   OH254648   1.753   3.618   6.783 -0.5909  0.6763 -0.6232
11078TIP3    H154649   1.823   3.649   6.726 -0.2656  2.1219  0.5202
11078TIP3    H254650   1.709   3.549   6.733  0.2012  1.3456 -2.2601
11079TIP3   OH254651   5.837   2.773   3.450  0.6422  0.4923 -0.4372
11079TIP3    H154652   5.782   2.698   3.471  0.7816  0.3819 -0.4605
11079TIP3    H254653   5.780   2.849   3.459  0.1744  0.2941 -1.5523
11080TIP3   OH254654   0.773   3.761   1.236  0.9085  0.1528  0.1358
11080TIP3    H154655   0.682   3.743   1.260  1.0020 -1.1694 -0.4202
11080TIP3    H254656   0.824   3.715   1.302  1.1646 -0.7799 -0.6999
11081TIP3   OH254657   3.576   1.590   2.706 -0.0178  0.2312 -0.1487
11081TIP3    H154658   3.569   1.580   2.611  0.1200 -1.4805  0.0056
11081TIP3    H254659   3.520   1.522   2.742  2.5762 -1.3922  0.9861
11082TIP3   OH254660   1.156   5.522  11.685 -0.4738 -0.2299 -0.1123
11082TIP3    H154661   1.248   5.538  11.663 -0.0411  1.6225  2.8330
11082TIP3    H254662   1.158   5.442  11.737 -0.5169 -0.0695  0.1341
11083TIP3   OH254663   0.557   5.128   2.556  0.3299  0.3819  0.3342
11083TIP3    H154664   0.606   5.203   2.588  1.6536 -0.0706 -0.5720
11083TIP3    H254665   0.609   5.052   2.584  0.0932 -0.1091 -0.5272
11084TIP3   OH254666   5.511   2.993   3.722  0.1095  0.1123  0.4724
11084TIP3    H154667   5.550   3.080   3.725  1.1277 -0.3577  1.0750
11084TIP3    H254668   5.437   2.998   3.782  0.1945  0.5500  0.5442
11085TIP3   OH254669   0.014   1.980  14.442 -0.0051 -0.1863  0.0171
11085TIP3    H154670  -0.046   1.909  14.468  1.4056 -1.9067 -1.2803
11085TIP3    H254671  -0.041   2.043  14.396 -1.1300 -0.8866  0.3830
11086TIP3   OH254672   2.036   5.742  11.291  0.3072 -0.1974  0.9540
11086TIP3    H154673   1.980   5.766  11.365  0.1561 -1.3676  1.2248
11086TIP3    H254674   2.011   5.652  11.270 -0.6937  0.6188 -1.4788
11087TIP3   OH254675   0.246   0.642  12.923 -0.0319  0.0312 -0.6163
11087TIP3    H154676   0.318   0.643  12.860  0.8215 -2.0291  0.2780
11087TIP3    H254677   0.288   0.656  13.008 -1.0090  1.3478 -0.3322
11088TIP3   OH254678   4.818   4.326  13.842  0.0189  0.3922 -0.3734
11088TIP3    H154679   4.761   4.320  13.919 -1.3318  1.5918 -1.2631
11088TIP3    H254680   4.857   4.238  13.834 -0.2943  0.0874  1.3070
11089TIP3   OH254681   2.699   5.628  13.663  0.4048 -0.4189  0.1959
11089TIP3    H154682   2.736   5.586  13.586  0.8456  1.4232 -0.6076
11089TIP3    H254683   2.623   5.573  13.686  0.3088 -1.0115 -1.4921
11090TIP3   OH254684   4.152   6.159   2.112 -0.6042  0.3131 -0.1378
11090TIP3    H154685   4.142   6.103   2.189 -0.2340 -1.7036 -1.5145
11090TIP3    H254686   4.223   6.219   2.135  0.3974 -1.1331  0.6247
11091TIP3   OH254687   5.134   0.105   2.143 -0.1237  0.3334  0.7327
11091TIP3    H154688   5.223   0.125   2.114 -0.1585 -0.6151 -0.0825
11091TIP3    H254689   5.140   0.099   2.238  0.0528  3.2981  0.9616
11092TIP3   OH254690   4.402   5.898  10.427  0.5172  0.0193  0.0212
11092TIP3    H154691   4.315   5.934  10.408  0.3868 -1.4072 -2.3237
11092TIP3    H254692   4.462   5.958  10.383  0.6584  0.4759  0.8363
11093TIP3   OH254693   3.357   3.932   6.159 -0.0024  0.3556  0.4894
11093TIP3    H154694   3.346   3.838   6.149 -2.9778  0.6612  0.3693
11093TIP3    H254695   3.407   3.942   6.240  0.0675 -1.3172  0.6571
11094TIP3   OH254696   5.824   1.131   2.081  0.0786  0.2770  0.0406
11094TIP3    H154697   5.892   1.154   2.144 -1.0833  0.2865  1.3212
11094TIP3    H254698   5.844   1.184   2.004  1.1870  0.7063  0.6081
11095TIP3   OH254699   3.179   4.743  12.593 -0.0788  1.0004  0.3253
11095TIP3    H154700   3.167   4.814  12.530  0.1060  0.9337  0.2176
11095TIP3    H254701   3.257   4.767  12.643  0.7858  0.1984 -0.6134
11096TIP3   OH254702   2.262   3.786   6.041 -0.1399 -0.4068  0.5517
11096TIP3    H154703   2.270   3.754   6.131 -0.8754 -1.9824  0.0691
11096TIP3    H254704   2.167   3.798   6.028 -0.0054  0.2321  0.1234
11097TIP3   OH254705   5.015   2.856  16.971 -0.1507 -0.1191  0.0213
11097TIP3    H154706   4.967   2.830  17.050  1.7278 -1.1768  0.8504
11097TIP3    H254707   4.950   2.855  16.902 -1.6991  0.1920  1.4386
11098TIP3   OH254708   6.015   6.660   0.676 -0.0825  0.0972 -1.2454
11098TIP3    H154709   6.016   6.753   0.695 -0.5795 -0.9172  4.9165
11098TIP3    H254710   6.106   6.632   0.688 -0.3603 -0.5593 -0.5793
11099TIP3   OH254711   4.894   3.599  12.813  0.2592 -0.6740  0.3239
11099TIP3    H154712   4.965   3.613  12.750 -0.4937  0.6499 -0.2547
11099TIP3    H254713   4.816   3.585  12.758 -0.4369  0.6605  0.9379
11100TIP3   OH254714   0.591   6.288  11.764 -0.7407  0.1421 -0.3526
11100TIP3    H154715   0.591   6.383  11.748  0.6022  0.5562  1.8862
11100TIP3    H254716   0.524   6.274  11.831  0.1152 -0.2633  0.4323
11101TIP3   OH254717   2.793   4.650   5.161  0.4494  0.0143  0.0386
11101TIP3    H154718   2.753   4.606   5.236  0.2176 -1.2571 -0.8322
11101TIP3    H254719   2.882   4.670   5.190  0.9069 -1.9995  0.0499
11102TIP3   OH254720   6.585   0.781   0.290 -0.3957 -0.4160  0.1830
11102TIP3    H154721   6.595   0.833   0.211  1.6746  1.0286  1.3425
11102TIP3    H254722   6.521   0.830   0.342 -1.9691 -1.5124 -0.6839
11103TIP3   OH254723   6.518   1.023   0.151 -0.2392 -0.1570  0.6085
11103TIP3    H154724   6.558   1.067   0.225  0.1596  2.5623 -1.1520
11103TIP3    H254725   6.432   1.064   0.141 -0.3068 -0.5247 -0.3992
11104TIP3   OH254726   3.446   1.026  16.948 -0.0422  0.3811 -0.4790
11104TIP3    H154727   3.380   1.003  16.883  1.7634  1.0229 -2.6020
11104TIP3    H254728   3.520   1.059  16.897  0.9246  2.1937  1.9858
11105TIP3   OH254729   1.190   1.209  11.878 -0.1989 -0.3843  0.6732
11105TIP3    H154730   1.132   1.283  11.892  0.7667  0.6140 -0.4765
11105TIP3    H254731   1.172   1.181  11.789  0.3112 -0.7459  0.6812
11106TIP3   OH254732   2.098   6.428  14.314 -0.0860  0.0491  0.1076
11106TIP3    H154733   2.180   6.406  14.269 -0.5436 -0.1249 -0.6609
11106TIP3    H254734   2.090   6.523  14.306  0.2519  0.1144  0.5498
11107TIP3   OH254735   6.157   0.425   1.489  0.4047  0.0616 -0.0950
11107TIP3    H154736   6.077   0.462   1.453 -0.8626  0.6874  3.2067
11107TIP3    H254737   6.218   0.499   1.494 -0.1910  0.4856  1.1212
11108TIP3   OH254738   2.313   5.860  14.843  0.1504 -0.6419  0.1427
11108TIP3    H154739   2.305   5.765  14.841 -1.0773 -0.5597  0.8542
11108TIP3    H254740   2.267   5.889  14.764  1.0678 -0.6612 -0.4102
11109TIP3   OH254741   0.887   2.441  13.472 -0.0888 -0.5467 -0.0639
11109TIP3    H154742   0.908   2.451  13.379  0.6584  0.7166  0.2220
11109TIP3    H254743   0.903   2.349  13.490 -0.3441 -0.8334 -1.2127
11110TIP3   OH254744   5.092   1.220  16.917  0.0937  0.2004  0.6256
11110TIP3    H154745   5.139   1.224  16.834 -2.0750  0.1647 -0.6459
11110TIP3    H254746   5.157   1.245  16.983  1.8193  0.3265 -1.0746
11111TIP3   OH254747   2.103   4.201   2.388  0.1659 -0.4817 -0.6458
11111TIP3    H154748   2.057   4.227   2.308  1.2006 -0.2841 -1.1907
11111TIP3    H254749   2.166   4.271   2.404 -0.4504 -0.2294  0.6960
11112TIP3   OH254750   3.585   1.971  14.456 -0.7016 -0.1863  0.0422
11112TIP3    H154751   3.550   1.890  14.419 -2.7885 -0.1060  1.7115
11112TIP3    H254752   3.643   2.005  14.389 -1.3252 -2.0610 -1.4936
11113TIP3   OH254753   4.366   3.582  14.504  0.0461 -0.4738 -0.3794
11113TIP3    H154754   4.327   3.571  14.417 -1.2371  1.5132 -0.0772
11113TIP3    H254755   4.315   3.523  14.560 -0.3630 -0.3479 -0.6152
11114TIP3   OH254756   2.219   3.041  10.906  0.5406 -0.2992  0.4280
11114TIP3    H154757   2.178   2.998  10.830 -0.5559  0.9072  0.3238
11114TIP3    H254758   2.311   3.051  10.881  0.5509 -1.4429 -0.0504
11115TIP3   OH254759   5.324   1.374  12.468 -0.1567  0.3453 -0.3188
11115TIP3    H154760   5.377   1.453  12.460  0.2904  0.1204  0.3807
11115TIP3    H254761   5.248   1.390  12.411 -0.2241  1.4034  0.0568
11116TIP3   OH254762   1.215   1.741  11.791 -0.3182  0.2899  0.3983
11116TIP3    H154763   1.153   1.725  11.862 -1.3966  1.7654 -0.2047
11116TIP3    H254764   1.243   1.832  11.803 -1.6791  1.0477 -1.9691
11117TIP3   OH254765   0.260   6.353  14.638  0.5099  0.0319 -0.0219
11117TIP3    H154766   0.204   6.302  14.580  0.9819  0.9045 -1.2572
11117TIP3    H254767   0.279   6.294  14.711  0.3503 -1.2603 -1.0124
11118TIP3   OH254768   2.448   0.652   5.228  0.5028 -0.7086 -0.1902
11118TIP3    H154769   2.360   0.657   5.264  1.0503 -1.2792  1.2848
11118TIP3    H254770   2.451   0.568   5.182 -0.0301 -0.2322 -1.0977
11119TIP3   OH254771   3.128   3.040  13.039  1.0818  0.4184  0.1574
11119TIP3    H154772   3.070   3.099  13.087  0.2313 -1.0722  1.0150
11119TIP3    H254773   3.174   3.096  12.976  0.6545  2.0521  1.2769
11120TIP3   OH254774   4.410   5.908   0.055  0.0832  0.0879 -0.6942
11120TIP3    H154775   4.392   5.851   0.130 -1.5196 -0.3991 -1.4330
11120TIP3    H254776   4.461   5.854  -0.005 -2.0653 -0.8473 -1.7239
11121TIP3   OH254777   1.298   2.317  10.466  0.5847 -0.3181 -0.5003
11121TIP3    H154778   1.291   2.292  10.374  2.8664  1.5142 -1.2255
11121TIP3    H254779   1.380   2.277  10.496 -0.4521 -1.4285  0.9385
11122TIP3   OH254780   0.375   2.893   4.494 -0.0934 -0.1848  0.4636
11122TIP3    H154781   0.460   2.849   4.493  0.6752  1.2699 -0.4162
11122TIP3    H254782   0.386   2.968   4.435 -1.6181  0.7127  1.2823
11123TIP3   OH254783   4.479   3.983  16.533 -0.3724 -0.2399 -0.3752
11123TIP3    H154784   4.385   3.972  16.520 -0.3017 -1.6689  0.3050
11123TIP3    H254785   4.499   4.067  16.491 -2.1788  0.7147  0.6262
11124TIP3   OH254786   4.705   5.687  11.006 -0.2056 -0.3253  0.3264
11124TIP3    H154787   4.702   5.593  10.986  1.5861 -0.5025  0.8491
11124TIP3    H254788   4.703   5.729  10.920  2.4608 -0.9468 -0.0789
11125TIP3   OH254789   0.460   3.119   3.770 -0.2280  0.4471  0.1987
11125TIP3    H154790   0.459   3.159   3.856 -0.8408  0.6059  0.1205
11125TIP3    H254791   0.373   3.083   3.759 -0.1872  0.5190 -0.3964
11126TIP3   OH254792   4.988   3.262   6.583 -0.4839  0.3707 -0.0135
11126TIP3    H154793   4.901   3.288   6.613 -0.0219 -0.0366  1.7039
11126TIP3    H254794   5.044   3.274   6.659  0.8777  0.1633 -0.9741
11127TIP3   OH254795   5.702   2.037   5.821  0.2698  0.3411 -0.0239
11127TIP3    H154796   5.693   2.023   5.726  0.1333 -1.0727  0.1854
11127TIP3    H254797   5.633   2.099   5.842 -0.3169 -0.0696 -0.7012
11128TIP3   OH254798   2.833   0.169  13.677  0.1700 -0.2498 -0.3377
11128TIP3    H154799   2.886   0.200  13.751  0.0159 -1.5696  0.3396
11128TIP3    H254800   2.781   0.098  13.714  0.6171 -1.4099 -1.9075
11129TIP3   OH254801   4.540   6.310  11.026  0.1696 -0.1062 -0.1977
11129TIP3    H154802   4.491   6.350  11.097  1.4698  0.5384  0.3467
11129TIP3    H254803   4.570   6.226  11.061  1.2019  0.4128  0.1937
11130TIP3   OH254804   1.234   4.415   4.908 -0.0021  0.1658 -0.9608
11130TIP3    H154805   1.186   4.334   4.894 -2.1483  1.3115 -0.5284
11130TIP3    H254806   1.269   4.438   4.822 -0.6149 -0.4671 -1.3876
11131TIP3   OH254807   4.606   3.181   2.539  0.1387  0.0040  0.1526
11131TIP3    H154808   4.620   3.115   2.472  0.7639  1.2388 -0.9708
11131TIP3    H254809   4.558   3.136   2.609 -1.3241 -1.0605 -1.5172
11132TIP3   OH254810   6.539   5.293   3.085  0.3577 -0.3599  0.1280
11132TIP3    H154811   6.553   5.330   2.998 -0.6038 -0.2918 -0.0112
11132TIP3    H254812   6.503   5.366   3.136  1.3158 -0.2840  0.7018
11133TIP3   OH254813   3.411   0.745   0.299 -0.1708 -0.7631  0.6036
11133TIP3    H154814   3.369   0.663   0.325  0.8387 -0.8618  1.9710
11133TIP3    H254815   3.361   0.774   0.223 -0.3964 -2.7662 -0.0503
11134TIP3   OH254816   3.915   4.821  12.302  0.4504  0.4147  0.4277
11134TIP3    H154817   3.971   4.743  12.303  0.3057  0.0620 -4.7187
11134TIP3    H254818   3.977   4.894  12.296  0.4576  0.3205 -0.6456
11135TIP3   OH254819   5.190   5.866  14.044 -0.0294 -0.1507 -0.2047
11135TIP3    H154820   5.227   5.782  14.072 -0.4497 -0.3441 -0.2148
11135TIP3    H254821   5.128   5.889  14.113  1.4942  1.1175  0.7595
11136TIP3   OH254822   6.358   3.614  15.438 -0.5426  0.0637 -0.1328
11136TIP3    H154823   6.333   3.537  15.386 -1.8679 -2.6604  4.2763
11136TIP3    H254824   6.438   3.587  15.483 -0.6800  1.5116  1.0021
11137TIP3   OH254825   6.550   0.511   5.754  0.2253  0.3403  0.1356
11137TIP3    H154826   6.512   0.451   5.689 -0.0905  1.4313 -0.7125
11137TIP3    H254827   6.498   0.591   5.746 -2.9124 -0.9768  5.0278
11138TIP3   OH254828   3.833   1.779  14.747  0.1894  0.5118  0.2871
11138TIP3    H154829   3.738   1.789  14.744  0.1960  0.6308  0.4613
11138TIP3    H254830   3.850   1.734  14.830  0.0905 -1.7571 -0.8771
11139TIP3   OH254831   0.617   2.490   5.178  0.1087  0.0900 -0.2865
11139TIP3    H154832   0.543   2.429   5.183 -0.2112  0.6063  1.4067
11139TIP3    H254833   0.593   2.551   5.108 -0.2955 -0.7355 -0.8881
11140TIP3   OH254834   3.040   4.576  16.327  0.5582  0.3295  0.5610
11140TIP3    H154835   2.968   4.515  16.317  0.3402  0.7554 -0.5287
11140TIP3    H254836   3.111   4.538  16.275  0.2574  1.2448 -0.5409
11141TIP3   OH254837   0.350   2.903  15.827 -0.6871  0.0937 -0.4611
11141TIP3    H154838   0.373   2.810  15.827  0.9576  0.4370  2.3841
11141TIP3    H254839   0.319   2.920  15.916 -1.5398  2.1446 -1.1236
11142TIP3   OH254840   5.884   0.038  13.911 -0.0443  0.5834  0.4772
11142TIP3    H154841   5.905   0.122  13.951 -1.1171  1.2076 -0.2825
11142TIP3    H254842   5.789   0.036  13.904  0.1363  0.8983 -2.9143
11143TIP3   OH254843   5.351   2.251  15.550  0.1790  0.6528 -0.0032
11143TIP3    H154844   5.412   2.300  15.605  2.2802 -1.2852 -0.5312
11143TIP3    H254845   5.281   2.226  15.610  0.2317  2.3060  0.7831
11144TIP3   OH254846   6.764   5.906   0.231  0.1025 -0.2175 -0.3285
11144TIP3    H154847   6.765   6.001   0.247  0.8096  0.0708 -1.9765
11144TIP3    H254848   6.674   5.887   0.208 -0.2510 -0.1174  0.9300
11145TIP3   OH254849   5.111   0.845  11.309 -0.3036 -0.3023 -0.0783
11145TIP3    H154850   5.163   0.882  11.238  1.0913 -1.8607  0.0816
11145TIP3    H254851   5.027   0.889  11.303  0.9642  2.1813 -0.4693
11146TIP3   OH254852   4.239   1.951  16.965 -0.0121  0.0780  0.5930
11146TIP3    H154853   4.248   1.912  17.052 -0.5938 -0.4929  0.3963
11146TIP3    H254854   4.154   1.996  16.968  0.3611  0.7987  0.6056
11147TIP3   OH254855   3.685   4.446  15.864 -0.6372 -0.0897 -0.3170
11147TIP3    H154856   3.722   4.499  15.935 -1.2786 -0.2545  0.1481
11147TIP3    H254857   3.749   4.376  15.851  1.4852  2.1909 -2.6894
11148TIP3   OH254858   6.446   3.244   0.551  0.1996 -0.0583 -0.3144
11148TIP3    H154859   6.413   3.156   0.568 -0.0404  0.0142 -0.4090
11148TIP3    H254860   6.540   3.231   0.537  0.4706 -0.0753  1.4433
11149TIP3   OH254861   2.881   0.726   4.400 -0.0968  0.3054  0.4357
11149TIP3    H154862   2.792   0.695   4.418  0.3418 -1.2919 -0.0034
11149TIP3    H254863   2.899   0.790   4.468 -1.3193  0.1130  0.9503
11150TIP3   OH254864   2.269   6.136  13.931 -0.6895  0.0887  0.0735
11150TIP3    H154865   2.221   6.084  13.867 -0.4596  0.5942 -0.5064
11150TIP3    H254866   2.292   6.073  14.000  2.8406 -1.4240 -2.3720
11151TIP3   OH254867   5.615   2.392  12.469 -0.2095 -0.5307 -0.0679
11151TIP3    H154868   5.558   2.328  12.427 -1.8921  1.6134 -1.1575
11151TIP3    H254869   5.698   2.386  12.421 -0.8229 -0.8813 -1.0824
11152TIP3   OH254870   6.297   0.031   5.983 -0.6118 -0.2500 -0.6530
11152TIP3    H154871   6.253   0.087   6.047  0.0604 -0.4745  0.0031
11152TIP3    H254872   6.363   0.087   5.943 -0.8790 -0.1746 -0.9865
11153TIP3   OH254873   1.278   6.627   6.062 -0.1241  0.1969  0.2204
11153TIP3    H154874   1.360   6.578   6.073  0.4791  1.0125 -0.5750
11153TIP3    H254875   1.281   6.694   6.131  0.9685  1.6763 -1.2286
11154TIP3   OH254876   2.528   2.905   3.666  0.0684 -0.0999 -0.3360
11154TIP3    H154877   2.530   2.996   3.693  0.0602 -0.0438 -0.5192
11154TIP3    H254878   2.589   2.900   3.592 -0.3033 -0.1331 -0.6478
11155TIP3   OH254879   6.393   4.026  13.424  0.4063 -0.4903 -0.7043
11155TIP3    H154880   6.482   4.002  13.449  1.2805  0.7146 -2.6220
11155TIP3    H254881   6.377   3.979  13.342  0.5264  1.9558 -2.1599
11156TIP3   OH254882   0.214   5.187  12.504 -0.6609 -0.2588  0.4799
11156TIP3    H154883   0.276   5.141  12.560  1.5885  1.1824 -0.7615
11156TIP3    H254884   0.211   5.276  12.540  0.8487  0.6995 -1.6940
11157TIP3   OH254885   5.646   5.777   5.634 -0.5067  0.0973 -0.2076
11157TIP3    H154886   5.570   5.796   5.579 -0.0463  0.6082 -0.6714
11157TIP3    H254887   5.697   5.858   5.634 -0.9304  0.3863  1.6832
11158TIP3   OH254888   6.087   1.511   1.043  0.4448 -0.4199 -0.0024
11158TIP3    H154889   6.050   1.427   1.072  0.6815 -0.2583  0.7624
11158TIP3    H254890   6.163   1.525   1.099  0.9162 -0.1095 -0.7091
11159TIP3   OH254891   0.374   3.079  15.336  0.1517 -0.3323  0.1826
11159TIP3    H154892   0.424   3.160  15.346  1.5938 -1.0930 -0.6681
11159TIP3    H254893   0.289   3.099  15.374  0.4435  1.6211 -0.1071
11160TIP3   OH254894   4.455   5.127   2.788  0.0431 -0.6286  0.2988
11160TIP3    H154895   4.412   5.147   2.705  0.5841 -0.1315  0.1265
11160TIP3    H254896   4.470   5.213   2.828 -0.7282 -0.8943  1.1816
11161TIP3   OH254897   3.612   1.327  14.662  0.3379  0.1748 -0.3546
11161TIP3    H154898   3.630   1.411  14.621 -1.1839  0.2954 -0.8031
11161TIP3    H254899   3.646   1.262  14.600  0.1285  0.4183 -0.7242
11162TIP3   OH254900   2.945   5.636   6.345  0.0817 -0.3309  0.4867
11162TIP3    H154901   2.868   5.645   6.289 -0.2430 -2.5441  0.5373
11162TIP3    H254902   2.963   5.725   6.375 -2.4386  0.2445  0.4293
11163TIP3   OH254903   5.026   2.868  12.523 -0.3017 -0.7344 -0.3347
11163TIP3    H154904   5.107   2.872  12.573  0.3589 -0.9386 -1.3864
11163TIP3    H254905   5.014   2.775  12.503 -0.0269 -0.5499 -1.4132
11164TIP3   OH254906   0.460   5.579  15.286 -0.2092 -0.1834  0.1350
11164TIP3    H154907   0.427   5.605  15.200 -0.5914 -2.7929 -0.5544
11164TIP3    H254908   0.555   5.583  15.278 -0.2524  0.1098 -0.2296
11165TIP3   OH254909   2.766   2.859   0.535  0.0088 -0.1762 -0.0238
11165TIP3    H154910   2.746   2.801   0.607  0.1722  0.9117  0.9138
11165TIP3    H254911   2.857   2.886   0.550  0.1336 -0.1504 -0.7790
11166TIP3   OH254912   5.645   4.602   0.646 -1.0728 -0.2834 -0.2328
11166TIP3    H154913   5.569   4.659   0.658 -0.9015 -0.0845 -0.1064
11166TIP3    H254914   5.624   4.552   0.567 -0.7600  0.6983 -0.9431
11167TIP3   OH254915   3.819   2.800   3.992 -0.0911  0.2136 -0.0504
11167TIP3    H154916   3.747   2.785   3.931  0.7560  1.6777 -1.4459
11167TIP3    H254917   3.895   2.761   3.949  0.0977 -0.7132  1.1027
11168TIP3   OH254918   5.728   2.654   3.822 -0.1712  0.4182  0.5752
11168TIP3    H154919   5.731   2.743   3.857 -3.0237  0.3836  0.9989
11168TIP3    H254920   5.800   2.651   3.759 -0.6195  3.3352 -0.1510
11169TIP3   OH254921   5.046   5.942   3.605  0.2827 -0.4290 -0.7510
11169TIP3    H154922   5.027   5.897   3.687  0.7009  0.4818 -0.1450
11169TIP3    H254923   4.996   5.894   3.539 -1.7827  0.1562  0.3614
11170TIP3   OH254924   5.262   5.452   3.109  0.4129  0.2736 -0.1644
11170TIP3    H154925   5.356   5.436   3.108  0.5423  0.9670  0.5218
11170TIP3    H254926   5.241   5.477   3.019  1.0156  0.8627 -0.1387
11171TIP3   OH254927   1.994   2.290   0.413  0.5240 -0.5433  0.0595
11171TIP3    H154928   2.080   2.332   0.416  0.5366 -0.5296 -0.4072
11171TIP3    H254929   1.955   2.308   0.498 -0.4132  2.4137 -0.9088
11172TIP3   OH254930   5.028   6.228  13.188  0.3563  0.0920  0.3146
11172TIP3    H154931   5.071   6.208  13.271  1.1867 -2.4560 -0.6722
11172TIP3    H254932   4.942   6.263  13.213 -0.9092 -4.0366  2.3000
11173TIP3   OH254933   6.230   3.111   4.730 -0.4284 -0.3770 -0.3740
11173TIP3    H154934   6.182   3.078   4.807 -1.5819  3.4668  0.6762
11173TIP3    H254935   6.167   3.104   4.658  0.2590 -2.8850 -0.7873
11174TIP3   OH254936   5.044   1.778   3.985 -0.5121  0.6245 -0.5919
11174TIP3    H154937   5.062   1.843   4.053  0.4008  0.7260 -0.9203
11174TIP3    H254938   4.984   1.821   3.924 -1.2388  0.5726  0.0824
11175TIP3   OH254939   2.024   2.020   2.052 -0.0592  0.1449 -0.0110
11175TIP3    H154940   2.101   2.067   2.084  0.6591 -0.8162 -0.3128
11175TIP3    H254941   2.018   2.045   1.960  0.0815 -0.0303 -0.0682
11176TIP3   OH254942   1.359   1.159   0.827 -0.3550 -0.1976  0.0246
11176TIP3    H154943   1.400   1.243   0.846 -0.8005  0.1318 -0.4829
11176TIP3    H254944   1.280   1.158   0.881  1.2147 -1.5999  2.4197
11177TIP3   OH254945   6.613   1.030   5.883 -0.2156  0.6573  0.1897
11177TIP3    H154946   6.572   1.064   5.803  0.1896  0.2796 -0.1739
11177TIP3    H254947   6.634   1.109   5.934 -1.5226  0.8491  0.4422
11178TIP3   OH254948   0.923   5.030  12.296 -0.0539 -0.5519  0.4123
11178TIP3    H154949   0.871   4.974  12.239  0.8773  0.1218 -1.1311
11178TIP3    H254950   0.861   5.058  12.364 -1.3053 -1.0332 -0.4954
11179TIP3   OH254951   5.018   6.058   2.751 -0.0534 -0.1848 -0.0352
11179TIP3    H154952   4.988   6.139   2.794  0.2745  0.3938 -0.8852
11179TIP3    H254953   4.950   5.994   2.772  0.2783 -0.0239  1.6650
11180TIP3   OH254954   4.298   0.457   1.887  0.1369 -0.0201 -0.6380
11180TIP3    H154955   4.282   0.483   1.796 -0.2028 -0.5185 -0.7249
11180TIP3    H254956   4.366   0.517   1.918 -1.1125  1.4012 -0.6185
11181TIP3   OH254957   5.766   1.180  11.258 -0.2975 -0.2674  0.2125
11181TIP3    H154958   5.737   1.265  11.224  1.0422 -0.8177 -2.4626
11181TIP3    H254959   5.702   1.118  11.224 -1.1304 -0.3928  1.9568
11182TIP3   OH254960   6.532   2.929  15.532  0.4297 -0.2532  0.2047
11182TIP3    H154961   6.493   2.866  15.593  1.3717  0.6500  1.7910
11182TIP3    H254962   6.626   2.921  15.546  0.6745 -0.2165 -1.3439
11183TIP3   OH254963   1.041   6.435   3.179  0.2228  0.0324 -0.0037
11183TIP3    H154964   0.956   6.470   3.149 -0.1847 -1.1045 -0.1786
11183TIP3    H254965   1.087   6.512   3.212 -1.5249  0.4219  1.6413
11184TIP3   OH254966   3.103   4.980  15.575  0.0514  0.1285 -0.1764
11184TIP3    H154967   3.136   5.057  15.530 -0.1236  0.5043  0.3327
11184TIP3    H254968   3.012   4.972  15.545 -0.1357  0.5145  0.2873
11185TIP3   OH254969   1.333   0.660   0.934 -0.7373 -0.0748  0.4676
11185TIP3    H154970   1.377   0.742   0.915 -0.7503 -0.1297  0.2058
11185TIP3    H254971   1.405   0.597   0.945 -0.6984  0.1084  1.3228
11186TIP3   OH254972   6.670   4.936  16.296  0.1693 -0.3364 -0.4422
11186TIP3    H154973   6.656   4.863  16.356  0.2699  0.0660  0.0768
11186TIP3    H254974   6.765   4.951  16.298  0.0458  0.3854  0.1422
11187TIP3   OH254975   6.131   0.540  11.451  0.2380 -0.0945  0.3636
11187TIP3    H154976   6.203   0.521  11.390 -0.9349  1.1590 -1.4658
11187TIP3    H254977   6.058   0.487  11.418 -0.3897  0.5324  0.7448
11188TIP3   OH254978   6.704   5.596   5.659 -0.0265 -0.5399  0.2068
11188TIP3    H154979   6.733   5.598   5.567  2.4307  0.6067  0.9526
11188TIP3    H254980   6.718   5.505   5.686  2.5099 -0.1314  0.3848
11189TIP3   OH254981   4.777   4.719  14.875 -0.7159  0.0595  0.1553
11189TIP3    H154982   4.751   4.629  14.897 -1.3563 -0.1717 -1.4341
11189TIP3    H254983   4.812   4.755  14.956  2.9197 -2.8062 -0.0062
11190TIP3   OH254984   2.910   5.863  13.325  0.2513  0.3852 -0.2880
11190TIP3    H154985   2.969   5.788  13.323 -2.0279 -1.4392 -1.7874
11190TIP3    H254986   2.966   5.937  13.350  3.5056 -0.9636 -3.1234
11191TIP3   OH254987   1.885   2.810   2.472 -0.4864  0.2037  0.3726
11191TIP3    H154988   1.813   2.796   2.410 -0.3166  1.4619 -0.1316
11191TIP3    H254989   1.964   2.785   2.424 -0.5688 -1.0927  0.8959
11192TIP3   OH254990   5.969   1.880  15.769 -0.4102 -0.2283  0.0040
11192TIP3    H154991   5.922   1.859  15.688 -0.9890 -1.7148  0.7022
11192TIP3    H254992   6.033   1.945  15.743 -2.1976  1.1158 -1.1795
11193TIP3   OH254993   2.725   3.432  13.991 -0.3439 -0.4029  0.2438
11193TIP3    H154994   2.732   3.502  14.056 -1.1084 -0.3256  0.2407
11193TIP3    H254995   2.760   3.355  14.035 -0.0888 -0.1642  0.4614
11194TIP3   OH254996   0.155   1.444   4.023  0.2589 -0.1140 -0.2469
11194TIP3    H154997   0.148   1.357   4.061 -1.3687 -0.1460 -0.5458
11194TIP3    H254998   0.154   1.504   4.098  1.0426 -0.3436 -0.0582
11195TIP3   OH254999   5.535   0.365  16.691  0.2621  0.1117 -0.3451
11195TIP3    H155000   5.540   0.459  16.676 -2.2351  0.2205 -0.7328
11195TIP3    H255001   5.515   0.356  16.784 -0.4284  0.0136 -0.4983
11196TIP3   OH255002   5.573   3.255   4.456 -0.1875 -0.0535 -0.1747
11196TIP3    H155003   5.589   3.313   4.381  1.2244  0.1295  0.2758
11196TIP3    H255004   5.518   3.307   4.515 -1.6068 -0.3214 -1.2271
11197TIP3   OH255005   2.541   2.629   3.667  0.2195  0.1647 -0.5839
11197TIP3    H155006   2.461   2.582   3.689  0.5563  0.0812  0.4930
11197TIP3    H255007   2.511   2.715   3.636 -0.2480  0.6866  1.2275
11198TIP3   OH255008   2.965   1.061   3.116  0.1193  0.3143 -0.6426
11198TIP3    H155009   3.052   1.036   3.085  0.0634  0.8913 -1.2624
11198TIP3    H255010   2.918   0.978   3.125  0.2424  0.1177 -1.7734
11199TIP3   OH255011   0.289   4.705   1.571  0.4502 -0.2873 -0.2633
11199TIP3    H155012   0.373   4.671   1.542  0.7693 -0.1468  0.5064
11199TIP3    H255013   0.252   4.637   1.626 -0.1703 -0.5616 -1.0131
11200TIP3   OH255014   4.702   0.782  12.356  0.5111  0.3085  0.1156
11200TIP3    H155015   4.739   0.870  12.351  2.3274 -0.4387 -0.0261
11200TIP3    H255016   4.738   0.744  12.436 -1.5790  0.2699  1.0530
11201TIP3   OH255017   4.909   2.190   1.927  0.4123 -0.1039  0.0977
11201TIP3    H155018   4.866   2.111   1.895 -0.7154  0.0526  1.2249
11201TIP3    H255019   4.850   2.261   1.901 -1.1310 -0.0678  3.5387
11202TIP3   OH255020   6.512   1.070  13.348  0.2591 -0.1506 -0.2517
11202TIP3    H155021   6.421   1.100  13.338  0.8495  1.5989 -0.4827
11202TIP3    H255022   6.515   1.034  13.436 -0.4617  0.5251  0.0611
11203TIP3   OH255023   2.141   4.539  13.945 -0.0146  0.8804  0.5066
11203TIP3    H155024   2.147   4.627  13.909  0.2261  0.8849  0.5505
11203TIP3    H255025   2.228   4.501  13.930 -0.4360  0.2912 -0.4427
11204TIP3   OH255026   5.471   4.140  10.571 -0.2823 -0.1630 -0.3042
11204TIP3    H155027   5.487   4.219  10.623 -1.8036 -0.7692  1.1494
11204TIP3    H255028   5.532   4.075  10.607 -0.6059 -0.2842  0.0316
11205TIP3   OH255029   2.596   4.956   3.610 -0.2500  0.2596 -0.6960
11205TIP3    H155030   2.522   4.993   3.658  0.6092  0.4095  0.5430
11205TIP3    H255031   2.606   5.012   3.533 -0.5988  1.0346 -0.1842
11206TIP3   OH255032   5.963   2.926  14.903  0.0887  0.5400 -0.8750
11206TIP3    H155033   5.974   2.921  14.998  1.0926  0.0487 -1.0115
11206TIP3    H255034   6.021   2.859  14.868 -0.3530  0.6483 -1.8354
11207TIP3   OH255035   6.493   5.743   0.831  0.0248 -0.2328 -0.5077
11207TIP3    H155036   6.471   5.760   0.922  0.6921  1.4732 -0.6354
11207TIP3    H255037   6.412   5.712   0.791 -0.2492 -1.0576  0.6750
11208TIP3   OH255038   4.765   2.408   1.851  0.5311  0.1439 -0.3069
11208TIP3    H155039   4.674   2.379   1.860  0.7247 -0.5158 -0.4477
11208TIP3    H255040   4.762   2.478   1.786 -0.0461  0.9357  0.5706
11209TIP3   OH255041   0.342   3.393  12.053 -0.0137 -0.0778  0.4801
11209TIP3    H155042   0.289   3.453  12.106 -2.4820 -2.0249  0.2957
11209TIP3    H255043   0.291   3.312  12.050  2.3037 -1.5300 -0.9764
11210TIP3   OH255044   4.771   6.742  16.309  0.0774 -0.8562 -0.6242
11210TIP3    H155045   4.695   6.754  16.252 -0.0796 -0.5199 -0.3458
11210TIP3    H255046   4.740   6.682  16.377  0.2364 -1.1808 -0.8334
11211TIP3   OH255047   0.664   0.840   1.819  0.0624 -0.3409 -0.0854
11211TIP3    H155048   0.723   0.854   1.744 -1.5709  1.1380 -1.1247
11211TIP3    H255049   0.576   0.852   1.783 -1.0039 -3.8852  1.1297
11212TIP3   OH255050   6.296   5.942   5.018  0.4115  0.1527  0.2140
11212TIP3    H155051   6.232   5.920   4.950  1.0418  1.1118 -0.6945
11212TIP3    H255052   6.276   5.881   5.089 -1.0450 -0.0528 -0.3455
11213TIP3   OH255053   6.234   0.214  11.346 -0.4822 -0.3438  0.5391
11213TIP3    H155054   6.234   0.234  11.439  1.2524 -1.4361  0.7772
11213TIP3    H255055   6.231   0.119  11.341 -0.2890 -0.3050 -0.5227
11214TIP3   OH255056   2.256   0.593  14.248 -0.2866  0.2219 -0.4670
11214TIP3    H155057   2.351   0.603  14.245 -0.1184 -0.0893  2.2046
11214TIP3    H255058   2.225   0.628  14.164  2.3466 -1.9792 -2.4562
11215TIP3   OH255059   6.133   2.823   2.289 -0.0058  0.5646  0.2422
11215TIP3    H155060   6.221   2.856   2.304  0.6930 -0.7509 -0.9022
11215TIP3    H255061   6.076   2.900   2.300  1.5089  1.9645 -1.5793
11216TIP3   OH255062   2.242   3.000  14.007 -0.1264  0.1097 -0.8040
11216TIP3    H155063   2.334   3.023  13.993  0.0298  0.2672  0.3851
11216TIP3    H255064   2.216   3.055  14.081 -0.3220 -2.0734  0.8079
11217TIP3   OH255065   3.973   4.398  14.024 -0.0090  0.1279 -0.2980
11217TIP3    H155066   3.978   4.410  14.119  0.4711 -0.3193 -0.2646
11217TIP3    H255067   3.895   4.447  13.998 -2.0158 -2.3811  0.7538
11218TIP3   OH255068   6.604   5.041   4.698  0.6710  0.7495 -0.7222
11218TIP3    H155069   6.651   5.008   4.622  1.3319  2.0453 -0.9031
11218TIP3    H255070   6.672   5.080   4.753  0.0217  1.0897 -0.1478
11219TIP3   OH255071   4.811   3.261   4.783 -0.1870  0.6070 -0.4658
11219TIP3    H155072   4.810   3.210   4.864  1.3418  1.2545 -0.0196
11219TIP3    H255073   4.813   3.195   4.713 -0.1471  0.0487  0.0557
11220TIP3   OH255074   6.473   6.484   2.263  0.0341 -0.3132 -0.0605
11220TIP3    H155075   6.520   6.407   2.231  0.5999 -0.0160  0.0433
11220TIP3    H255076   6.531   6.520   2.330 -1.2628 -1.0827  1.4910
11221TIP3   OH255077   3.026   0.535   3.942  0.2488  0.0579  0.1058
11221TIP3    H155078   3.064   0.457   3.899  1.7922  0.6720  0.3055
11221TIP3    H255079   2.989   0.586   3.870  1.1411  0.1572 -0.3013
11222TIP3   OH255080   0.252   6.335   4.587 -0.7956  0.0650 -0.3963
11222TIP3    H155081   0.158   6.336   4.605 -0.7623 -0.5116 -0.1807
11222TIP3    H255082   0.265   6.402   4.520 -1.5454 -0.6855 -1.3067
11223TIP3   OH255083   5.749   3.311  10.777  0.1723 -0.2806  0.1586
11223TIP3    H155084   5.694   3.238  10.804  0.3908 -0.9581 -1.2031
11223TIP3    H255085   5.822   3.311  10.840  0.0511 -1.0791  0.3007
11224TIP3   OH255086   0.978   1.840  12.707  0.3033 -0.1334 -0.4658
11224TIP3    H155087   1.047   1.833  12.772 -0.0095 -0.6186 -0.1867
11224TIP3    H255088   0.975   1.754  12.665 -0.0331 -0.0720 -0.5729
11225TIP3   OH255089   2.070   1.664  16.531 -0.3946  0.2952 -0.3696
11225TIP3    H155090   2.127   1.588  16.543  2.8760  2.6246 -0.5632
11225TIP3    H255091   2.000   1.652  16.596  1.5712 -1.4754  1.4933
11226TIP3   OH255092   2.743   3.214   3.485  0.7707  0.4546  0.3234
11226TIP3    H155093   2.824   3.264   3.496  0.5512  1.2017 -1.3505
11226TIP3    H255094   2.683   3.275   3.441 -0.9232  0.1269  2.1299
11227TIP3   OH255095   6.077   0.597  13.531 -0.0086 -0.1415 -0.3386
11227TIP3    H155096   6.042   0.682  13.561 -0.2281 -0.0090 -0.9690
11227TIP3    H255097   6.157   0.585  13.582 -0.9233 -0.4114  1.0712
11228TIP3   OH255098   4.654   4.029   0.696 -0.0641 -0.4884  0.1766
11228TIP3    H155099   4.729   4.072   0.655 -0.4602  1.3962  1.3473
11228TIP3    H255100   4.691   3.984   0.772  0.0740 -0.6471  0.0163
11229TIP3   OH255101   1.502   2.992  12.614  0.3075  0.1057  0.5341
11229TIP3    H155102   1.454   3.033  12.685  0.2185  1.1585 -0.1320
11229TIP3    H255103   1.460   2.906  12.604  1.1443 -0.5701  2.5751
11230TIP3   OH255104   5.178   1.024   0.896  0.7757  0.1055 -0.3945
11230TIP3    H155105   5.186   1.101   0.952  1.5366 -0.7548  0.7144
11230TIP3    H255106   5.252   0.968   0.921 -0.4929 -1.5702 -0.2508
11231TIP3   OH255107   2.792   3.765  13.282  0.1205  0.0856 -0.0002
11231TIP3    H155108   2.811   3.746  13.374 -3.0987 -0.6978  0.5847
11231TIP3    H255109   2.766   3.857  13.282  0.0310  0.0599 -0.0934
11232TIP3   OH255110   6.432   3.100  14.525 -0.2058  0.0344  0.3352
11232TIP3    H155111   6.360   3.162  14.514  0.6571  0.9999  0.0310
11232TIP3    H255112   6.511   3.154  14.516  0.6063 -1.6684 -3.4176
11233TIP3   OH255113   4.134   6.400  13.441  0.1188 -0.0259  0.2661
11233TIP3    H155114   4.042   6.412  13.419 -0.0617 -0.8693  0.5735
11233TIP3    H255115   4.164   6.330  13.383  0.1290 -0.9451  1.3654
11234TIP3   OH255116   4.322   2.858   5.474 -0.3162 -0.0480 -0.4062
11234TIP3    H155117   4.317   2.876   5.568  1.7722 -0.6631 -0.1588
11234TIP3    H255118   4.260   2.920   5.435 -0.6868  0.6951  1.3084
11235TIP3   OH255119   1.255   0.945   2.244 -0.0155  0.5601  0.4565
11235TIP3    H155120   1.247   0.983   2.156  0.3029  0.0392  0.2014
11235TIP3    H255121   1.276   1.020   2.300  3.3261  0.3838 -0.4667
11236TIP3   OH255122   2.042   3.474   4.965 -0.4158 -0.5098  0.0308
11236TIP3    H155123   1.984   3.550   4.964  0.6051  0.2988  1.3077
11236TIP3    H255124   2.027   3.433   5.050  0.6854 -0.4561  0.2576
11237TIP3   OH255125   6.412   0.941   3.910 -0.5554  0.9617 -0.2649
11237TIP3    H155126   6.319   0.955   3.927 -0.4725 -0.4288  1.5820
11237TIP3    H255127   6.457   0.990   3.979  0.0166  0.2873 -0.1470
11238TIP3   OH255128   1.500   4.473  16.260 -0.1402  0.1619  0.2713
11238TIP3    H155129   1.468   4.392  16.220  2.6042 -0.7829 -0.0834
11238TIP3    H255130   1.436   4.540  16.233 -1.2871 -1.4863 -1.1600
11239TIP3   OH255131   4.776   1.974  15.718  0.0683 -0.8170  0.0686
11239TIP3    H155132   4.794   2.037  15.647  1.3954  0.5202  1.5617
11239TIP3    H255133   4.698   1.927  15.688  0.6224 -0.3169 -2.3145
11240TIP3   OH255134   0.598   2.881   3.674 -0.6782 -0.1595  0.3233
11240TIP3    H155135   0.534   2.811   3.682  0.3872 -1.0084  1.6501
11240TIP3    H255136   0.558   2.955   3.720 -0.1352 -1.1229  2.4436
11241TIP3   OH255137   4.954   3.763  15.029  0.2988  0.6785  0.4725
11241TIP3    H155138   5.033   3.750  14.977 -0.2067  0.8444 -0.3456
11241TIP3    H255139   4.893   3.696  14.999 -0.2845  1.2911  0.2691
11242TIP3   OH255140   0.844   5.047  13.837 -0.1986  0.0446  0.2232
11242TIP3    H155141   0.796   5.022  13.916 -0.6086 -1.4886 -0.4911
11242TIP3    H255142   0.935   5.054  13.865 -0.4549  0.2838  1.0015
11243TIP3   OH255143   1.150   1.517  15.676 -0.3915  0.4957  0.1799
11243TIP3    H155144   1.175   1.534  15.585  1.0842 -0.3898  0.3997
11243TIP3    H255145   1.070   1.467  15.671  0.2761 -0.4989 -0.6670
11244TIP3   OH255146   2.791   4.844  16.520  0.1686  0.0516 -0.0162
11244TIP3    H155147   2.699   4.819  16.511  0.3569 -0.3605 -0.8505
11244TIP3    H255148   2.827   4.782  16.584 -0.1726  0.3350  0.4592
11245TIP3   OH255149   0.145   4.723  11.323  0.3142 -0.1860 -0.5551
11245TIP3    H155150   0.231   4.718  11.364  1.1462  0.2773 -2.2236
11245TIP3    H255151   0.160   4.697  11.232 -0.8800  2.0467 -1.4332
11246TIP3   OH255152   3.596   3.557   4.310 -0.0730  0.2585 -1.0936
11246TIP3    H155153   3.679   3.603   4.324  1.5243 -2.6126 -0.7435
11246TIP3    H255154   3.535   3.625   4.283  2.3480  2.4800 -1.1419
11247TIP3   OH255155   3.447   1.840   3.763  0.4482 -0.2457  0.1061
11247TIP3    H155156   3.515   1.825   3.697 -0.2458 -1.8963 -0.2630
11247TIP3    H255157   3.475   1.788   3.838 -0.4444 -1.0305 -0.0884
11248TIP3   OH255158   5.481   0.896   0.658  0.1723  0.2924  0.9262
11248TIP3    H155159   5.386   0.903   0.651  0.2768  1.3813  0.5336
11248TIP3    H255160   5.501   0.810   0.621 -0.6563  0.1010  0.9189
11249TIP3   OH255161   6.510   6.411   3.767  0.0810 -0.1547  0.3488
11249TIP3    H155162   6.431   6.358   3.761 -0.2479  0.4355 -0.7385
11249TIP3    H255163   6.510   6.446   3.855 -0.9077 -0.0894  0.3194
11250TIP3   OH255164   1.484   6.515   4.631  0.5241 -0.1725  0.4657
11250TIP3    H155165   1.483   6.426   4.597 -1.8815 -0.0447  0.1402
11250TIP3    H255166   1.540   6.563   4.570 -2.7051 -0.2212 -2.7386
11251TIP3   OH255167   0.788   2.277   5.422 -0.1256 -0.0893  0.4432
11251TIP3    H155168   0.815   2.185   5.417  0.3567  0.1180 -0.9732
11251TIP3    H255169   0.870   2.326   5.418 -0.2789  0.3914  2.4628
11252TIP3   OH255170   1.745   0.469   3.757  0.1742  0.3592 -0.0550
11252TIP3    H155171   1.712   0.381   3.773 -0.4675  0.5565 -0.3003
11252TIP3    H255172   1.826   0.455   3.708  0.5968 -0.1307  0.7587
11253TIP3   OH255173   5.475   0.763  13.396  0.0361  0.3630 -0.2237
11253TIP3    H155174   5.475   0.796  13.306 -1.8244  1.7164  0.2631
11253TIP3    H255175   5.425   0.681  13.391 -1.0518  1.0197 -0.2258
11254TIP3   OH255176   4.926   3.758  15.309 -0.3346  0.4884  0.0348
11254TIP3    H155177   4.940   3.735  15.217 -0.1815 -1.6780  0.5661
11254TIP3    H255178   4.970   3.688  15.358 -0.3770  1.6353  1.7549
11255TIP3   OH255179   4.375   3.343  15.600  0.1541  0.5529  0.1723
11255TIP3    H155180   4.463   3.319  15.570 -0.9620 -0.4668 -2.3646
11255TIP3    H255181   4.317   3.281  15.557 -1.7666  0.5284  2.6651
11256TIP3   OH255182   3.936   0.110   3.828 -0.2594 -0.1167  0.3633
11256TIP3    H155183   3.912   0.018   3.818  1.9826 -0.4615 -2.6462
11256TIP3    H255184   3.854   0.158   3.817 -1.2154 -1.6674  0.5823
11257TIP3   OH255185   4.034   4.420  15.684  0.1718 -0.3408  0.0825
11257TIP3    H155186   3.994   4.499  15.721 -3.1831 -0.5646 -2.7800
11257TIP3    H255187   3.992   4.348  15.731  0.8723 -0.5010  0.4674
11258TIP3   OH255188   5.480   2.209   0.644  0.1899 -0.1293 -0.3568
11258TIP3    H155189   5.427   2.253   0.710 -0.2194  0.4015 -1.0287
11258TIP3    H255190   5.533   2.146   0.693 -1.3738 -0.9670  0.2950
11259TIP3   OH255191   3.038   4.493  15.981  0.2311  0.4767  0.2063
11259TIP3    H155192   3.074   4.577  15.950  3.7507 -0.2750  1.9675
11259TIP3    H255193   2.954   4.516  16.020 -0.0638  2.7821 -1.6841
11260TIP3   OH255194   3.580   3.573  13.947  0.4719  0.0828 -0.2308
11260TIP3    H155195   3.636   3.496  13.954 -0.8637 -1.0027 -1.2347
11260TIP3    H255196   3.511   3.558  14.012 -0.3915 -0.1060 -1.1742
11261TIP3   OH255197   1.547   0.955   3.610  0.2214 -0.3561  0.3528
11261TIP3    H155198   1.555   0.874   3.660  0.5324  1.2040  2.9326
11261TIP3    H255199   1.458   0.953   3.575  0.3915 -2.0151 -0.0323
11262TIP3   OH255200   3.179   2.171   2.492  0.1786  0.0006  0.1346
11262TIP3    H155201   3.183   2.075   2.491 -1.2214 -0.0589 -0.0447
11262TIP3    H255202   3.188   2.196   2.400  2.0451  0.1274  0.3220
11263TIP3   OH255203   0.119   1.054  14.761  0.3169  0.4319 -0.4550
11263TIP3    H155204   0.032   1.023  14.787  0.5032 -0.0967 -0.4680
11263TIP3    H255205   0.122   1.038  14.666 -0.1907  1.9440 -0.7439
11264TIP3   OH255206   1.327   4.167   1.057 -0.3384  0.0897 -0.1306
11264TIP3    H155207   1.385   4.194   1.129  1.4088  0.2865 -1.5927
11264TIP3    H255208   1.295   4.250   1.020 -0.0926  0.0198 -0.4989
11265TIP3   OH255209   6.673   2.083   2.166  0.0663 -0.0910 -0.1358
11265TIP3    H155210   6.620   2.037   2.101  0.8392 -0.6738 -0.3485
11265TIP3    H255211   6.757   2.098   2.124 -0.3115  1.9269 -0.2297
11266TIP3   OH255212   3.148   1.413  15.980  0.2903 -0.2848  0.1690
11266TIP3    H155213   3.186   1.341  16.029 -0.5645  0.1307  1.4649
11266TIP3    H255214   3.144   1.381  15.889  0.4410 -1.6496  0.6365
11267TIP3   OH255215   6.683   1.745  12.279  0.2963 -0.2750 -0.4362
11267TIP3    H155216   6.702   1.695  12.359  1.4770 -1.7695 -1.6177
11267TIP3    H255217   6.632   1.684  12.225  0.0489  0.5097 -1.0945
11268TIP3   OH255218   3.509   1.194  14.306  0.1205 -0.4700  0.0490
11268TIP3    H155219   3.445   1.153  14.364 -2.0148  2.9854  0.2689
11268TIP3    H255220   3.469   1.189  14.219  0.2006  0.4182 -0.0411
11269TIP3   OH255221   4.258   3.369  15.842 -0.1356  0.2693  0.0270
11269TIP3    H155222   4.329   3.384  15.780 -0.0411 -2.0658 -0.4843
11269TIP3    H255223   4.300   3.322  15.915 -0.1995  3.1270  1.9991
11270TIP3   OH255224   2.804   1.914   2.240  0.1159  0.0635 -0.1459
11270TIP3    H155225   2.721   1.936   2.199  0.1714 -1.8131 -1.3475
11270TIP3    H255226   2.799   1.953   2.327 -1.7055  0.6029 -0.4694
11271TIP3   OH255227   0.618   6.618  10.662  0.3683 -0.1932  0.2676
11271TIP3    H155228   0.670   6.587  10.588 -0.6495 -0.8976 -0.1654
11271TIP3    H255229   0.596   6.708  10.640  1.4250  0.1317  0.4780
11272TIP3   OH255230   5.441   0.186  14.778  0.0139 -0.1006  0.1131
11272TIP3    H155231   5.529   0.150  14.772 -1.3948 -3.6836 -0.2042
11272TIP3    H255232   5.426   0.227  14.693  0.6799 -1.1801 -0.5343
11273TIP3   OH255233   1.298   4.367   0.026 -0.1654  0.3839  0.5043
11273TIP3    H155234   1.380   4.398   0.064  0.7400 -0.3292 -0.8474
11273TIP3    H255235   1.324   4.306  -0.042 -1.7649  1.2892 -0.9687
11274TIP3   OH255236   4.259   2.382  12.629  0.0655  0.4417 -0.0520
11274TIP3    H155237   4.346   2.376  12.590 -0.3100 -0.1521 -0.8322
11274TIP3    H255238   4.233   2.473  12.615  1.0398  0.9178  1.2487
11275TIP3   OH255239   3.321   0.198   4.454 -0.0665  0.4057  0.5831
11275TIP3    H155240   3.310   0.222   4.546 -0.6402  1.9755  0.1320
11275TIP3    H255241   3.287   0.274   4.406  1.9845  0.4091 -0.9146
11276TIP3   OH255242   0.431   6.448  15.991  0.6497 -0.6094  0.6054
11276TIP3    H155243   0.487   6.434  15.914  0.9446 -3.5266  1.2834
11276TIP3    H255244   0.388   6.532  15.974  1.5108 -0.6763 -2.2495
11277TIP3   OH255245   4.001   4.865  14.946  0.3458 -0.2522  0.3585
11277TIP3    H155246   4.053   4.928  14.996 -0.8554  0.2830  0.9484
11277TIP3    H255247   3.956   4.813  15.012  0.8640 -1.3385 -0.1367
11278TIP3   OH255248   1.834   6.732   0.382 -0.0671 -0.5181  0.5973
11278TIP3    H155249   1.837   6.637   0.386 -1.2869 -0.6173 -0.5217
11278TIP3    H255250   1.865   6.761   0.467  2.3957 -1.8726  0.2062
11279TIP3   OH255251   3.771   0.660  14.794  0.5481 -0.0617 -0.2252
11279TIP3    H155252   3.713   0.721  14.840  1.1902  0.9167 -0.6997
11279TIP3    H255253   3.828   0.716  14.742  0.4637 -1.1235 -1.4778
11280TIP3   OH255254   0.778   0.009  14.704  0.2421 -0.3816  0.0357
11280TIP3    H155255   0.728  -0.047  14.765 -1.3694  0.2205 -0.6987
11280TIP3    H255256   0.740  -0.010  14.618  0.6470  0.8029 -0.4056
11281TIP3   OH255257   0.114   4.670  11.065 -1.0187  0.3073  0.4745
11281TIP3    H155258   0.087   4.582  11.038  1.6589 -0.8136  1.2367
11281TIP3    H255259   0.121   4.719  10.983  1.1294 -1.3047 -0.3496
11282TIP3   OH255260   1.434   4.519   3.674 -0.3429  0.0244 -0.1602
11282TIP3    H155261   1.456   4.606   3.640  1.1276  0.2686  1.3666
11282TIP3    H255262   1.369   4.536   3.742 -0.9610 -0.1898 -0.6925
11283TIP3   OH255263   5.378   4.271   4.966  0.5213 -0.2510  0.2670
11283TIP3    H155264   5.341   4.228   4.889  0.9512 -1.2021  0.5892
11283TIP3    H255265   5.333   4.356   4.969  0.1814 -0.3837 -0.7704
11284TIP3   OH255266   3.675   5.452   1.465 -0.1257 -0.1279  0.0793
11284TIP3    H155267   3.623   5.445   1.544 -0.3535 -1.5900 -0.1954
11284TIP3    H255268   3.693   5.546   1.456 -1.3375  0.1969  1.0438
11285TIP3   OH255269   6.613   6.390  16.574 -0.4221  0.1985  0.4780
11285TIP3    H155270   6.523   6.415  16.552 -0.8708 -1.9643 -0.3174
11285TIP3    H255271   6.667   6.461  16.539 -1.6789  0.4397 -1.0183
11286TIP3   OH255272   2.115   5.338  17.168  0.1096 -0.6166 -0.5573
11286TIP3    H155273   2.103   5.251  17.207 -0.0415 -0.1981  0.3643
11286TIP3    H255274   2.200   5.334  17.126  0.6741 -0.8236  0.5705
11287TIP3   OH255275   5.317   3.644   5.265 -0.0866  0.4752  0.0967
11287TIP3    H155276   5.232   3.651   5.223 -1.0916 -0.2023  1.9452
11287TIP3    H255277   5.357   3.565   5.228 -0.6975  0.2279 -0.0320
11288TIP3   OH255278   1.546   4.442   0.406 -0.1805 -0.4010  0.2738
11288TIP3    H155279   1.504   4.402   0.482 -0.5134  2.6459  1.7691
11288TIP3    H255280   1.478   4.443   0.339 -0.4352 -1.5031  0.5061
11289TIP3   OH255281   4.153   0.740  10.906 -0.7484 -1.0765 -0.3015
11289TIP3    H155282   4.074   0.688  10.924 -0.4067 -1.3272  0.5117
11289TIP3    H255283   4.163   0.795  10.984 -0.8633 -0.0959 -0.9798
11290TIP3   OH255284   0.067   3.480  15.443  0.5639 -0.2445  0.1307
11290TIP3    H155285   0.149   3.492  15.492  0.0985  1.6183  0.4744
11290TIP3    H255286   0.094   3.472  15.352  1.0862  1.0644  0.1658
11291TIP3   OH255287   0.383   1.426  13.898  0.0051 -0.6860  0.3074
11291TIP3    H155288   0.459   1.398  13.950  0.1381 -1.2710 -0.2023
11291TIP3    H255289   0.397   1.520  13.885  0.5077 -0.7403  0.4296
11292TIP3   OH255290   4.619   4.944  14.171  0.4443  0.0031  0.6541
11292TIP3    H155291   4.661   4.873  14.122  1.1113  0.1284  1.0282
11292TIP3    H255292   4.679   4.961  14.244  0.7817  1.5694  0.0518
11293TIP3   OH255293   4.845   4.334  12.923 -0.2446  0.1656 -0.2392
11293TIP3    H155294   4.759   4.371  12.901  0.0895 -0.0666 -2.0146
11293TIP3    H255295   4.849   4.338  13.019 -1.6660  1.4305 -0.2136
11294TIP3   OH255296   1.234   3.738  10.710 -0.1775 -0.0715  0.4629
11294TIP3    H155297   1.141   3.761  10.718  0.0113  0.5494  0.8766
11294TIP3    H255298   1.273   3.810  10.661  0.0192 -0.5090 -0.0334
11295TIP3   OH255299   5.837   0.150  10.868  0.0715  0.7952  0.4628
11295TIP3    H155300   5.773   0.163  10.799  2.0012  2.1776 -1.1002
11295TIP3    H255301   5.872   0.062  10.851  0.1753  0.9271 -0.0192
11296TIP3   OH255302   4.705   2.870   0.421  0.4668  0.1065 -0.3015
11296TIP3    H155303   4.756   2.799   0.382 -2.8657 -3.0929  0.8314
11296TIP3    H255304   4.654   2.906   0.349  0.6891 -0.0069 -0.5146
11297TIP3   OH255305   3.096   6.295  16.145  0.5070  0.7530  0.0653
11297TIP3    H155306   3.047   6.360  16.197 -0.4526  0.9675 -1.0776
11297TIP3    H255307   3.185   6.329  16.142  0.2094  1.5665  0.2303
11298TIP3   OH255308   4.797   3.722  12.384 -0.6905  0.1632  0.5509
11298TIP3    H155309   4.867   3.707  12.321  1.5083 -1.2339  3.2207
11298TIP3    H255310   4.719   3.738  12.330  1.5009  1.0869 -2.4742
11299TIP3   OH255311   3.135   3.580  14.812  0.0558  0.3700  0.4578
11299TIP3    H155312   3.089   3.662  14.829 -1.1243  0.5532 -3.0884
11299TIP3    H255313   3.076   3.512  14.845 -1.3775  0.7498 -1.2703
11300TIP3   OH255314   4.925   2.940  14.296  0.3557  0.2417  0.7092
11300TIP3    H155315   4.918   2.895  14.381  1.5397 -1.9469 -0.3271
11300TIP3    H255316   4.920   2.871  14.231 -0.7332  1.9236 -1.0615
11301TIP3   OH255317   3.124   6.785  13.801 -0.1024  0.2156  0.0573
11301TIP3    H155318   3.097   6.723  13.733  0.9094  0.4977 -0.5987
11301TIP3    H255319   3.219   6.786  13.797 -0.1294  2.5548 -0.5958
11302TIP3   OH255320   1.502   0.473   0.634  0.2653  0.3186  0.0933
11302TIP3    H155321   1.530   0.396   0.683 -1.0725 -1.1781 -1.4071
11302TIP3    H255322   1.547   0.466   0.550 -0.8684  0.4262 -0.5419
11303TIP3   OH255323   4.359   4.254   0.390  0.6415  0.1280  0.0575
11303TIP3    H155324   4.453   4.258   0.378  0.3343 -1.3432 -3.1870
11303TIP3    H255325   4.331   4.345   0.391  1.7534  0.5236 -2.0898
11304TIP3   OH255326   4.961   3.471  16.018  0.1314  0.3178 -0.1637
11304TIP3    H155327   4.968   3.375  16.012 -1.2681  0.1074  1.0460
11304TIP3    H255328   4.992   3.491  16.106  1.4450  1.1083 -0.7970
11305TIP3   OH255329   0.603   1.382  14.066 -0.1451 -0.1457 -0.2414
11305TIP3    H155330   0.598   1.293  14.103  1.9176 -0.5364 -0.8261
11305TIP3    H255331   0.549   1.435  14.125  0.5681 -1.3378  1.5472
11306TIP3   OH255332   4.995   4.656   4.907 -0.7219 -0.1416  0.3282
11306TIP3    H155333   5.054   4.682   4.977  0.6554 -1.8334 -0.1667
11306TIP3    H255334   4.995   4.560   4.909 -2.1831 -0.1843 -0.7210
11307TIP3   OH255335   4.076   2.574   6.186 -0.0380 -0.1046 -0.6237
11307TIP3    H155336   4.081   2.642   6.253  0.8333 -0.2404 -0.5431
11307TIP3    H255337   4.148   2.514   6.207 -0.3231 -0.6373 -1.1426
11308TIP3   OH255338   1.959   0.729   0.062  0.2224 -0.3182 -0.2124
11308TIP3    H155339   1.991   0.814   0.092  1.3307 -1.3635  1.7054
11308TIP3    H255340   1.880   0.749   0.013 -1.1347  1.6102  2.5875
11309TIP3   OH255341   1.941   3.338   5.327  0.2483  0.2210  0.3991
11309TIP3    H155342   1.961   3.336   5.233  0.5625  1.9676  0.4260
11309TIP3    H255343   1.875   3.269   5.338 -1.3812  1.4008 -1.5027
11310TIP3   OH255344   3.416   2.049   5.721 -0.0444  0.9371  0.0467
11310TIP3    H155345   3.342   2.066   5.662  0.7254  0.5045 -1.0658
11310TIP3    H255346   3.492   2.083   5.674  0.6129  0.3903  0.7076
11311TIP3   OH255347   2.728   0.032   2.725 -0.3781 -0.2471  0.6350
11311TIP3    H155348   2.774   0.097   2.778 -0.1488 -0.6868  0.9794
11311TIP3    H255349   2.752  -0.052   2.764 -0.1535 -0.5807 -0.1994
11312TIP3   OH255350   5.800   3.472  14.184 -0.8607 -0.1481 -0.2724
11312TIP3    H155351   5.724   3.464  14.242 -0.4356 -1.9444  0.0742
11312TIP3    H255352   5.861   3.528  14.232 -1.5635  0.4934 -0.1205
11313TIP3   OH255353   4.739   5.260  10.767 -0.4599  0.1217 -0.3599
11313TIP3    H155354   4.818   5.214  10.740 -0.0960  1.4058 -1.5349
11313TIP3    H255355   4.669   5.221  10.714 -0.6811 -1.2410  0.9136
11314TIP3   OH255356   6.206   6.753  16.509  0.0086 -0.0376 -0.1347
11314TIP3    H155357   6.296   6.788  16.508  0.2397 -0.5691  0.9726
11314TIP3    H255358   6.151   6.829  16.492  0.6166  0.5086  0.2997
11315TIP3   OH255359   2.003   3.470   3.226  0.4291  0.2086  0.3847
11315TIP3    H155360   2.074   3.485   3.163  2.0728 -1.3059  1.8214
11315TIP3    H255361   1.983   3.557   3.261  0.1768  0.9268 -1.4557
11316TIP3   OH255362   6.579   1.737  16.732  0.1058  0.1921  0.1423
11316TIP3    H155363   6.568   1.826  16.764  1.5968  0.1410  0.8376
11316TIP3    H255364   6.612   1.747  16.643 -1.0547  0.3183 -0.2896
11317TIP3   OH255365   4.663   4.224  16.301 -0.3173 -0.1281  0.1847
11317TIP3    H155366   4.593   4.270  16.350 -0.5180 -0.6939  0.4328
11317TIP3    H255367   4.619   4.149  16.261  0.4059 -1.2382  1.4240
11318TIP3   OH255368   5.388   0.421  12.339 -0.0299 -0.5170 -0.3310
11318TIP3    H155369   5.466   0.381  12.301  0.4115  1.0788 -1.1711
11318TIP3    H255370   5.364   0.491  12.278 -4.2866 -3.2280 -1.9792
11319TIP3   OH255371   0.971   4.540  16.425  0.1756 -0.4724  0.5115
11319TIP3    H155372   0.890   4.498  16.396  0.4654  0.1470 -1.2462
11319TIP3    H255373   1.001   4.588  16.349  1.9494 -0.2961  1.3108
11320TIP3   OH255374   4.661   2.355   5.294 -0.2264  0.1544 -0.4310
11320TIP3    H155375   4.589   2.313   5.248  0.3234 -0.2890 -0.8856
11320TIP3    H255376   4.649   2.449   5.277 -1.9738  0.2825  1.3314
11321TIP3   OH255377   4.730   4.553   5.527 -0.0687  0.3424  0.3334
11321TIP3    H155378   4.716   4.647   5.517  0.3940  0.7430  2.9687
11321TIP3    H255379   4.643   4.517   5.543 -0.2200  0.3495 -0.4662
11322TIP3   OH255380   5.977   5.704   0.074 -0.6549  0.0257  0.5220
11322TIP3    H155381   5.917   5.631   0.087  1.6499 -2.1496 -0.6912
11322TIP3    H255382   6.010   5.725   0.162 -0.9216 -0.7493  0.8049
11323TIP3   OH255383   5.441   3.970   1.423  0.1155  0.2136 -0.5974
11323TIP3    H155384   5.508   3.940   1.363  1.3834 -0.8197  1.2725
11323TIP3    H255385   5.440   4.065   1.413  0.9655  0.1187 -1.5594
11324TIP3   OH255386   0.587   0.157  13.192  0.2547  0.3769 -0.0973
11324TIP3    H155387   0.577   0.233  13.249 -0.1672 -0.9511  1.6515
11324TIP3    H255388   0.568   0.082  13.249  1.7009 -1.1011 -1.5072
11325TIP3   OH255389   2.892   3.691  13.513  0.2388  0.6497  0.0667
11325TIP3    H155390   2.983   3.718  13.506  0.0200  1.4268  0.1603
11325TIP3    H255391   2.890   3.631  13.588  0.5242  1.2586  0.5592
11326TIP3   OH255392   2.497   4.178   6.028  0.1854  0.6087 -0.4773
11326TIP3    H155393   2.563   4.165   6.096  1.2187 -0.0250 -1.5808
11326TIP3    H255394   2.417   4.144   6.066  0.8981 -0.3644  0.1743
11327TIP3   OH255395   1.094   6.596  16.297 -0.1611  0.1808 -0.2349
11327TIP3    H155396   1.094   6.500  16.305  1.7156  0.1509 -0.4140
11327TIP3    H255397   1.139   6.613  16.215 -0.8851  1.2165 -0.4185
11328TIP3   OH255398   3.033   2.391   0.447  0.3339 -0.8163  0.0396
11328TIP3    H155399   2.952   2.339   0.453 -1.1489  1.4198  0.1118
11328TIP3    H255400   3.003   2.478   0.420  2.8179 -0.1541 -0.6463
11329TIP3   OH255401   6.123   3.120  12.116  0.3424 -0.3344 -0.8403
11329TIP3    H155402   6.157   3.166  12.194 -1.5833 -0.5377  0.1656
11329TIP3    H255403   6.201   3.088  12.071  1.5392  0.4915  0.5749
11330TIP3   OH255404   4.188   0.454  16.112 -0.4346  0.7127 -0.4127
11330TIP3    H155405   4.236   0.400  16.050 -0.7111  0.1957 -0.1782
11330TIP3    H255406   4.107   0.406  16.129  0.0415  0.3979  1.0371
11331TIP3   OH255407   1.068   4.842  15.067 -0.2526  0.0000  0.1577
11331TIP3    H155408   1.040   4.859  15.156 -1.0993 -1.0687  0.1069
11331TIP3    H255409   1.059   4.747  15.057 -1.8633  0.3194 -1.6379
11332TIP3   OH255410   0.184   1.932  11.546 -0.0934  0.1876  0.2108
11332TIP3    H155411   0.156   1.972  11.628  1.8494  3.5040 -0.6223
11332TIP3    H255412   0.126   1.971  11.480  0.9757  0.6723 -0.4581
11333TIP3   OH255413   2.034   0.594   4.214 -0.2284 -0.2777  0.3611
11333TIP3    H155414   1.983   0.635   4.284 -1.4570  0.2261 -0.8252
11333TIP3    H255415   1.971   0.541   4.166  1.1650 -2.9951  1.3783
11334TIP3   OH255416   4.101   3.615  16.655  0.4871 -0.3960 -0.4495
11334TIP3    H155417   4.065   3.702  16.672 -0.4495 -0.7925 -0.3839
11334TIP3    H255418   4.183   3.632  16.608 -0.2506  0.4941 -1.4286
11335TIP3   OH255419   1.753   5.616  15.833 -0.0104  0.7840  0.2683
11335TIP3    H155420   1.681   5.667  15.872  0.9288  1.9968  0.4480
11335TIP3    H255421   1.710   5.560  15.769 -1.4042 -0.1626  1.9754
11336TIP3   OH255422   2.528   5.118  11.957  0.5665  0.1628  0.4942
11336TIP3    H155423   2.580   5.104  11.877  1.5519 -0.0279  1.1659
11336TIP3    H255424   2.444   5.149  11.925  1.5402  1.8046 -0.5392
11337TIP3   OH255425   4.622   6.534   4.224 -0.2682  0.2136  0.1553
11337TIP3    H155426   4.616   6.441   4.200  0.5967 -0.4231  2.3245
11337TIP3    H255427   4.543   6.573   4.186 -0.9749 -1.5271 -0.2538
11338TIP3   OH255428   1.288   4.366  12.181 -0.0059  0.1134  0.3779
11338TIP3    H155429   1.288   4.288  12.237 -0.6187  0.6159  1.0956
11338TIP3    H255430   1.277   4.332  12.092 -1.3282 -0.5725  0.7806
11339TIP3   OH255431   6.395   0.110   5.180  0.0899  0.2555  0.6713
11339TIP3    H155432   6.432   0.052   5.113 -3.5167 -0.5064 -0.7542
11339TIP3    H255433   6.318   0.065   5.211 -1.4542  3.1860  1.2864
11340TIP3   OH255434   3.473   0.141  12.493  0.3540  0.6181  0.0101
11340TIP3    H155435   3.445   0.154  12.403  1.8504 -0.0263 -0.5550
11340TIP3    H255436   3.560   0.101  12.486  0.3584  0.2963  1.7284
11341TIP3   OH255437   5.569   6.364   1.339  0.6961 -0.0102  0.7330
11341TIP3    H155438   5.568   6.444   1.393  0.9901 -0.5798  1.5918
11341TIP3    H255439   5.490   6.372   1.285 -0.6901 -0.3418  2.6215
11342TIP3   OH255440   1.369   4.414  15.041  0.2444 -0.1274 -0.2146
11342TIP3    H155441   1.415   4.356  15.102 -0.6226  1.2684  1.8629
11342TIP3    H255442   1.376   4.371  14.956  0.8208 -2.5510  1.0093
11343TIP3   OH255443   3.612   6.724   0.596 -0.2519 -0.4239 -0.3214
11343TIP3    H155444   3.555   6.679   0.533  0.0324 -1.0817 -0.1093
11343TIP3    H255445   3.623   6.812   0.559 -1.7273 -0.1593 -0.1676
11344TIP3   OH255446   4.661   3.447   3.249  0.9011  0.1740 -0.2269
11344TIP3    H155447   4.621   3.385   3.310 -0.3959  0.5070 -0.7273
11344TIP3    H255448   4.738   3.480   3.295 -0.2655  0.6966  1.3704
11345TIP3   OH255449   2.182   6.164  11.979 -0.2658 -0.1225  0.1571
11345TIP3    H155450   2.244   6.118  11.922 -1.4739 -1.0678 -0.4251
11345TIP3    H255451   2.166   6.104  12.052 -1.5919 -0.5144 -0.4338
11346TIP3   OH255452   6.343   1.377   5.235  0.8982  0.0102  0.1307
11346TIP3    H155453   6.403   1.357   5.163  0.5881 -2.1382  0.4371
11346TIP3    H255454   6.344   1.298   5.290  0.0881  1.0947  1.7547
11347TIP3   OH255455   3.722   4.314   3.051  0.0197 -0.9123  0.0764
11347TIP3    H155456   3.675   4.377   2.996 -0.7971 -0.9013  0.7826
11347TIP3    H255457   3.772   4.261   2.988 -2.3410 -2.0836 -0.8565
11348TIP3   OH255458   3.137   2.552  14.189  0.3679 -0.2516 -0.0046
11348TIP3    H155459   3.225   2.563  14.226  1.1803 -0.7574 -1.7747
11348TIP3    H255460   3.122   2.633  14.139  0.3475 -0.7220 -0.7605
11349TIP3   OH255461   6.030   2.305   1.264  0.0833  0.6291 -0.7621
11349TIP3    H155462   5.956   2.364   1.277  0.0319  0.2290  0.8879
11349TIP3    H255463   6.086   2.321   1.340  0.8621 -0.2752 -1.1440
11350TIP3   OH255464   1.509   1.994   2.168 -0.2147 -0.2897 -0.1008
11350TIP3    H155465   1.512   1.971   2.075  1.7089  1.5781 -0.5558
11350TIP3    H255466   1.557   2.077   2.173 -0.2126 -0.4190  2.5728
11351TIP3   OH255467   6.381   5.272  11.478  0.5559 -0.3236  0.4332
11351TIP3    H155468   6.414   5.182  11.473  0.3539 -0.3011 -1.5400
11351TIP3    H255469   6.448   5.320  11.526 -0.0985 -1.8713  2.9665
11352TIP3   OH255470   3.591   5.959   5.486  0.3428 -0.1926  0.2376
11352TIP3    H155471   3.512   5.982   5.534  0.3836  2.8319 -1.0459
11352TIP3    H255472   3.588   5.863   5.478 -4.0018 -0.0100 -1.1951
11353TIP3   OH255473   5.635   5.616  11.922  0.5636 -0.0294 -0.2938
11353TIP3    H155474   5.678   5.555  11.862 -1.0213 -0.5895 -0.8621
11353TIP3    H255475   5.708   5.663  11.963  1.7813 -1.8314 -0.3287
11354TIP3   OH255476   2.414   1.466   1.024  0.0827 -0.0630 -0.0767
11354TIP3    H155477   2.504   1.452   0.998 -0.4411 -1.9846 -0.9131
11354TIP3    H255478   2.382   1.379   1.050 -1.4910  0.6103  0.3197
11355TIP3   OH255479   0.631   1.209   4.796  0.0283  0.0369  0.0731
11355TIP3    H155480   0.626   1.294   4.751  1.9894 -0.2265 -0.7344
11355TIP3    H255481   0.594   1.225   4.882 -2.5184  0.9210 -1.1314
11356TIP3   OH255482   0.964   1.039  13.473  0.1386  0.6027  0.3049
11356TIP3    H155483   1.043   1.075  13.432 -0.4429  0.4009 -1.0099
11356TIP3    H255484   0.895   1.102  13.452 -0.5092 -0.3489 -0.4737
11357TIP3   OH255485   0.065   3.962   2.584 -0.1733  0.1663 -0.2245
11357TIP3    H155486  -0.005   3.930   2.642 -0.1318 -0.8890 -0.7473
11357TIP3    H255487   0.125   4.009   2.642 -1.0469  0.6420  0.3094
11358TIP3   OH255488   3.588   4.568   1.236 -0.2979  0.0049 -0.0305
11358TIP3    H155489   3.523   4.602   1.298  0.0173 -1.1445  0.9349
11358TIP3    H255490   3.597   4.638   1.171 -1.2633  0.8690  0.7446
11359TIP3   OH255491   3.581   4.329  15.347 -0.5796  0.1697  0.3043
11359TIP3    H155492   3.654   4.313  15.287 -0.5484  0.8718  0.1529
11359TIP3    H255493   3.619   4.375  15.421 -1.0762  1.5900 -0.3156
11360TIP3   OH255494   2.797   5.738   3.470  0.1515 -0.6186  0.2407
11360TIP3    H155495   2.750   5.819   3.447 -0.4730 -0.7837  0.9029
11360TIP3    H255496   2.731   5.669   3.458 -0.2678 -0.6753  2.7698
11361TIP3   OH255497   4.969   1.161   4.249  0.2386  0.2061  0.0108
11361TIP3    H155498   4.924   1.124   4.325  1.0697  0.5618  0.6946
11361TIP3    H255499   4.965   1.092   4.183  0.0282 -0.3427  0.5842
11362TIP3   OH255500   4.170   0.039  15.681  0.2514 -0.7461 -0.3775
11362TIP3    H155501   4.147   0.129  15.658  0.6823 -0.1187  1.5977
11362TIP3    H255502   4.226   0.010  15.609  0.7765  0.8299 -0.6210
11363TIP3   OH255503   0.626   1.815   0.261 -0.3448 -0.5214 -0.0563
11363TIP3    H155504   0.693   1.872   0.299  0.5135 -1.2017 -0.5552
11363TIP3    H255505   0.560   1.876   0.228  1.9432  0.3760 -3.2578
11364TIP3   OH255506   4.030   4.232  12.692  0.1203 -0.3490 -0.0900
11364TIP3    H155507   4.041   4.325  12.672  0.9670  0.0301  1.9723
11364TIP3    H255508   4.107   4.190  12.652  0.5981  0.0718  0.3793
11365TIP3   OH255509   3.517   6.203   0.974 -0.0722  0.2329 -0.3331
11365TIP3    H155510   3.497   6.218   1.066 -1.9690 -0.8704 -0.5415
11365TIP3    H255511   3.532   6.291   0.938 -1.3733  0.8399  0.5685
11366TIP3   OH255512   0.713   5.089  11.155 -0.3433 -0.1460  0.1960
11366TIP3    H155513   0.719   5.091  11.060 -0.1775 -1.7705  0.1596
11366TIP3    H255514   0.804   5.081  11.184 -0.4581 -0.5684  0.4496
11367TIP3   OH255515   2.239   0.077   4.200 -0.0186 -0.0570 -0.4380
11367TIP3    H155516   2.274   0.161   4.230 -0.0046 -0.5252  0.8718
11367TIP3    H255517   2.266   0.014   4.267  0.8085 -1.2978 -1.8854
11368TIP3   OH255518   0.953   6.452   1.613  0.2004 -0.1110 -0.0275
11368TIP3    H155519   0.930   6.489   1.698  0.4283  1.2998 -0.5650
11368TIP3    H255520   0.868   6.427   1.574  0.0809 -0.5625  0.5125
11369TIP3   OH255521   4.707   4.870  16.889  0.2455  0.3045  0.3857
11369TIP3    H155522   4.696   4.931  16.816 -1.3463  0.4963  0.7688
11369TIP3    H255523   4.650   4.797  16.867  1.8972 -0.9275  0.0921
11370TIP3   OH255524   0.238   4.857  12.976 -0.6108 -0.4108  0.0092
11370TIP3    H155525   0.304   4.923  12.992 -0.9209 -0.2785  0.7687
11370TIP3    H255526   0.287   4.776  12.962 -0.1372  0.2879 -2.7270
11371TIP3   OH255527   3.274   4.433   1.341 -0.4740  0.3350 -0.0391
11371TIP3    H155528   3.231   4.518   1.346 -0.5980  0.3251 -0.8539
11371TIP3    H255529   3.291   4.420   1.247 -0.5890 -0.5940  0.0617
11372TIP3   OH255530   3.911   3.969  12.011  0.0597  0.3188 -0.4072
11372TIP3    H155531   3.943   4.023  12.083 -0.8574  1.4874 -0.8595
11372TIP3    H255532   3.939   4.015  11.932 -2.2737  1.1129 -0.8150
11373TIP3   OH255533   3.252   4.919  12.385  0.3766  0.4057 -0.0161
11373TIP3    H155534   3.330   4.872  12.415 -1.2066 -3.0094 -1.0020
11373TIP3    H255535   3.245   4.896  12.292 -2.6308 -0.5912  0.4175
11374TIP3   OH255536   4.195   5.377   4.525  0.0761 -0.4236 -0.0056
11374TIP3    H155537   4.121   5.352   4.469 -0.0250  0.0451 -0.0877
11374TIP3    H255538   4.246   5.437   4.472  1.3202 -1.8758 -0.4725
11375TIP3   OH255539   0.867   3.391  15.894  0.4842 -0.5089  0.3016
11375TIP3    H155540   0.924   3.461  15.864 -4.0736  3.3440 -0.0270
11375TIP3    H255541   0.868   3.398  15.990  1.0519 -0.8685  0.3225
11376TIP3   OH255542   0.206   0.781  16.246 -0.1110 -0.2142 -0.2732
11376TIP3    H155543   0.119   0.817  16.261 -0.4619  0.5056 -3.8250
11376TIP3    H255544   0.206   0.699  16.296 -1.8104  1.1137  2.0125
11377TIP3   OH255545   0.314   5.967   5.421 -0.5248  0.1393  0.6148
11377TIP3    H155546   0.268   5.884   5.411 -1.3528  0.7747 -1.0333
11377TIP3    H255547   0.406   5.943   5.427 -0.6782 -0.8322 -0.8088
11378TIP3   OH255548   0.585   4.733  13.610  0.0417  0.0319  0.5076
11378TIP3    H155549   0.501   4.778  13.619 -0.7222 -1.4563  0.9975
11378TIP3    H255550   0.640   4.773  13.677  0.4524  2.5987 -1.3207
11379TIP3   OH255551   5.460   0.162   5.197 -0.2661  0.5836  0.0871
11379TIP3    H155552   5.493   0.240   5.240  0.2373  0.8906 -0.8568
11379TIP3    H255553   5.488   0.170   5.106  0.2397 -0.9425  0.0856
11380TIP3   OH255554   5.198   3.775   2.547 -0.6057 -0.1236  0.0915
11380TIP3    H155555   5.181   3.749   2.456  1.9513 -1.8305  0.0403
11380TIP3    H255556   5.112   3.799   2.582 -1.9271 -1.3666 -2.1912
11381TIP3   OH255557   5.140   1.040  14.116  0.4459 -0.1657  0.2361
11381TIP3    H155558   5.202   0.982  14.160  1.9225  1.4239  0.2934
11381TIP3    H255559   5.064   0.985  14.098  2.0526 -2.2596 -0.2595
11382TIP3   OH255560   0.674   5.393   5.579  0.5907  0.2648  0.8345
11382TIP3    H155561   0.716   5.326   5.632  1.3106 -1.0897 -1.3784
11382TIP3    H255562   0.643   5.347   5.501  0.7575  2.3990 -0.5658
11383TIP3   OH255563   0.822   2.767  15.029  0.5127 -0.1764 -0.1690
11383TIP3    H155564   0.854   2.778  14.940  0.4448  0.8617 -0.0812
11383TIP3    H255565   0.734   2.805  15.027  0.6595  0.2022  0.4254
11384TIP3   OH255566   4.971   0.324  11.746  0.2783 -0.5205  1.0693
11384TIP3    H155567   4.946   0.392  11.809  0.3045  0.1800  0.3353
11384TIP3    H255568   4.987   0.372  11.665 -2.1902 -1.6843 -0.1495
11385TIP3   OH255569   5.163   6.183  13.445  0.0851 -0.3105  0.4894
11385TIP3    H155570   5.226   6.236  13.397  0.5528  0.3462  1.8144
11385TIP3    H255571   5.214   6.109  13.478 -1.0965 -3.1531 -3.6858
11386TIP3   OH255572   1.676   0.181  12.373  0.4630  0.5859 -0.6725
11386TIP3    H155573   1.660   0.187  12.278  1.3120  0.9732 -0.7903
11386TIP3    H255574   1.728   0.258  12.393  0.8091  0.1699  0.0080
11387TIP3   OH255575   3.810   1.696  11.723  0.6592 -0.3255 -0.2623
11387TIP3    H155576   3.795   1.734  11.636  1.1520  0.6163  0.0458
11387TIP3    H255577   3.835   1.771  11.777  1.3415 -1.0572  0.4471
11388TIP3   OH255578   3.621   6.787  14.434  0.1406 -0.5885  0.1337
11388TIP3    H155579   3.577   6.864  14.399 -0.7541 -0.8537  0.6747
11388TIP3    H255580   3.684   6.763  14.366 -0.3372 -0.0330 -0.5121
11389TIP3   OH255581   4.841   4.600   0.046 -0.1933 -0.3427 -0.1501
11389TIP3    H155582   4.852   4.693   0.027  2.3844 -0.6266 -0.3432
11389TIP3    H255583   4.865   4.591   0.138 -0.1369 -0.8509 -0.2119
11390TIP3   OH255584   6.503   3.691   5.140  0.0303  0.3532  0.4530
11390TIP3    H155585   6.525   3.773   5.184  0.8438  0.6792 -0.5311
11390TIP3    H255586   6.443   3.647   5.199  0.8677  0.9129  1.7349
11391TIP3   OH255587   1.960   5.612  14.691 -0.1241  0.1090 -0.6272
11391TIP3    H155588   1.906   5.691  14.699 -1.6574 -0.8170 -1.5312
11391TIP3    H255589   1.956   5.572  14.778 -1.5832 -0.3580 -0.8877
11392TIP3   OH255590   4.853   6.349   0.774 -0.1363 -0.2184  0.2151
11392TIP3    H155591   4.906   6.412   0.725  2.2472 -2.1427  0.2220
11392TIP3    H255592   4.863   6.267   0.726 -0.0743 -1.4813  2.3181
11393TIP3   OH255593   5.763   2.054  15.274  0.0169 -0.0702  0.1942
11393TIP3    H155594   5.703   1.983  15.297  0.8628 -0.7113  0.4637
11393TIP3    H255595   5.707   2.124  15.242 -0.7641 -1.3699 -1.3922
11394TIP3   OH255596   3.050   3.528   5.098 -0.2200 -0.3676 -0.7518
11394TIP3    H155597   3.061   3.617   5.063  0.6659 -0.4060 -0.5642
11394TIP3    H255598   3.130   3.482   5.075  0.2547 -0.4830  1.0399
11395TIP3   OH255599   4.720   0.215   0.863 -0.3444  0.0665  0.5575
11395TIP3    H155600   4.806   0.251   0.844 -1.0045  2.1426  1.2543
11395TIP3    H255601   4.724   0.191   0.956 -0.7297  0.8574  0.7850
11396TIP3   OH255602   6.534   3.021   4.354 -0.3912 -0.1783  0.2718
11396TIP3    H155603   6.451   3.015   4.402 -0.0350 -1.4511  0.7386
11396TIP3    H255604   6.591   2.958   4.397  1.0270  1.1281  0.3429
11397TIP3   OH255605   5.833   2.420  15.294  0.1196  0.7039 -0.4377
11397TIP3    H155606   5.763   2.400  15.356  0.0939 -0.1471 -0.7438
11397TIP3    H255607   5.827   2.515  15.281 -0.4823  0.7446  0.1258
11398TIP3   OH255608   5.944   3.502   5.600  0.1981 -0.4816  0.0677
11398TIP3    H155609   5.933   3.511   5.695 -0.5479 -1.3117  0.0640
11398TIP3    H255610   5.884   3.432   5.575  0.0257  0.0719 -1.1017
11399TIP3   OH255611   5.862   3.261   3.415 -0.3203  0.0924  0.4405
11399TIP3    H155612   5.922   3.203   3.461 -1.1202 -0.5967  0.6205
11399TIP3    H255613   5.911   3.342   3.403  0.9650 -0.7667 -0.2082
11400TIP3   OH255614   0.547   0.754  11.382 -0.8399  0.3451  0.1158
11400TIP3    H155615   0.526   0.716  11.297  2.5029 -1.3874 -0.0334
11400TIP3    H255616   0.529   0.685  11.445  1.5401 -0.1757  0.2567
11401TIP3   OH255617   5.465   0.098   4.518  0.0880 -0.0840 -0.4187
11401TIP3    H155618   5.395   0.122   4.579  0.3307  0.7578 -0.4587
11401TIP3    H255619   5.425   0.034   4.460 -0.6431  0.3619 -0.4189
11402TIP3   OH255620   4.355   5.035  16.970  0.3463 -0.1843 -0.7634
11402TIP3    H155621   4.386   5.117  16.933 -1.0591  0.3960 -0.7069
11402TIP3    H255622   4.259   5.042  16.966  0.2001 -1.2760  0.4073
11403TIP3   OH255623   2.327   1.473   0.050 -0.5697 -0.4356  0.1749
11403TIP3    H155624   2.354   1.528   0.123  2.1210 -1.8717  0.3289
11403TIP3    H255625   2.249   1.516   0.015  0.1772  2.2452  1.6563
11404TIP3   OH255626   1.294   1.158  11.155 -0.1273  0.1359 -0.3013
11404TIP3    H155627   1.370   1.101  11.160 -0.6793 -0.6423 -0.5927
11404TIP3    H255628   1.318   1.226  11.092  0.1682 -0.3538 -0.7171
11405TIP3   OH255629   6.668   0.787  14.456 -0.0711  0.5975 -0.0398
11405TIP3    H155630   6.729   0.768  14.385 -0.9562  3.2021 -1.5391
11405TIP3    H255631   6.584   0.755  14.424  0.4061 -3.0317  2.0410
11406TIP3   OH255632   6.711   3.478   1.632 -0.7087 -0.3809  0.2129
11406TIP3    H155633   6.682   3.567   1.610  1.3472  0.0378 -0.8561
11406TIP3    H255634   6.675   3.423   1.562 -1.0308 -0.2291  0.2596
11407TIP3   OH255635   1.238   2.408   4.661  0.2507  0.0621  0.3009
11407TIP3    H155636   1.190   2.457   4.594 -1.5477  0.0326  1.5335
11407TIP3    H255637   1.228   2.459   4.741  2.8081  0.3622  0.4873
11408TIP3   OH255638   6.062   1.031   4.114 -0.0653  0.6346 -0.3609
11408TIP3    H155639   6.090   0.955   4.063  0.4106  0.3857  0.2689
11408TIP3    H255640   6.121   1.101   4.088  0.9946  0.1849  0.7548
11409TIP3   OH255641   2.246   0.947  15.075  0.1188  0.4518  0.4325
11409TIP3    H155642   2.326   0.895  15.077 -0.8817 -1.1090  0.0154
11409TIP3    H255643   2.203   0.929  15.159 -1.8422 -1.9894 -1.0373
11410TIP3   OH255644   3.893   1.365  16.807  0.2629  0.4643 -0.4834
11410TIP3    H155645   3.912   1.274  16.782 -0.5198  0.1460  0.0500
11410TIP3    H255646   3.976   1.411  16.797  0.8866 -0.5194  0.1106
11411TIP3   OH255647   2.880   2.341  15.777 -0.1222  0.2552  0.2643
11411TIP3    H155648   2.839   2.263  15.814 -1.0237 -0.1646 -1.5221
11411TIP3    H255649   2.919   2.386  15.852  1.0252 -2.2634  1.2242
11412TIP3   OH255650   5.977   4.136   0.546 -0.0348  0.7505  0.3170
11412TIP3    H155651   6.049   4.200   0.547 -0.5521  1.3336  2.7941
11412TIP3    H255652   5.899   4.186   0.569 -0.8482 -0.3528  0.0353
11413TIP3   OH255653   2.308   0.589  13.600  0.0884  0.6148  0.1348
11413TIP3    H155654   2.277   0.582  13.509 -2.0334 -3.1648  1.0734
11413TIP3    H255655   2.393   0.544  13.599  0.1676  0.7649 -0.0040
11414TIP3   OH255656   2.400   5.862  17.208  0.1021  0.4323  0.4491
11414TIP3    H155657   2.384   5.929  17.142 -1.0739 -0.0003  0.2781
11414TIP3    H255658   2.435   5.787  17.160 -1.3291 -0.0986  0.2169
11415TIP3   OH255659   1.633   1.122  14.572 -0.7584 -0.2824 -0.0096
11415TIP3    H155660   1.656   1.191  14.635  0.6414 -0.1733 -0.6081
11415TIP3    H255661   1.538   1.124  14.568 -0.7525  1.5848  0.0381
11416TIP3   OH255662   5.597   2.856  16.586 -0.0383  0.6503 -0.4861
11416TIP3    H155663   5.552   2.927  16.633 -1.8352 -0.5706 -0.3089
11416TIP3    H255664   5.622   2.795  16.655 -1.2892 -0.3921 -0.9472
11417TIP3   OH255665   6.221   6.125  12.817  0.3095 -0.4802 -0.8217
11417TIP3    H155666   6.202   6.046  12.867 -0.5939  0.6523  0.6863
11417TIP3    H255667   6.176   6.195  12.866  1.7735  1.0691 -1.6610
11418TIP3   OH255668   2.194   4.032  16.957 -0.1334  0.3646  0.6938
11418TIP3    H155669   2.160   3.985  16.881  1.6437  0.6214 -0.2919
11418TIP3    H255670   2.138   4.005  17.029 -1.7867  0.0401 -0.6864
11419TIP3   OH255671   6.377   0.422   1.177  0.0231  0.3808  0.1341
11419TIP3    H155672   6.294   0.374   1.185 -0.3699  0.9542 -0.4693
11419TIP3    H255673   6.433   0.364   1.125 -1.2682  1.5989 -2.7078
11420TIP3   OH255674   4.697   0.923   0.561  0.0822 -0.0017  0.0127
11420TIP3    H155675   4.703   0.950   0.469  0.3986 -0.0576  0.0161
11420TIP3    H255676   4.708   1.004   0.611  0.6677 -0.0808  0.0155
11421TIP3   OH255677   3.818   3.299   4.156  0.4873  0.4105  0.1262
11421TIP3    H155678   3.754   3.346   4.103  1.4659  1.7868  0.1347
11421TIP3    H255679   3.899   3.349   4.146  1.7730 -1.7174 -0.4953
11422TIP3   OH255680   0.517   6.608  15.235  0.6352  0.0581  0.4937
11422TIP3    H155681   0.498   6.680  15.175 -0.2334 -0.8799 -0.3621
11422TIP3    H255682   0.613   6.601  15.234  0.6764  0.6426 -0.0718
11423TIP3   OH255683   2.417   3.276  15.837 -0.2924  0.4087 -0.1350
11423TIP3    H155684   2.446   3.351  15.889 -1.3396  0.5752  0.2178
11423TIP3    H255685   2.400   3.314  15.750  0.7626  0.2643 -0.4137
11424TIP3   OH255686   3.535   1.454   0.201  0.2256  0.0536  0.1154
11424TIP3    H155687   3.528   1.545   0.173  0.4258  0.3571  1.0341
11424TIP3    H255688   3.616   1.422   0.163 -0.2085  0.0428 -0.8080
11425TIP3   OH255689   3.327   4.977   3.564  0.0842 -0.0429 -0.0511
11425TIP3    H155690   3.380   5.018   3.496 -0.0726 -0.9610 -0.7308
11425TIP3    H255691   3.381   4.906   3.598 -0.8698 -1.2760 -1.0664
11426TIP3   OH255692   2.926   0.429   2.716  0.2901 -0.7802  0.2303
11426TIP3    H155693   2.933   0.399   2.807 -0.2772 -1.1021  0.1704
11426TIP3    H255694   2.930   0.349   2.664 -2.3088 -0.8753  0.1238
11427TIP3   OH255695   4.705   6.751  13.145  0.3501 -0.2046 -0.1096
11427TIP3    H155696   4.748   6.815  13.088 -1.2193  0.0728 -0.9933
11427TIP3    H255697   4.771   6.730  13.211  1.4950  0.9827 -0.8580
11428TIP3   OH255698   3.778   5.808   3.077  0.5616 -0.5719  0.3993
11428TIP3    H155699   3.853   5.818   3.135  0.3498  0.4622  0.4988
11428TIP3    H255700   3.815   5.770   2.997  1.1093 -0.5056  0.6188
11429TIP3   OH255701   0.300   6.652  11.417  0.1633  0.7227 -0.0831
11429TIP3    H155702   0.255   6.669  11.499 -2.1151 -1.3709 -0.8175
11429TIP3    H255703   0.291   6.733  11.367 -0.9004  1.0643  0.6504
11430TIP3   OH255704   6.223   6.649  15.383  0.2700 -0.4462  0.0848
11430TIP3    H155705   6.243   6.717  15.318 -4.1668  0.9168 -0.0574
11430TIP3    H255706   6.242   6.690  15.467 -1.7893  0.8329 -0.0337
11431TIP3   OH255707   0.504   5.520  10.812 -0.7293 -0.7651  0.4859
11431TIP3    H155708   0.461   5.570  10.742  1.0646 -0.9563 -0.7909
11431TIP3    H255709   0.512   5.431  10.776 -2.0935 -1.5080  1.9567
11432TIP3   OH255710   0.194   3.040  11.576 -0.3291  0.3248  0.1458
11432TIP3    H155711   0.133   3.095  11.527 -1.2240 -1.0441 -0.3396
11432TIP3    H255712   0.204   2.962  11.521  0.6912 -0.1094  0.9324
11433TIP3   OH255713   1.412   4.671   4.267 -0.3539  0.1641 -0.1119
11433TIP3    H155714   1.473   4.735   4.304  0.9196 -2.0479  1.7195
11433TIP3    H255715   1.326   4.701   4.297 -0.0193  2.1874 -1.0492
11434TIP3   OH255716   0.395   6.759  14.646 -0.0534 -0.1885  0.5010
11434TIP3    H155717   0.309   6.718  14.652 -0.1873 -0.1036 -0.7386
11434TIP3    H255718   0.385   6.842  14.692 -0.7760  0.0410 -0.0624
11435TIP3   OH255719   6.145   3.392   0.887  0.2659 -0.0422  0.0619
11435TIP3    H155720   6.064   3.363   0.845  1.1928 -0.2279 -1.6411
11435TIP3    H255721   6.206   3.319   0.874  1.1076  0.6420  0.1455
11436TIP3   OH255722   4.315   1.693   0.553  0.0913  0.1841 -0.4096
11436TIP3    H155723   4.253   1.631   0.515 -0.7102 -0.0464  1.2481
11436TIP3    H255724   4.397   1.644   0.558 -0.3530 -0.5154  0.1761
11437TIP3   OH255725   3.456   0.221   1.027  0.0291 -0.4675 -0.1849
11437TIP3    H155726   3.512   0.156   1.070 -1.8150 -0.0538  2.9741
11437TIP3    H255727   3.367   0.188   1.038 -0.8843  2.2183  0.8840
11438TIP3   OH255728   2.630   3.234  13.587 -0.4217 -0.2589 -0.3575
11438TIP3    H155729   2.577   3.174  13.641 -2.0618  0.7177 -0.8340
11438TIP3    H255730   2.594   3.320  13.607  2.1336  0.6251  0.5682
11439TIP3   OH255731   1.159   0.758  15.252 -0.1057  0.6921  0.4192
11439TIP3    H155732   1.135   0.668  15.229 -1.5237  0.8963  1.0449
11439TIP3    H255733   1.255   0.759  15.250 -0.1181 -0.2559 -1.7619
11440TIP3   OH255734   3.224   0.728   3.282  0.6294  0.3602  0.6494
11440TIP3    H155735   3.147   0.697   3.330  1.5712 -0.0650  1.9227
11440TIP3    H255736   3.292   0.663   3.302  0.6441 -0.6612 -2.5013
11441TIP3   OH255737   3.725   1.729  13.168  0.1519 -0.1001 -0.7421
11441TIP3    H155738   3.686   1.676  13.237 -0.5853 -0.5643 -1.4967
11441TIP3    H255739   3.783   1.790  13.213  1.3996 -1.8617  0.1181
11442TIP3   OH255740   1.397   4.159   3.100 -0.6472  0.8682 -0.4622
11442TIP3    H155741   1.387   4.174   3.195  1.8833  2.0107 -0.3427
11442TIP3    H255742   1.311   4.128   3.072 -1.6212  1.0984  2.1083
11443TIP3   OH255743   5.500   5.933   4.303 -0.7053 -0.3354 -0.1489
11443TIP3    H155744   5.502   6.022   4.339  0.6004 -0.5442  0.3277
11443TIP3    H255745   5.587   5.898   4.322 -1.0418 -1.5369 -0.7938
11444TIP3   OH255746   6.419   5.420  13.755  0.1988  0.0034 -0.7472
11444TIP3    H155747   6.402   5.330  13.725 -2.8504 -0.3036  1.7061
11444TIP3    H255748   6.340   5.468  13.732  0.6707  1.4042  0.5100
11445TIP3   OH255749   5.111   5.650  15.266 -0.2187 -0.0863  0.3644
11445TIP3    H155750   5.079   5.691  15.346  0.7630  1.3460  0.0348
11445TIP3    H255751   5.044   5.671  15.200  0.4351  1.3177  0.1180
11446TIP3   OH255752   0.539   1.126  15.671 -0.1113 -0.1305 -0.2815
11446TIP3    H155753   0.593   1.078  15.734 -0.6809  1.0131  1.1196
11446TIP3    H255754   0.579   1.108  15.586  1.1928 -1.0262  0.5010
11447TIP3   OH255755   1.179   4.153   5.121 -0.3392 -0.4310 -0.1638
11447TIP3    H155756   1.123   4.176   5.047  0.2928 -1.5964 -1.0141
11447TIP3    H255757   1.173   4.058   5.127 -1.0950 -0.2897  1.8554
11448TIP3   OH255758   3.864   6.181   0.942  0.2582  0.1111  0.4466
11448TIP3    H155759   3.890   6.268   0.973 -0.6363  0.9728 -1.1129
11448TIP3    H255760   3.888   6.182   0.849 -2.3388 -0.2663 -0.2541
11449TIP3   OH255761   0.191   1.361   6.543 -0.0345 -0.1460  0.2287
11449TIP3    H155762   0.109   1.317   6.520 -0.5803  1.0633 -0.1789
11449TIP3    H255763   0.176   1.453   6.519  1.4880  0.0520  0.0091
11450TIP3   OH255764   3.758   3.632  15.484  0.0517  0.6087  0.1694
11450TIP3    H155765   3.805   3.682  15.418  1.5367 -0.5833  0.3039
11450TIP3    H255766   3.749   3.693  15.558 -2.4964  2.2799 -1.4364
11451TIP3   OH255767   4.350   1.321   0.617 -0.1053 -0.1476 -0.5247
11451TIP3    H155768   4.312   1.302   0.703 -0.5860 -0.7187 -0.8577
11451TIP3    H255769   4.277   1.311   0.556  0.0678  0.9777 -0.9212
11452TIP3   OH255770   3.724   3.872  16.908 -0.6795 -0.3417  0.4325
11452TIP3    H155771   3.670   3.844  16.834 -1.0045  0.7080  0.2535
11452TIP3    H255772   3.670   3.936  16.954  0.5894  1.0991 -0.0399
11453TIP3   OH255773   6.129   4.247  10.783  0.0418  0.1882 -0.4029
11453TIP3    H155774   6.119   4.337  10.752  0.3629  0.0194 -0.9902
11453TIP3    H255775   6.185   4.255  10.860  1.4073  0.3190 -1.3925
11454TIP3   OH255776   3.887   5.318  13.630 -0.2138  0.1191  0.5193
11454TIP3    H155777   3.932   5.236  13.651 -0.6875  0.0016  1.1023
11454TIP3    H255778   3.931   5.384  13.683 -0.3147  0.1103  0.6158
11455TIP3   OH255779   4.595   2.849   5.479 -0.3394 -0.0699  0.0579
11455TIP3    H155780   4.631   2.796   5.549  1.1590  0.8434 -0.0025
11455TIP3    H255781   4.500   2.834   5.484  0.0577 -2.9601 -0.1718
11456TIP3   OH255782   1.832   3.776   6.146  0.4304  0.2601 -0.0074
11456TIP3    H155783   1.838   3.827   6.226  0.7420  1.2150 -0.6317
11456TIP3    H255784   1.744   3.737   6.149  0.6538 -0.1729  1.0611
11457TIP3   OH255785   1.102   0.879   3.311  0.2417  0.0790 -0.4667
11457TIP3    H155786   1.054   0.813   3.261  1.1411 -0.2595 -0.8892
11457TIP3    H255787   1.036   0.917   3.370 -0.0058 -2.0864  0.6905
11458TIP3   OH255788   5.840   2.797   2.156 -0.4064 -0.0677  0.0027
11458TIP3    H155789   5.772   2.759   2.212  1.3108 -1.2991  1.3265
11458TIP3    H255790   5.861   2.881   2.197  0.1767 -0.5393  0.6954
11459TIP3   OH255791   5.994   0.270   1.631  0.0726  0.0052  0.1614
11459TIP3    H155792   5.959   0.204   1.571  2.9950 -2.1049  0.6582
11459TIP3    H255793   6.053   0.322   1.577 -0.8964  1.1421  0.1754
11460TIP3   OH255794   4.511   5.855  13.680 -0.0047  0.3139  0.1868
11460TIP3    H155795   4.496   5.927  13.620  0.3081 -1.4385 -2.0398
11460TIP3    H255796   4.503   5.895  13.767 -2.1917  2.5140 -0.9566
11461TIP3   OH255797   3.776   1.591   1.876  0.4294  0.9028  0.2883
11461TIP3    H155798   3.787   1.686   1.877  0.0794  0.9425  0.6498
11461TIP3    H255799   3.684   1.578   1.900  0.2465  0.5098 -0.6192
11462TIP3   OH255800   2.918   3.264  11.016  0.0337  0.2847 -0.0173
11462TIP3    H155801   3.004   3.298  10.992  1.3159 -2.0404  1.1237
11462TIP3    H255802   2.871   3.257  10.933  1.6813 -0.3425 -0.9141
11463TIP3   OH255803   0.519   0.013  17.123  0.2059  0.1358 -0.3900
11463TIP3    H155804   0.543  -0.079  17.112 -0.6805 -0.0142 -1.1525
11463TIP3    H255805   0.446   0.026  17.062  0.9942  1.6145 -1.0349
11464TIP3   OH255806   2.753   5.700  15.276 -0.5742 -1.0797 -1.1427
11464TIP3    H155807   2.823   5.766  15.276 -1.3264 -0.2448  0.5843
11464TIP3    H255808   2.676   5.748  15.245 -1.1630 -1.0831  0.2739
11465TIP3   OH255809   0.102   2.821   5.070 -0.4379  0.4090  0.0552
11465TIP3    H155810   0.183   2.782   5.102  0.3436  0.3716 -1.8605
11465TIP3    H255811   0.092   2.902   5.120 -0.7982 -1.0098  2.3610
11466TIP3   OH255812   0.404   5.604   1.687  0.1069  0.1856  0.1319
11466TIP3    H155813   0.489   5.648   1.677  0.8758 -0.7300  2.2410
11466TIP3    H255814   0.341   5.675   1.696  0.6057  0.8820 -1.5899
11467TIP3   OH255815   3.376   6.627   5.352  0.3323 -0.2318 -0.1689
11467TIP3    H155816   3.378   6.705   5.407 -1.0483 -1.3105  1.4445
11467TIP3    H255817   3.337   6.560   5.407  1.2698 -2.0092 -1.6302
11468TIP3   OH255818   1.563   3.674   0.316 -0.1363  0.0606 -0.0632
11468TIP3    H155819   1.543   3.746   0.375  1.6305  0.7028 -0.2227
11468TIP3    H255820   1.539   3.707   0.229 -0.3935  0.0327 -0.0032
11469TIP3   OH255821   1.440   3.300  14.059 -0.1952  0.0675 -0.5315
11469TIP3    H155822   1.355   3.258  14.069 -0.1978 -0.1270 -1.3097
11469TIP3    H255823   1.498   3.250  14.116 -0.9397  1.2310  1.2734
11470TIP3   OH255824   4.506   6.386  17.152 -0.6993  0.2200 -0.3699
11470TIP3    H155825   4.572   6.349  17.211 -0.4057  0.0528 -0.8067
11470TIP3    H255826   4.423   6.376  17.200 -0.4150  0.4244  0.1721
11471TIP3   OH255827   6.723   5.307   5.422 -0.0717  0.1008 -0.0174
11471TIP3    H155828   6.698   5.356   5.343 -0.7420 -2.9180 -1.7638
11471TIP3    H255829   6.809   5.271   5.401  0.1187 -0.0253  0.9618
11472TIP3   OH255830   1.154   4.060   3.792  0.1715 -0.0387 -0.7582
11472TIP3    H155831   1.087   4.016   3.740  0.7726 -0.6771 -1.0042
11472TIP3    H255832   1.235   4.045   3.743  0.5662  0.3091 -0.2116
11473TIP3   OH255833   3.228   0.310  15.604 -0.2944 -1.0267 -0.1613
11473TIP3    H155834   3.144   0.270  15.626 -0.0374 -1.0116  0.9005
11473TIP3    H255835   3.289   0.237  15.597  0.4617 -0.8089  3.0743
11474TIP3   OH255836   3.174   6.097   2.499 -0.0233  0.2802  0.3223
11474TIP3    H155837   3.241   6.029   2.499  1.6550  1.8674 -1.0271
11474TIP3    H255838   3.093   6.052   2.525  0.8592 -2.3857 -1.3308
11475TIP3   OH255839   5.761   5.429  13.633 -0.0180 -0.2892  0.1851
11475TIP3    H155840   5.696   5.456  13.697  0.3684 -0.7555  0.7823
11475TIP3    H255841   5.821   5.372  13.681  0.6386 -0.1458 -0.4339
11476TIP3   OH255842   2.170   5.645   1.211  0.0955 -0.8637 -0.4539
11476TIP3    H155843   2.209   5.614   1.129 -0.4205  0.2338 -1.1246
11476TIP3    H255844   2.172   5.740   1.204 -2.7204 -0.7668 -0.5434
11477TIP3   OH255845   4.840   3.508  13.488  0.1259  0.2892  0.5130
11477TIP3    H155846   4.866   3.418  13.468 -0.3703  0.1944  0.2892
11477TIP3    H255847   4.914   3.545  13.536  2.3158  1.2134 -3.3433
11478TIP3   OH255848   0.742   4.499   2.693  0.7037  0.5622  0.0561
11478TIP3    H155849   0.690   4.478   2.770  0.7535  0.7876  0.1516
11478TIP3    H255850   0.751   4.594   2.695 -0.9462  0.7613 -1.2879
11479TIP3   OH255851   4.088   0.624  13.475  0.2272 -0.4747 -0.4046
11479TIP3    H155852   4.128   0.599  13.392  0.6472 -2.1937  0.2990
11479TIP3    H255853   4.154   0.605  13.541 -0.4684 -0.0704  0.4236
11480TIP3   OH255854   2.293   1.719  11.972 -0.0803  0.0028 -0.4473
11480TIP3    H155855   2.377   1.738  12.013  0.7231 -1.7559 -1.2461
11480TIP3    H255856   2.300   1.756  11.884 -0.4504  0.5423 -0.2561
11481TIP3   OH255857   2.157   3.228   2.911  0.0129  0.2631 -0.1302
11481TIP3    H155858   2.189   3.141   2.933 -0.5124 -0.0405 -0.5613
11481TIP3    H255859   2.068   3.214   2.879  0.4869  0.7839 -1.6985
11482TIP3   OH255860   0.403   0.819  16.624  0.2094  0.1692  0.0619
11482TIP3    H155861   0.349   0.786  16.696  0.3696  1.4700  0.7853
11482TIP3    H255862   0.364   0.903  16.600  0.0753 -0.3117 -1.4703
11483TIP3   OH255863   3.910   4.425  14.796 -0.4922  0.7521 -0.4236
11483TIP3    H155864   3.872   4.480  14.864  0.7705 -0.1963  1.0824
11483TIP3    H255865   3.943   4.487  14.731  0.0652  1.7500  0.7858
11484TIP3   OH255866   2.926   2.433   3.138  0.1603 -0.6405 -0.3836
11484TIP3    H155867   3.002   2.477   3.178  0.0898 -1.8446  1.0979
11484TIP3    H255868   2.964   2.373   3.074  0.3905 -0.3703 -0.5040
11485TIP3   OH255869   2.495   0.220   5.353 -0.0778  0.3204 -0.1855
11485TIP3    H155870   2.523   0.213   5.262  2.0312  1.4341  0.3316
11485TIP3    H255871   2.499   0.313   5.373 -2.0609  0.2588  0.6017
11486TIP3   OH255872   3.159   3.764  12.606  0.0898  0.3219  0.5688
11486TIP3    H155873   3.073   3.752  12.567  0.9999  0.1822 -1.4636
11486TIP3    H255874   3.195   3.676  12.615  1.5930  0.5747 -2.3364
11487TIP3   OH255875   6.738   1.954  15.143 -0.0045 -0.2624 -0.3663
11487TIP3    H155876   6.724   2.036  15.094 -0.3115 -1.1199 -1.7361
11487TIP3    H255877   6.716   1.885  15.081  1.2634 -1.4218  0.4467
11488TIP3   OH255878   4.539   1.714   1.221  0.1042 -0.1501 -0.2967
11488TIP3    H155879   4.494   1.693   1.303  0.2960  0.6509  0.0149
11488TIP3    H255880   4.617   1.658   1.221  0.1865 -0.0364  0.1388
11489TIP3   OH255881   5.437   4.367  14.879 -0.0612 -0.1654 -0.2316
11489TIP3    H155882   5.477   4.405  14.801 -1.0477 -2.5593 -1.9493
11489TIP3    H255883   5.367   4.428  14.901  0.0468  0.3860 -1.3612
11490TIP3   OH255884   0.065   2.632  10.862  1.0518 -0.1667 -0.1010
11490TIP3    H155885   0.075   2.726  10.850 -0.4357  0.0322  0.1121
11490TIP3    H255886   0.088   2.617  10.954  0.8552  0.0583 -0.0144
11491TIP3   OH255887   1.499   5.931  12.753 -0.0999 -0.1386  0.0672
11491TIP3    H155888   1.405   5.914  12.741  0.3575 -1.3051 -1.9613
11491TIP3    H255889   1.535   5.931  12.665  1.6321  1.4959  0.7615
11492TIP3   OH255890   6.199   2.942   1.839  0.7358 -0.2074 -0.6820
11492TIP3    H155891   6.114   2.907   1.866  1.2090 -1.3745 -0.6909
11492TIP3    H255892   6.215   3.014   1.900 -0.2094 -0.0375 -0.6155
11493TIP3   OH255893   0.144   5.624   5.444 -0.2042 -0.0249 -0.2290
11493TIP3    H155894   0.224   5.612   5.393  1.5751  0.6715  2.3278
11493TIP3    H255895   0.141   5.550   5.504 -1.7842 -0.3268 -0.6343
11494TIP3   OH255896   0.215   1.900  11.052  0.3372 -0.0090 -0.0130
11494TIP3    H155897   0.166   1.886  10.971 -2.1069 -0.6313  1.5465
11494TIP3    H255898   0.302   1.928  11.022 -0.8561  0.8701 -2.8169
11495TIP3   OH255899   2.986   1.713   3.725 -0.0379 -0.2861  0.3609
11495TIP3    H155900   2.968   1.628   3.765 -1.6360  0.2877  0.8838
11495TIP3    H255901   2.901   1.757   3.722  0.8161  1.3996  0.3285
11496TIP3   OH255902   1.897   3.379  14.001 -0.4606  0.8540  0.4041
11496TIP3    H155903   1.986   3.396  13.973  0.4497 -1.6853  1.6550
11496TIP3    H255904   1.871   3.458  14.048  2.1978  0.4733  2.5801
11497TIP3   OH255905   1.212   2.789  17.048 -0.1778 -0.2342  0.2402
11497TIP3    H155906   1.190   2.722  16.983 -1.5719 -2.5231  2.9469
11497TIP3    H255907   1.307   2.793  17.047 -0.1673 -0.3191 -1.8397
11498TIP3   OH255908   4.780   3.630   4.984  0.3502 -0.1276  0.1665
11498TIP3    H155909   4.779   3.725   4.976  0.3385 -0.2145 -0.9910
11498TIP3    H255910   4.696   3.608   5.024  0.1388  0.3091 -0.0356
11499TIP3   OH255911   2.643   3.628  15.619 -0.2610  0.4633  0.5016
11499TIP3    H155912   2.686   3.706  15.653  0.6893 -0.4825  1.5152
11499TIP3    H255913   2.712   3.583  15.570 -0.8107  0.2678 -0.0939
11500TIP3   OH255914   2.279   3.437   3.648  0.2520  0.5249 -0.0081
11500TIP3    H155915   2.262   3.528   3.622  0.7642  0.0476 -2.1386
11500TIP3    H255916   2.371   3.423   3.625  0.5329 -0.1412  1.5082
11501TIP3   OH255917   4.512   5.359  17.147 -0.2243  0.2637 -0.9263
11501TIP3    H155918   4.569   5.395  17.215 -2.6665  1.6051  0.5066
11501TIP3    H255919   4.565   5.293  17.104  3.0371  2.7031 -0.9019
11502TIP3   OH255920   4.716   6.584   1.634 -0.2459 -0.0527  0.1727
11502TIP3    H155921   4.676   6.532   1.563 -1.9013  0.6766  0.5365
11502TIP3    H255922   4.799   6.614   1.598  0.5282 -2.5221 -0.2316
11503TIP3   OH255923   3.952   5.765  13.921 -0.3790  0.1237 -0.8402
11503TIP3    H155924   3.984   5.855  13.928 -1.7251  0.4936  0.9721
11503TIP3    H255925   3.859   5.775  13.899 -0.7518 -0.7778  0.2835
11504TIP3   OH255926   5.713   4.153   2.229  0.2483  0.9291 -0.7880
11504TIP3    H155927   5.691   4.132   2.320  0.9973  0.5663 -0.6863
11504TIP3    H255928   5.636   4.199   2.196 -0.3659  0.3397 -0.2139
11505TIP3   OH255929   3.476   6.519   4.414  0.3826  0.4473  0.1411
11505TIP3    H155930   3.391   6.563   4.427 -0.5604 -1.0518 -0.7913
11505TIP3    H255931   3.540   6.581   4.447 -1.1233  1.4030  1.3596
11506TIP3   OH255932   1.912   3.485   2.533 -0.1423  0.1724  0.1910
11506TIP3    H155933   1.824   3.484   2.497 -0.3034 -1.4797  0.5782
11506TIP3    H255934   1.968   3.512   2.460 -0.7014 -1.0692 -0.7158
11507TIP3   OH255935   3.205   4.000  14.212 -0.1330  0.0756  0.3667
11507TIP3    H155936   3.218   3.907  14.195  0.5663  0.4419 -1.2240
11507TIP3    H255937   3.139   4.028  14.149  0.9729  1.0215 -0.4187
11508TIP3   OH255938   0.914   6.703  11.358 -0.1327  0.3895 -0.0239
11508TIP3    H155939   0.835   6.686  11.306 -0.7647 -0.5207  1.2166
11508TIP3    H255940   0.959   6.773  11.311 -2.3091  1.7870 -0.0878
11509TIP3   OH255941   4.690   5.269   5.681 -0.2673 -0.6790 -0.1363
11509TIP3    H155942   4.708   5.216   5.759  0.1075  0.4685  0.5639
11509TIP3    H255943   4.757   5.242   5.618  1.2429  0.4599  0.9504
11510TIP3   OH255944   4.476   3.129   4.467  0.0805 -0.0466  0.2831
11510TIP3    H155945   4.405   3.152   4.527  1.3496  2.0826  1.0462
11510TIP3    H255946   4.512   3.214   4.440  1.9330 -1.0752 -0.5656
11511TIP3   OH255947   4.779   2.119  15.457  0.6536 -0.0283 -0.3210
11511TIP3    H155948   4.746   2.042  15.411  0.9877 -0.5240  0.2523
11511TIP3    H255949   4.770   2.191  15.395  0.5875 -0.5850 -0.9547
11512TIP3   OH255950   2.555   2.100   4.079  0.5114 -0.7294 -0.2959
11512TIP3    H155951   2.518   2.189   4.081 -1.4664 -1.5489  0.3300
11512TIP3    H255952   2.647   2.112   4.104  0.6137  1.2947 -1.5081
11513TIP3   OH255953   0.727   2.978   5.216 -0.2195 -0.0313  0.6743
11513TIP3    H155954   0.670   3.054   5.204 -0.5773 -0.2089  1.2534
11513TIP3    H255955   0.815   3.016   5.223 -0.1037  0.1606 -1.4022
11514TIP3   OH255956   3.826   6.644  11.584 -0.5968  0.1342  0.0991
11514TIP3    H155957   3.914   6.606  11.579 -0.6937 -0.5184  2.5717
11514TIP3    H255958   3.774   6.593  11.522 -0.0165 -1.8403  1.1888
11515TIP3   OH255959   3.015   6.509   2.922 -0.3309 -0.3888  0.8971
11515TIP3    H155960   3.057   6.580   2.873 -1.6555  1.0091  1.7319
11515TIP3    H255961   3.073   6.493   2.996  0.3253 -0.6683  0.3263
11516TIP3   OH255962   5.409   6.131  12.891  0.3286  0.3178 -0.3035
11516TIP3    H155963   5.488   6.079  12.878 -0.2666  0.0550 -3.1714
11516TIP3    H255964   5.436   6.221  12.871 -0.0811  0.2350 -1.2375
11517TIP3   OH255965   2.369   1.902  12.811  0.1301 -0.0126  0.0216
11517TIP3    H155966   2.443   1.962  12.799  1.5099 -1.4527  1.1010
11517TIP3    H255967   2.297   1.958  12.840  0.7330  1.4378 -1.2135
11518TIP3   OH255968   3.846   6.110  13.268  0.0482  0.8795  0.0268
11518TIP3    H155969   3.891   6.062  13.199 -0.8881 -0.0475  0.0424
11518TIP3    H255970   3.914   6.163  13.310  0.9512  0.0920 -0.4477
11519TIP3   OH255971   1.674   5.852  11.003  0.0358  0.2398  0.2966
11519TIP3    H155972   1.583   5.827  11.017 -0.3530  0.8679 -1.0382
11519TIP3    H255973   1.682   5.863  10.908  1.2271  1.2040  0.4908
11520TIP3   OH255974   6.656   4.634  15.258  0.0184  0.6723  0.3073
11520TIP3    H155975   6.711   4.568  15.301 -3.8786 -1.2989  2.5359
11520TIP3    H255976   6.606   4.584  15.193 -0.6211  2.0459 -0.2688
11521TIP3   OH255977   2.952   6.725  14.481  0.0727  0.0361  0.8269
11521TIP3    H155978   2.961   6.819  14.500  1.8246 -0.0632  0.4928
11521TIP3    H255979   2.881   6.696  14.539 -0.5028  1.5670  0.9059
11522TIP3   OH255980   2.556   1.196   2.542  0.2036  0.3281 -0.1192
11522TIP3    H155981   2.589   1.279   2.577  1.5649 -0.6579  1.0106
11522TIP3    H255982   2.606   1.182   2.462  2.4960 -1.0619  1.4841
11523TIP3   OH255983   3.379   2.761   1.334  0.3110 -0.0380  0.4547
11523TIP3    H155984   3.455   2.720   1.376  0.4642  0.1217  0.3348
11523TIP3    H255985   3.406   2.777   1.244  0.0317 -0.2441  0.3337
11524TIP3   OH255986   2.977   2.466   6.109  0.5974  0.7513 -0.2805
11524TIP3    H155987   2.955   2.436   6.197  0.2040 -2.5025 -1.4148
11524TIP3    H255988   3.069   2.492   6.114  0.9531 -0.6802  0.7639
11525TIP3   OH255989   1.063   4.832  14.127 -0.1623  0.3326 -0.3560
11525TIP3    H155990   1.132   4.809  14.189  0.8509  1.0348 -1.2020
11525TIP3    H255991   1.003   4.757  14.129  1.7791 -1.2932 -1.2425
11526TIP3   OH255992   6.413   6.373   1.986  0.1631  0.2762  0.9998
11526TIP3    H155993   6.395   6.466   1.979  4.3821  1.0498 -1.5070
11526TIP3    H255994   6.502   6.368   2.021  0.6048 -2.7225 -0.3380
11527TIP3   OH255995   5.011   2.983  11.114  0.3501 -0.2256 -0.0225
11527TIP3    H155996   5.062   2.963  11.035 -0.6147  0.5662 -0.8481
11527TIP3    H255997   4.953   2.908  11.124  1.0651 -0.7290  0.4361
11528TIP3   OH255998   0.089   2.608  15.446  0.4441 -0.4523 -0.0565
11528TIP3    H155999   0.156   2.626  15.513  0.3486 -0.0539 -0.0697
11528TIP3    H256000   0.096   2.681  15.385 -0.0955 -0.3420  0.0136
11529TIP3   OH256001   2.898   1.565  11.499  0.1292 -0.1505 -0.1243
11529TIP3    H156002   2.826   1.588  11.440  1.8663  1.3918 -1.7095
11529TIP3    H256003   2.885   1.623  11.575 -0.4916 -0.1458 -0.2267
11530TIP3   OH256004   3.786   5.651   5.559  0.2258 -0.2009  0.4355
11530TIP3    H156005   3.703   5.683   5.525  1.3015  1.4854 -0.7145
11530TIP3    H256006   3.848   5.666   5.488  1.9975  0.8939  2.1644
11531TIP3   OH256007   0.893   2.928   5.822  0.0450  0.5723  0.0182
11531TIP3    H156008   0.843   2.849   5.842 -1.1902  1.1651 -0.6823
11531TIP3    H256009   0.893   2.934   5.727 -0.1018  1.5701  0.0759
11532TIP3   OH256010   0.686   1.828  14.846 -0.0348  1.1787 -0.0086
11532TIP3    H156011   0.660   1.775  14.922  0.5788  0.2764 -0.4192
11532TIP3    H256012   0.763   1.876  14.876  1.0835 -0.2765 -0.5047
11533TIP3   OH256013   2.514   1.516  14.994 -0.2430  0.1128  0.0865
11533TIP3    H156014   2.533   1.490  14.904  1.9915 -1.5943  1.0040
11533TIP3    H256015   2.432   1.473  15.015  1.1734 -2.6735  0.1048
11534TIP3   OH256016   0.432   3.691  16.470  0.1428  0.2519 -0.4717
11534TIP3    H156017   0.358   3.696  16.531  1.1033 -1.4389  0.9127
11534TIP3    H256018   0.395   3.652  16.391 -0.7110  0.5753 -0.2367
11535TIP3   OH256019   5.455   3.651   2.504 -0.5104  0.0495  0.5083
11535TIP3    H156020   5.371   3.697   2.494 -0.4617 -0.2699 -1.4956
11535TIP3    H256021   5.436   3.581   2.568 -1.1046  1.5166  1.9740
11536TIP3   OH256022   0.903   2.128  16.007 -0.0024  0.3046 -0.1405
11536TIP3    H156023   0.918   2.073  16.084  0.1394  2.4912  1.4281
11536TIP3    H256024   0.819   2.097  15.972  1.2015 -2.4855 -0.7112
11537TIP3   OH256025   6.138   1.455   5.527  0.0916 -0.1780 -0.0909
11537TIP3    H156026   6.116   1.393   5.457 -0.2297  1.8210 -1.8138
11537TIP3    H256027   6.203   1.513   5.488  0.1764  0.7489  1.3996
11538TIP3   OH256028   4.760   1.891   5.244 -0.0126 -0.0007 -0.3805
11538TIP3    H156029   4.797   1.932   5.323 -0.5265 -1.7581  0.7801
11538TIP3    H256030   4.666   1.907   5.251 -0.3339 -2.2207  0.5902
11539TIP3   OH256031   4.263   4.803  12.682 -0.2217 -0.4627 -0.2928
11539TIP3    H156032   4.193   4.858  12.644  1.0765  0.4293 -1.4491
11539TIP3    H256033   4.264   4.827  12.775 -2.2955 -1.4185  0.0078
11540TIP3   OH256034   3.944   5.689   2.850 -0.0773  0.4705 -0.2521
11540TIP3    H156035   3.906   5.651   2.770  0.7644 -0.3938 -0.2394
11540TIP3    H256036   4.038   5.690   2.834 -0.0096  1.7098  0.1286
11541TIP3   OH256037   3.859   5.177   6.068  0.0323 -0.0303 -0.2573
11541TIP3    H156038   3.918   5.248   6.095 -0.4679  0.7477 -1.1847
11541TIP3    H256039   3.915   5.099   6.066  0.2414  0.0367  2.2502
11542TIP3   OH256040   5.069   2.768   3.646 -0.7509  0.4038  0.1266
11542TIP3    H156041   5.099   2.790   3.558 -1.5065  2.4653  0.3781
11542TIP3    H256042   4.974   2.765   3.640 -0.8884  1.9713  1.1727
11543TIP3   OH256043   4.537   2.251   3.118  0.5465  0.1688  0.0597
11543TIP3    H156044   4.448   2.281   3.136  0.5689  0.6913 -0.6861
11543TIP3    H256045   4.581   2.254   3.203  0.1040  0.7600  0.2701
11544TIP3   OH256046   3.125   5.773   2.129  0.7822 -0.0252 -0.3483
11544TIP3    H156047   3.175   5.755   2.050  0.8529 -0.0935 -0.2888
11544TIP3    H256048   3.152   5.861   2.155  0.8042 -0.0267 -0.3663
11545TIP3   OH256049   3.978   1.693  13.788  0.4444  0.1980  0.0700
11545TIP3    H156050   4.026   1.665  13.866 -1.0371  0.0069  0.9353
11545TIP3    H256051   3.975   1.788  13.793 -1.6638  0.0914  1.5112
11546TIP3   OH256052   1.272   2.998  16.850 -0.1809  0.1606 -0.1427
11546TIP3    H156053   1.338   3.057  16.888  1.5707 -2.7359  1.4754
11546TIP3    H256054   1.258   2.932  16.918 -4.2545  0.2958 -0.7599
11547TIP3   OH256055   6.222   1.904   2.426  0.8233 -0.4393  0.1453
11547TIP3    H156056   6.145   1.959   2.439  1.6743  0.8247 -0.1077
11547TIP3    H256057   6.204   1.825   2.478 -1.4578 -0.9740 -1.4092
11548TIP3   OH256058   4.544   3.068   3.940  0.4118 -0.3127 -0.5680
11548TIP3    H156059   4.475   3.133   3.931 -0.7140 -1.5714 -1.2355
11548TIP3    H256060   4.588   3.091   4.022 -2.5288 -1.0493  1.3345
11549TIP3   OH256061   5.907   3.693  15.613 -0.4091 -0.0296  0.8393
11549TIP3    H156062   5.957   3.728  15.686  0.2877 -0.3157  0.5050
11549TIP3    H256063   5.852   3.625  15.652 -0.0618 -0.1605  1.1032
11550TIP3   OH256064   2.001   5.037  11.858  0.0732  0.1608  0.5071
11550TIP3    H156065   1.928   5.098  11.846  1.7365  2.2183  0.4318
11550TIP3    H256066   2.032   5.018  11.769  0.7542  0.7284  0.6189
11551TIP3   OH256067   3.236   0.570  15.627  0.0107 -0.0091 -0.0368
11551TIP3    H156068   3.154   0.574  15.677 -0.2913 -0.0833 -0.5170
11551TIP3    H256069   3.247   0.477  15.609  1.3161 -0.2336  1.8395
11552TIP3   OH256070   2.850   4.130  14.173  0.5268  0.2457  0.3187
11552TIP3    H156071   2.938   4.135  14.211  0.7991  1.1592 -0.4385
11552TIP3    H256072   2.865   4.115  14.080 -0.1270  0.4888  0.1777
11553TIP3   OH256073   6.671   4.053  14.771 -0.3777  0.2921 -0.4814
11553TIP3    H156074   6.630   4.019  14.851  0.3562  1.2867  0.3378
11553TIP3    H256075   6.622   4.132  14.751  1.6424  2.0285  1.0499
11554TIP3   OH256076   1.447   2.221  12.291 -0.3721  0.4299 -0.0634
11554TIP3    H156077   1.428   2.127  12.288 -1.4068  0.5174  2.6953
11554TIP3    H256078   1.542   2.226  12.305 -0.1799 -0.1576 -1.0494
11555TIP3   OH256079   5.728   5.076  15.077  0.2186  0.3252  0.4392
11555TIP3    H156080   5.799   5.012  15.082 -0.3093 -0.2323  0.8477
11555TIP3    H256081   5.760   5.151  15.127  0.4419 -0.0059  0.7981
11556TIP3   OH256082   0.617   4.377   0.720 -0.6908  0.0583  0.4874
11556TIP3    H156083   0.618   4.303   0.781 -0.6969 -1.1845 -0.9900
11556TIP3    H256084   0.541   4.360   0.663 -0.6011  1.1239  0.0391
11557TIP3   OH256085   3.223   1.049   5.879 -0.4204 -0.7267 -0.4436
11557TIP3    H156086   3.302   1.005   5.848  0.0905  0.8220 -1.4464
11557TIP3    H256087   3.198   1.106   5.806 -1.1685  0.4780  0.7248
11558TIP3   OH256088   1.615   2.656   5.123 -0.0360 -0.4185  0.0259
11558TIP3    H156089   1.640   2.705   5.045  0.5483 -1.6080 -0.5423
11558TIP3    H256090   1.551   2.592   5.092 -0.0531 -0.6759  0.5806
11559TIP3   OH256091   0.335   1.017  16.296 -0.1722 -0.2210 -0.0059
11559TIP3    H156092   0.306   0.926  16.297  1.5060 -0.8181 -1.5556
11559TIP3    H256093   0.305   1.051  16.211  1.6766 -0.2089 -0.6794
11560TIP3   OH256094   1.576   1.370  12.896 -0.0163 -0.4494 -0.1687
11560TIP3    H156095   1.625   1.347  12.818 -0.8015 -0.0274 -0.7997
11560TIP3    H256096   1.635   1.426  12.947  0.2524 -0.1709 -0.7908
11561TIP3   OH256097   4.550   6.632  16.099 -0.3299  0.0138  0.1352
11561TIP3    H156098   4.492   6.622  16.023  1.0186  0.4280 -0.9752
11561TIP3    H256099   4.501   6.688  16.159 -1.6658 -0.8042 -0.1647
11562TIP3   OH256100   1.236   0.929  10.775  0.1916  0.2248 -0.3192
11562TIP3    H156101   1.224   0.838  10.749  1.0456 -0.3233  1.1170
11562TIP3    H256102   1.324   0.932  10.812 -1.7475  0.3265  4.7122
11563TIP3   OH256103   1.760   2.814  16.041 -0.2890 -0.0734 -0.2912
11563TIP3    H156104   1.779   2.723  16.066 -0.5428 -0.1005 -0.2005
11563TIP3    H256105   1.836   2.863  16.071 -0.8672 -0.0041  1.0906
11564TIP3   OH256106   6.234   4.417  12.884  0.2193 -0.1071 -0.3787
11564TIP3    H156107   6.218   4.508  12.862 -2.0054 -0.4320 -0.1764
11564TIP3    H256108   6.188   4.367  12.817  2.0614 -1.0943 -0.9347
11565TIP3   OH256109   1.514   2.548   0.506 -0.1337 -0.6263  0.2060
11565TIP3    H156110   1.501   2.642   0.521  0.3828 -0.7792  1.6826
11565TIP3    H256111   1.607   2.539   0.485  0.4281 -1.1172  2.7749
11566TIP3   OH256112   5.089   5.272  17.126  0.0467  0.4976 -0.2658
11566TIP3    H156113   5.124   5.354  17.091  0.4135  0.0087 -1.0759
11566TIP3    H256114   5.104   5.209  17.055  1.6133 -0.7073  1.1132
11567TIP3   OH256115   3.491   0.666   1.284 -0.4545 -0.1149 -0.0651
11567TIP3    H156116   3.582   0.670   1.315 -0.6749  0.6141  0.5208
11567TIP3    H256117   3.492   0.601   1.214  0.3144 -0.8799  0.6442
11568TIP3   OH256118   2.344   3.099   1.140 -0.1911 -0.4188 -0.0780
11568TIP3    H156119   2.343   3.016   1.092  0.7942 -0.0009 -0.8430
11568TIP3    H256120   2.338   3.166   1.072 -0.8648  0.1468  0.5318
11569TIP3   OH256121   6.498   3.553  11.780 -0.2495  0.2143 -0.0331
11569TIP3    H156122   6.463   3.641  11.796 -3.4983 -0.4822 -2.7235
11569TIP3    H256123   6.517   3.552  11.686 -0.3502 -2.0073 -0.0459
11570TIP3   OH256124   4.191   0.110   3.956  0.2735  0.3580 -0.5081
11570TIP3    H156125   4.198   0.022   3.992  0.6875  0.2339 -0.8787
11570TIP3    H256126   4.099   0.118   3.931  0.4691 -0.4219 -1.5717
11571TIP3   OH256127   4.038   4.225   3.315  0.2549  0.0737  0.0153
11571TIP3    H156128   4.041   4.304   3.262 -4.3533 -0.4191 -1.2381
11571TIP3    H256129   4.029   4.256   3.405 -2.2904  1.0444 -0.5370
11572TIP3   OH256130   2.596   1.659   3.544  0.1607 -0.6025  0.6252
11572TIP3    H156131   2.608   1.726   3.476  2.2461 -1.7187 -0.1620
11572TIP3    H256132   2.666   1.596   3.527 -1.2005 -2.4865  1.9406
11573TIP3   OH256133   0.810   2.219   1.559  0.1018  0.7685  0.1907
11573TIP3    H156134   0.769   2.184   1.638 -0.6982  0.8473 -0.1901
11573TIP3    H256135   0.862   2.147   1.524 -0.4378  0.3878  0.1705
11574TIP3   OH256136   3.521   1.245   3.337  0.4146 -0.4210 -0.7179
11574TIP3    H156137   3.491   1.216   3.423  0.2156  0.4185 -0.5034
11574TIP3    H256138   3.582   1.176   3.309  0.8701 -0.4557  0.3092
11575TIP3   OH256139   2.485   1.165   1.260 -0.0475 -0.8034  0.9364
11575TIP3    H156140   2.486   1.236   1.325 -1.3675 -0.6508  0.8040
11575TIP3    H256141   2.416   1.190   1.199  0.8415 -1.2025 -0.2527
11576TIP3   OH256142   1.880   5.855  13.880 -0.2811 -0.6336 -0.2410
11576TIP3    H156143   1.869   5.882  13.971  0.6091 -0.0460 -0.2983
11576TIP3    H256144   1.952   5.909  13.848 -0.6046 -0.8202 -1.3040
11577TIP3   OH256145   1.018   1.401   0.667 -0.5170 -0.1252 -0.2185
11577TIP3    H156146   1.111   1.416   0.653 -0.8490  0.0237 -2.4388
11577TIP3    H256147   0.981   1.489   0.673 -0.4255 -0.1861  1.3993
11578TIP3   OH256148   6.136   1.896   0.232  0.2095  0.3004 -0.3517
11578TIP3    H156149   6.075   1.864   0.165  1.3037 -1.8854 -0.3479
11578TIP3    H256150   6.080   1.918   0.306 -0.5341 -2.8971  0.1209
11579TIP3   OH256151   1.811   2.706   2.016 -0.0168 -0.1286  0.9349
11579TIP3    H156152   1.900   2.691   2.046 -0.0165 -0.9223  0.5632
11579TIP3    H256153   1.819   2.715   1.921 -0.2698  0.2901  0.9516
11580TIP3   OH256154   3.593   6.283   5.272  0.0765  0.1672 -0.4637
11580TIP3    H156155   3.624   6.319   5.355 -0.1849 -0.0312 -0.2808
11580TIP3    H256156   3.498   6.282   5.280  0.0664 -0.2092 -0.6173
11581TIP3   OH256157   4.424   5.848  15.823 -0.1172  0.3549 -0.4252
11581TIP3    H156158   4.400   5.759  15.849 -0.6089  0.1715 -1.4556
11581TIP3    H256159   4.407   5.850  15.728 -0.9012  1.8050 -0.2578
11582TIP3   OH256160   5.500   1.742  11.683 -0.1495  0.1584  0.3628
11582TIP3    H156161   5.487   1.655  11.645 -2.6453  0.2691  0.8737
11582TIP3    H256162   5.476   1.802  11.612  0.7548  0.4204  0.2804
11583TIP3   OH256163   1.131   1.917   3.839  0.0109  0.1897  0.1797
11583TIP3    H156164   1.055   1.865   3.813 -0.3428  1.0770 -0.5917
11583TIP3    H256165   1.109   2.007   3.814  1.8054  0.2737 -1.1910
11584TIP3   OH256166   6.173   0.519   4.803  0.2492  0.3988 -0.4616
11584TIP3    H156167   6.159   0.483   4.891 -1.1675 -0.2997 -0.9470
11584TIP3    H256168   6.199   0.610   4.818  2.0556 -0.2962  0.7336
11585TIP3   OH256169   0.337   3.989   6.074  0.6276 -0.9168 -0.3700
11585TIP3    H156170   0.381   3.905   6.070  0.4217 -0.9649 -3.3069
11585TIP3    H256171   0.274   3.986   6.001 -1.7107  0.5039  1.5186
11586TIP3   OH256172   6.266   5.144  11.186  0.3963  0.0236 -0.0687
11586TIP3    H156173   6.257   5.224  11.238 -0.9595 -0.7343  0.8745
11586TIP3    H256174   6.196   5.087  11.217  2.1024 -2.0139  0.0941
11587TIP3   OH256175   3.682   6.434  12.453 -0.8996  0.0129  0.3061
11587TIP3    H156176   3.765   6.409  12.413 -1.0225  0.6983 -0.3762
11587TIP3    H256177   3.700   6.436  12.547  0.0234  0.7938  0.1171
11588TIP3   OH256178   6.312   6.263  11.325  0.0043  0.3068 -0.5657
11588TIP3    H156179   6.407   6.267  11.318  0.1291 -0.6554  0.5009
11588TIP3    H256180   6.284   6.355  11.324  0.8277  0.5570 -2.2348
11589TIP3   OH256181   2.176   5.075   2.192 -0.1141 -0.2057 -0.1574
11589TIP3    H156182   2.158   5.059   2.100  1.0860 -0.2788 -0.3863
11589TIP3    H256183   2.209   4.992   2.225  0.7474  0.1980  0.0081
11590TIP3   OH256184   4.615   5.554   5.605 -0.0918  0.5094  0.2534
11590TIP3    H156185   4.628   5.464   5.635 -1.0926  0.1887 -0.2760
11590TIP3    H256186   4.619   5.606   5.685 -4.2456 -0.4972  1.2049
11591TIP3   OH256187   2.241   6.526  11.456  0.6099 -0.4221 -0.5290
11591TIP3    H156188   2.328   6.533  11.417  0.7481  1.3725  0.0281
11591TIP3    H256189   2.248   6.455  11.519  1.7584 -0.1277 -0.3027
11592TIP3   OH256190   2.203   2.989  15.093 -0.3036  0.4663 -0.6163
11592TIP3    H156191   2.264   2.918  15.109 -1.9162 -0.5743  1.0347
11592TIP3    H256192   2.244   3.040  15.023  2.2356 -0.4283  0.1754
11593TIP3   OH256193   2.334   2.602   5.019  0.1191 -0.0367  0.0574
11593TIP3    H156194   2.247   2.562   5.009 -0.4948  0.7656  1.9337
11593TIP3    H256195   2.392   2.528   5.036 -0.6283 -0.3583  1.2760
11594TIP3   OH256196   1.942   0.895  14.950 -0.7340 -0.2852  0.0267
11594TIP3    H156197   1.972   0.978  14.986  2.2181 -1.2090 -0.1986
11594TIP3    H256198   1.933   0.910  14.856  0.8031 -0.4796 -0.1616
11595TIP3   OH256199   1.643   5.306   0.008  0.6610 -0.3190 -0.3104
11595TIP3    H156200   1.552   5.295   0.033  0.5996  1.2363  0.1377
11595TIP3    H256201   1.690   5.317   0.090  0.7653  2.4511 -0.7128
11596TIP3   OH256202   1.238   5.024  15.275 -0.3580  0.6346  0.0436
11596TIP3    H156203   1.170   5.050  15.213 -1.2916  0.3153  0.9319
11596TIP3    H256204   1.251   5.100  15.331 -0.7172  0.3463  0.5231
11597TIP3   OH256205   3.755   3.343   2.367  0.1104 -0.9952  0.4044
11597TIP3    H156206   3.689   3.411   2.380 -0.8403 -1.9439  0.6222
11597TIP3    H256207   3.833   3.390   2.339 -0.0016  0.3739  2.2871
11598TIP3   OH256208   3.554   3.701  11.778  0.8749 -0.4434 -0.1698
11598TIP3    H156209   3.516   3.685  11.692 -0.0900  0.3427  0.1038
11598TIP3    H256210   3.579   3.615  11.810 -0.4696 -0.9454 -0.4506
11599TIP3   OH256211   1.672   0.214   3.838  0.1032  0.4361  0.8322
11599TIP3    H156212   1.614   0.219   3.914 -2.1591  1.0338 -0.8759
11599TIP3    H256213   1.638   0.140   3.787  1.1825  0.4748  0.0421
11600TIP3   OH256214   0.018   3.076   5.190  0.5650  0.1180 -0.0673
11600TIP3    H156215   0.092   3.136   5.183  0.4293  0.3380  0.4134
11600TIP3    H256216  -0.035   3.111   5.261  0.5636 -0.6556  0.3146
11601TIP3   OH256217   2.599   2.245  12.548 -0.3353 -0.1338 -0.3286
11601TIP3    H156218   2.536   2.185  12.508  0.2925 -2.6466  2.3143
11601TIP3    H256219   2.608   2.214  12.638  3.9429  0.7053 -0.3496
11602TIP3   OH256220   0.230   1.000   3.221  0.5247  0.1968  0.5792
11602TIP3    H156221   0.163   0.964   3.164  1.4844  2.4560 -2.0599
11602TIP3    H256222   0.307   1.009   3.166  1.8782  1.1866  2.5651
11603TIP3   OH256223   5.301   1.213   2.169 -0.3520  0.0637  0.2286
11603TIP3    H156224   5.296   1.292   2.115  0.2683  0.2327  0.4130
11603TIP3    H256225   5.385   1.220   2.214  0.0338 -1.0460 -0.2869
11604TIP3   OH256226   0.391   3.914   0.390 -0.3938  0.0255 -0.1718
11604TIP3    H156227   0.464   3.910   0.328  0.0272 -0.8568  0.3672
11604TIP3    H256228   0.382   3.824   0.422 -1.6516  0.1479 -0.1521
11605TIP3   OH256229   4.777   4.948  15.513  0.0690 -0.1687 -0.7111
11605TIP3    H156230   4.795   4.908  15.428 -1.9677 -0.9102 -0.8297
11605TIP3    H256231   4.814   5.036  15.507  0.2218 -0.3305 -2.2586
11606TIP3   OH256232   1.889   4.026   5.850  0.1665 -0.1003 -0.4212
11606TIP3    H156233   1.946   4.004   5.776  1.2944 -0.9914  0.6923
11606TIP3    H256234   1.948   4.066   5.914 -0.9684  1.5370 -0.3763
11607TIP3   OH256235   3.942   6.200   1.923 -0.5457 -0.0789 -0.3084
11607TIP3    H156236   4.031   6.208   1.957 -0.9076 -0.0294  0.6222
11607TIP3    H256237   3.889   6.257   1.978 -1.2486 -0.5144 -0.5275
11608TIP3   OH256238   1.273   0.988   4.247 -0.2912  0.1610 -0.8303
11608TIP3    H156239   1.205   0.930   4.212 -1.9016  0.0365  2.3077
11608TIP3    H256240   1.232   1.074   4.250 -0.1902  0.1737  0.6522
11609TIP3   OH256241   2.807   0.770   0.488 -0.1812 -0.5888 -0.1788
11609TIP3    H156242   2.718   0.772   0.453  0.6317 -1.9746 -2.4063
11609TIP3    H256243   2.832   0.862   0.494 -0.9778 -0.2640 -1.5810
11610TIP3   OH256244   5.095   6.178   4.479 -0.1332  0.2937  0.6248
11610TIP3    H156245   5.118   6.261   4.437  1.4171 -0.4632 -0.0854
11610TIP3    H256246   5.149   6.175   4.558 -0.2219  0.0003  0.6752
11611TIP3   OH256247   0.830   5.702  11.237 -0.1321 -0.2338  0.5063
11611TIP3    H156248   0.908   5.646  11.242  0.7249  0.9722  0.9803
11611TIP3    H256249   0.762   5.653  11.283  0.8126 -0.5683  1.5786
11612TIP3   OH256250   4.091   3.233   4.331 -0.0872 -0.0751  0.3814
11612TIP3    H156251   4.097   3.166   4.399  1.2371 -0.6872 -0.3107
11612TIP3    H256252   4.178   3.272   4.328  0.0396 -0.4067 -1.2830
11613TIP3   OH256253   0.024   1.686  11.953 -0.1919  0.2756  0.1008
11613TIP3    H156254   0.026   1.592  11.972 -0.6088  0.2892  0.2215
11613TIP3    H256255  -0.005   1.692  11.862 -0.0193  0.2824  0.0465
11614TIP3   OH256256   6.753   3.195   3.310 -0.3447  0.2095  0.6031
11614TIP3    H156257   6.826   3.239   3.266  0.2649 -0.6207  0.7841
11614TIP3    H256258   6.683   3.261   3.311  0.1944  0.8013 -0.1103
11615TIP3   OH256259   2.445   1.727  14.256  0.1664  0.4060 -0.0516
11615TIP3    H156260   2.535   1.737  14.288  0.0248 -0.9175  0.8232
11615TIP3    H256261   2.442   1.777  14.175  1.8571  0.0001 -0.3756
11616TIP3   OH256262   2.983   3.834   0.536  0.5654 -0.2071  0.7142
11616TIP3    H156263   2.952   3.902   0.596 -0.4158 -1.0508  1.1729
11616TIP3    H256264   2.910   3.773   0.528 -0.8717  1.9083 -4.4499
11617TIP3   OH256265   6.044   1.023   5.123  0.2331  0.1818  0.1969
11617TIP3    H156266   5.969   0.999   5.069  0.6500  2.1554 -1.3251
11617TIP3    H256267   6.076   0.940   5.158 -1.4736 -0.8855 -0.6996
11618TIP3   OH256268   0.439   0.482  16.139 -0.1009 -0.1193 -0.1402
11618TIP3    H156269   0.527   0.474  16.176 -0.8391 -1.3566  1.3691
11618TIP3    H256270   0.381   0.492  16.214 -1.6476 -2.8933 -0.9052
11619TIP3   OH256271   0.032   5.742  16.092  0.0143  0.5602 -0.5272
11619TIP3    H156272   0.069   5.830  16.080  1.5321  0.0609  0.3531
11619TIP3    H256273   0.062   5.716  16.179  1.0617 -1.5381 -1.4890
11620TIP3   OH256274   3.376   6.549  11.877 -0.4755 -0.4866  0.4138
11620TIP3    H156275   3.322   6.564  11.955 -0.4016  1.7210  0.0954
11620TIP3    H256276   3.466   6.551  11.909 -0.4603 -0.0514  0.3467
11621TIP3   OH256277   0.580   1.525   3.919  0.3112  0.0055  0.1912
11621TIP3    H156278   0.609   1.486   4.002  1.6872  0.7327  0.0790
11621TIP3    H256279   0.662   1.545   3.873 -0.4228  0.6385 -0.8513
11622TIP3   OH256280   1.563   1.560  14.971  0.0083 -0.7002 -0.2105
11622TIP3    H156281   1.517   1.623  14.915 -0.7292 -0.5866  0.5074
11622TIP3    H256282   1.628   1.612  15.018  0.8261 -0.8439 -1.1560
11623TIP3   OH256283   6.178   1.569  14.513  0.1235  0.0689  0.6740
11623TIP3    H156284   6.250   1.611  14.560  0.8608 -0.7113  0.2754
11623TIP3    H256285   6.143   1.506  14.575 -0.3586  0.6088  0.9460
11624TIP3   OH256286   6.430   0.076   5.669 -0.7444 -0.2495  0.4053
11624TIP3    H156287   6.496   0.009   5.682 -1.1053 -0.5363  0.7555
11624TIP3    H256288   6.466   0.154   5.712 -0.3708 -0.2375  0.0785
11625TIP3   OH256289   5.600   5.804  12.452  0.5366  0.4535 -0.3344
11625TIP3    H156290   5.575   5.714  12.429  2.2064  0.3180 -1.6651
11625TIP3    H256291   5.628   5.798  12.543 -2.5312  0.2874  0.6708
11626TIP3   OH256292   2.777   4.418   4.247 -0.0096  0.0872 -0.2197
11626TIP3    H156293   2.721   4.341   4.242  0.0476  0.0297  0.0211
11626TIP3    H256294   2.722   4.490   4.216  0.2972 -0.2358 -1.5597
11627TIP3   OH256295   5.547   1.479  11.597 -0.1241  0.2587 -1.0175
11627TIP3    H156296   5.606   1.489  11.522 -1.9476  0.2321 -2.4833
11627TIP3    H256297   5.541   1.384  11.609  0.0013  0.2562 -0.9707
11628TIP3   OH256298   0.277   1.064   5.672 -0.1510 -0.4618  0.6161
11628TIP3    H156299   0.215   1.001   5.637  1.0158 -0.5092 -1.4329
11628TIP3    H256300   0.318   1.018   5.746  1.1010 -2.3692 -1.2031
11629TIP3   OH256301   1.818   4.833  12.996  0.1986  0.2290  0.6072
11629TIP3    H156302   1.784   4.774  13.063 -2.1492  0.1548 -0.5945
11629TIP3    H256303   1.868   4.776  12.938  0.0768 -0.1577  0.8748
11630TIP3   OH256304   4.436   1.824   6.678 -0.5095 -0.1442 -0.5593
11630TIP3    H156305   4.531   1.819   6.665 -0.0804  0.4568  2.0970
11630TIP3    H256306   4.415   1.745   6.728 -1.6786 -1.0439 -2.4016
11631TIP3   OH256307   4.654   4.566  14.453 -0.3478  0.3282  0.2959
11631TIP3    H156308   4.708   4.489  14.470  0.1577  0.1315 -2.0828
11631TIP3    H256309   4.710   4.640  14.477  0.8894  0.1099 -1.7894
11632TIP3   OH256310   2.041   0.678   5.759  0.4780  0.1747  0.0495
11632TIP3    H156311   2.116   0.718   5.717  1.3377 -0.2146  1.1952
11632TIP3    H256312   2.077   0.604   5.808 -1.0522 -1.9667 -1.9548
11633TIP3   OH256313   1.138   5.203  15.587 -0.4608  0.4295  0.0700
11633TIP3    H156314   1.217   5.225  15.538 -0.7706  0.0630 -0.5939
11633TIP3    H256315   1.091   5.141  15.532 -0.6838 -0.1962  0.9512
11634TIP3   OH256316   3.671   5.832  14.267  0.4818 -0.3051 -0.5225
11634TIP3    H156317   3.676   5.921  14.233  1.8967 -0.6062 -1.1308
11634TIP3    H256318   3.651   5.777  14.191 -0.4489 -0.5128 -0.1400
11635TIP3   OH256319   4.974   2.376   0.765 -0.1263 -0.4482 -0.1756
11635TIP3    H156320   4.894   2.422   0.791  0.8365  1.4009 -0.4314
11635TIP3    H256321   5.004   2.333   0.845 -0.4370  0.2541  0.3184
11636TIP3   OH256322   1.815   2.614   0.767  0.2718 -0.0579 -0.3766
11636TIP3    H156323   1.757   2.543   0.794 -0.0716 -0.2709 -1.6767
11636TIP3    H256324   1.814   2.611   0.672  1.2434  0.8960 -0.4201
11637TIP3   OH256325   2.081   6.729  14.925 -0.0953 -0.4516 -0.4476
11637TIP3    H156326   2.163   6.772  14.900  0.1440 -0.4380  0.3546
11637TIP3    H256327   2.016   6.800  14.927  0.1541 -0.2376  0.2088
11638TIP3   OH256328   6.097   6.017  15.974  0.5255 -0.0598  0.3156
11638TIP3    H156329   6.074   5.925  15.960 -0.3015  0.7210 -4.6515
11638TIP3    H256330   6.016   6.057  16.006 -0.1126 -0.4748 -0.7406
11639TIP3   OH256331   6.470   5.124  15.672 -0.0149  0.3001  0.1571
11639TIP3    H156332   6.436   5.098  15.586  1.9757 -1.4793 -0.1594
11639TIP3    H256333   6.457   5.218  15.676 -1.3134  0.2203 -1.5623
11640TIP3   OH256334   4.378   4.124   2.447 -0.0721 -0.1043 -0.6913
11640TIP3    H156335   4.425   4.205   2.464  3.2931 -2.2961  0.9491
11640TIP3    H256336   4.375   4.117   2.352 -0.2068  1.8020 -0.8335
11641TIP3   OH256337   2.142   2.581  14.606 -0.0859 -0.3153 -0.6619
11641TIP3    H156338   2.159   2.535  14.688  1.3315 -0.4882 -1.0431
11641TIP3    H256339   2.188   2.530  14.539  0.2038  0.7622 -1.3099
11642TIP3   OH256340   2.865   2.310  11.800  0.2792  0.4793 -0.3521
11642TIP3    H156341   2.800   2.288  11.866  2.2874  1.9621  2.2185
11642TIP3    H256342   2.838   2.395  11.766  0.5220  0.8187  0.2922
11643TIP3   OH256343   3.650   6.713  12.996 -0.2685 -0.2578  0.1533
11643TIP3    H156344   3.652   6.693  13.090  1.4286 -0.6402  0.0616
11643TIP3    H256345   3.733   6.678  12.963  0.7114  2.9219 -0.8694
11644TIP3   OH256346   0.086   4.201   0.735  0.8020  0.0176 -0.6011
11644TIP3    H156347   0.093   4.284   0.689  0.0534 -0.1490 -1.0279
11644TIP3    H256348   0.160   4.201   0.796  3.3303 -0.8264 -3.5222
11645TIP3   OH256349   5.441   5.635  16.014  0.0120  0.0355 -0.4809
11645TIP3    H156350   5.394   5.646  15.931  0.4461  0.7865 -0.6375
11645TIP3    H256351   5.406   5.554  16.051 -0.4080 -0.1420 -1.2525
11646TIP3   OH256352   5.190   5.395  10.287  0.4081 -0.6625  0.5617
11646TIP3    H156353   5.156   5.484  10.296  0.7298 -0.5586  0.7528
11646TIP3    H256354   5.252   5.386  10.359 -0.7214 -1.5545  1.4240
11647TIP3   OH256355   0.947   2.634   4.493 -0.7296  0.5868  0.1389
11647TIP3    H156356   0.898   2.647   4.412  1.1154  2.1383 -0.7815
11647TIP3    H256357   1.039   2.646   4.468 -0.0870  0.5910  2.3559
11648TIP3   OH256358   6.683   3.491  11.960 -0.3700  0.1384  0.0627
11648TIP3    H156359   6.737   3.569  11.969 -0.5285  0.3716 -0.9200
11648TIP3    H256360   6.623   3.512  11.887 -0.6951 -0.7257  0.0805
11649TIP3   OH256361   0.434   2.443  13.666 -0.0149  0.3144  0.0540
11649TIP3    H156362   0.505   2.384  13.690 -0.6701 -0.8453 -0.8235
11649TIP3    H256363   0.459   2.527  13.705  1.1473 -0.4181  0.9203
11650TIP3   OH256364   1.592   2.490   2.042 -0.5629  0.0280  0.7742
11650TIP3    H156365   1.632   2.576   2.027  0.6963 -0.8276 -1.1005
11650TIP3    H256366   1.498   2.504   2.030 -0.3559  1.1273  0.3840
11651TIP3   OH256367   0.923   6.146   3.668 -0.2691 -0.5648  0.0537
11651TIP3    H156368   0.979   6.131   3.744 -1.0000 -0.0976  0.7036
11651TIP3    H256369   0.934   6.069   3.614  1.0574 -0.4400  0.1326
11652TIP3   OH256370   3.589   0.592  13.599 -0.2205 -0.1660 -0.3435
11652TIP3    H156371   3.682   0.577  13.584 -0.2183  0.6853 -1.2455
11652TIP3    H256372   3.545   0.537  13.534 -0.2229  3.1550 -3.2988
11653TIP3   OH256373   0.528   6.173  15.240 -0.1618  0.4132 -0.7769
11653TIP3    H156374   0.563   6.088  15.213 -1.2553  0.3581 -2.0408
11653TIP3    H256375   0.550   6.179  15.333 -1.7112 -2.0905 -0.2042
11654TIP3   OH256376   6.200   4.870   0.675 -0.3738 -0.4274  0.4837
11654TIP3    H156377   6.273   4.897   0.618 -0.9312  1.4992  0.6421
11654TIP3    H256378   6.125   4.919   0.642 -1.3533 -1.5432  1.0431
11655TIP3   OH256379   0.064   1.313  12.594 -0.3370 -0.0828  0.4545
11655TIP3    H156380  -0.029   1.306  12.616 -0.5385 -2.1147 -0.9570
11655TIP3    H256381   0.108   1.258  12.659 -0.2700 -0.3180  0.2123
11656TIP3   OH256382   3.817   5.755   0.392 -0.1331  0.0023 -0.2640
11656TIP3    H156383   3.756   5.741   0.320 -0.2977 -0.3836 -0.0465
11656TIP3    H256384   3.778   5.826   0.443 -0.7671 -0.7440  0.2885
11657TIP3   OH256385   5.962   5.405  13.357 -0.2374  0.1552  0.4954
11657TIP3    H156386   5.960   5.366  13.445  1.0914 -0.2351  0.3547
11657TIP3    H256387   5.885   5.368  13.313  0.0263 -0.9448  0.9523
11658TIP3   OH256388   1.494   0.884  15.309 -0.3829 -0.1529 -0.8868
11658TIP3    H156389   1.527   0.795  15.317 -1.9646 -0.6547  0.1977
11658TIP3    H256390   1.547   0.923  15.239  1.1534 -1.5385 -0.5140
11659TIP3   OH256391   1.876   0.066   2.441 -0.3797  0.5396 -0.3525
11659TIP3    H156392   1.955   0.096   2.397 -0.7407 -0.0706 -1.4326
11659TIP3    H256393   1.827   0.020   2.373 -0.9012 -0.4876  0.7052
11660TIP3   OH256394   3.311   6.283   3.227 -0.2566 -0.1110 -0.2290
11660TIP3    H156395   3.406   6.279   3.216  0.0141  1.4220  1.4111
11660TIP3    H256396   3.277   6.222   3.161  1.8850 -1.3618 -0.2197
11661TIP3   OH256397   5.282   6.169   2.752 -0.1473 -0.1030  0.3350
11661TIP3    H156398   5.193   6.132   2.755  0.3635 -1.3537  0.3466
11661TIP3    H256399   5.336   6.105   2.799  0.6185  1.0771  1.0772
11662TIP3   OH256400   4.018   2.984   4.550  0.3218  0.0979  0.1010
11662TIP3    H156401   4.014   2.937   4.633  0.7521  1.0926  0.6838
11662TIP3    H256402   3.966   2.930   4.490  0.4069 -0.8700  0.8857
11663TIP3   OH256403   5.026   4.213   3.848 -0.1920 -0.1224 -0.2273
11663TIP3    H156404   4.974   4.168   3.781  0.8029 -1.7655  0.0754
11663TIP3    H256405   4.997   4.174   3.930  0.1391  0.3370  0.1059
11664TIP3   OH256406   2.327   5.284  10.985  0.1982  0.4509 -0.5000
11664TIP3    H156407   2.357   5.317  10.900 -0.9369  1.3926 -0.5523
11664TIP3    H256408   2.264   5.216  10.964  0.1523  0.4686 -0.4206
11665TIP3   OH256409   3.523   1.013   1.503 -0.6046  0.1348  0.2142
11665TIP3    H156410   3.528   1.074   1.577  0.8751 -0.4234  0.6010
11665TIP3    H256411   3.569   0.935   1.534 -0.6059 -0.3733 -1.0413
11666TIP3   OH256412   0.514   2.315  12.068 -0.5453 -0.7513  0.1132
11666TIP3    H156413   0.562   2.237  12.042  0.2680  0.1225 -1.0624
11666TIP3    H256414   0.444   2.282  12.125 -1.4071 -2.5403 -1.9039
11667TIP3   OH256415   1.978   3.068   5.619 -0.8473 -0.0651  0.0138
11667TIP3    H156416   1.915   3.010   5.576 -1.3126  1.7397 -1.8142
11667TIP3    H256417   1.958   3.060   5.712 -1.2169 -2.4349 -0.2349
11668TIP3   OH256418   1.985   6.362   1.174 -0.0229 -0.3107 -0.6290
11668TIP3    H156419   2.062   6.309   1.194  0.5456  0.3790 -0.9881
11668TIP3    H256420   1.981   6.364   1.078  0.6113  1.2405 -0.6322
11669TIP3   OH256421   3.945   3.992  13.747 -0.4891  0.5052  0.4105
11669TIP3    H156422   3.995   4.059  13.793 -3.9031  1.5091  2.8515
11669TIP3    H256423   3.901   4.039  13.677 -1.1052  0.3871  0.7183
11670TIP3   OH256424   0.446   0.391  12.940  0.5066 -0.5076 -0.1229
11670TIP3    H156425   0.510   0.453  12.972  0.1667 -0.0785 -0.2714
11670TIP3    H256426   0.422   0.424  12.853  0.5140 -0.9834 -0.3078
11671TIP3   OH256427   0.257   3.312   6.632 -0.2131 -0.5324  0.2718
11671TIP3    H156428   0.315   3.259   6.578 -0.7699 -0.6460 -0.2214
11671TIP3    H256429   0.295   3.309   6.719 -0.0987 -1.5315  0.1907
11672TIP3   OH256430   0.217   5.417  16.318  0.5148 -0.0754 -0.7867
11672TIP3    H156431   0.235   5.393  16.409  3.3004  1.9662 -0.7458
11672TIP3    H256432   0.139   5.472  16.322  0.2332 -0.5446  0.2922
11673TIP3   OH256433   6.694   1.688   0.160 -0.1426 -0.6116 -0.1991
11673TIP3    H156434   6.744   1.754   0.112 -0.9786  0.6601  0.6418
11673TIP3    H256435   6.659   1.631   0.093  1.6584 -0.9855 -0.8611
11674TIP3   OH256436   2.373   5.539  15.375  0.0546 -0.2825 -0.4255
11674TIP3    H156437   2.322   5.477  15.324  0.8618  1.3597 -3.3550
11674TIP3    H256438   2.378   5.618  15.320  2.9281  0.7475  1.1678
11675TIP3   OH256439   1.401   0.349   2.488 -0.2632 -0.0023 -0.1512
11675TIP3    H156440   1.457   0.276   2.461  0.2361  0.1917  0.3337
11675TIP3    H256441   1.463   0.414   2.522 -0.5980  1.0857 -1.5666
11676TIP3   OH256442   0.521   3.390  16.931  0.4798  0.2501  0.8263
11676TIP3    H156443   0.512   3.419  17.021  2.2655 -0.8531  1.3848
11676TIP3    H256444   0.589   3.446  16.894 -1.0935  1.5297 -0.2385
11677TIP3   OH256445   1.958   1.444   5.472  0.6776 -0.2631  0.2151
11677TIP3    H156446   2.001   1.363   5.500 -1.1850 -1.3734 -0.0395
11677TIP3    H256447   1.912   1.475   5.550  2.1007  1.0631  0.5594
11678TIP3   OH256448   4.247   3.945  17.207  0.5325  0.1648  0.0296
11678TIP3    H156449   4.307   3.962  17.135 -0.0847  0.1348 -0.5044
11678TIP3    H256450   4.284   3.869  17.252  0.2763 -0.5860 -1.0001
11679TIP3   OH256451   0.139   6.320  16.040  0.3871  0.0208  0.7141
11679TIP3    H156452   0.180   6.336  16.125  0.8710  0.2758  0.4337
11679TIP3    H256453   0.091   6.401  16.021 -0.2060 -0.2564  1.0202
11680TIP3   OH256454   0.388   5.055  11.936 -0.2137 -0.2039  0.8074
11680TIP3    H156455   0.412   5.017  11.852 -1.2132 -0.6245  0.7088
11680TIP3    H256456   0.298   5.027  11.951 -1.6231  3.5285 -0.0711
11681TIP3   OH256457   4.431   0.783   6.027  0.2027 -0.1328  0.5467
11681TIP3    H156458   4.363   0.756   6.089 -1.1727 -1.1624 -1.3254
11681TIP3    H256459   4.500   0.820   6.081 -0.7546 -1.3970  2.7199
11682TIP3   OH256460   3.309   6.613  10.573  0.1522  0.0668 -0.2709
11682TIP3    H156461   3.375   6.682  10.576 -1.4347  1.6202 -0.1412
11682TIP3    H256462   3.325   6.568  10.490 -0.0339  1.8916 -1.3255
11683TIP3   OH256463   4.172   1.307  13.679 -0.0197  0.5701  0.2184
11683TIP3    H156464   4.233   1.378  13.700  0.9165 -0.4690  1.1168
11683TIP3    H256465   4.172   1.304  13.583  1.6336  0.3687  0.1972
11684TIP3   OH256466   5.970   0.185  14.733  0.1203 -0.1098  0.2117
11684TIP3    H156467   5.954   0.091  14.729  0.5661 -0.1394 -1.6468
11684TIP3    H256468   5.928   0.220  14.654 -1.5520  1.5007  1.7730
11685TIP3   OH256469   4.201   2.423   5.886 -0.3878  1.3315 -0.5798
11685TIP3    H156470   4.151   2.381   5.956  0.2498  0.8060 -0.4354
11685TIP3    H256471   4.246   2.351   5.842  2.8301  2.0437  1.3400
11686TIP3   OH256472   5.238   6.498   5.661 -0.5657 -0.0529 -0.0029
11686TIP3    H156473   5.166   6.560   5.648 -0.0743  0.2418 -1.4305
11686TIP3    H256474   5.253   6.460   5.574  1.7105  0.6967  0.0361
11687TIP3   OH256475   5.782   5.948  15.249  0.4165 -0.5530 -0.1193
11687TIP3    H156476   5.741   5.904  15.175 -1.2307  1.4811 -0.4729
11687TIP3    H256477   5.853   5.999  15.210  0.1833 -0.2787 -0.1970
11688TIP3   OH256478   6.302   2.071  15.100  0.0398 -0.5244 -0.6828
11688TIP3    H156479   6.361   2.143  15.078  0.8571 -0.2014  2.3454
11688TIP3    H256480   6.227   2.114  15.143 -0.2070 -1.3361 -0.2878
11689TIP3   OH256481   6.732   6.181  11.140  0.1524  0.2235  0.0002
11689TIP3    H156482   6.663   6.116  11.123  1.2273 -1.0094  0.2704
11689TIP3    H256483   6.723   6.203  11.233  0.1762  0.0072  0.0540
11690TIP3   OH256484   4.247   5.370  11.829 -0.2463 -0.6414 -0.4699
11690TIP3    H156485   4.269   5.438  11.893 -1.2106  0.0411 -0.8562
11690TIP3    H256486   4.255   5.414  11.744 -1.7076 -0.7789 -0.6814
11691TIP3   OH256487   3.625   6.332   2.115  0.9325 -0.0495  0.6662
11691TIP3    H156488   3.552   6.292   2.162 -0.1035 -0.5599 -1.3183
11691TIP3    H256489   3.611   6.307   2.023  3.0581  0.6729  0.1177
11692TIP3   OH256490   5.259   5.252  11.656  0.5458  0.2084  0.6347
11692TIP3    H156491   5.288   5.233  11.567 -0.7204  1.3546 -0.0395
11692TIP3    H256492   5.174   5.207  11.663 -0.1076  1.4564  0.7229
11693TIP3   OH256493   4.907   3.950  12.128 -0.2051  0.8771  0.0394
11693TIP3    H156494   4.943   3.902  12.203 -1.5513  0.8112  0.6580
11693TIP3    H256495   4.972   3.939  12.059 -0.5247 -1.9536  0.1374
11694TIP3   OH256496   3.320   1.037   2.116 -0.0760 -0.1415 -0.0953
11694TIP3    H156497   3.262   1.023   2.041  1.8233 -1.5651 -1.3712
11694TIP3    H256498   3.286   0.979   2.184 -1.3146  0.5163 -0.1429
11695TIP3   OH256499   6.435   1.722  14.945  0.0121 -0.9636 -0.0723
11695TIP3    H156500   6.401   1.734  15.034 -0.3334 -0.8104 -0.2228
11695TIP3    H256501   6.530   1.733  14.954 -0.1894  0.9722 -0.0336
11696TIP3   OH256502   6.302   5.892   0.563  0.4402 -0.0021 -0.2703
11696TIP3    H156503   6.213   5.912   0.536  0.9637  1.2710 -1.1024
11696TIP3    H256504   6.304   5.913   0.657 -0.3808 -0.9384 -0.0378
11697TIP3   OH256505   4.211   4.740   5.962  0.0543  0.3695  0.1109
11697TIP3    H156506   4.185   4.812   5.905  1.2547  0.2491 -0.6088
11697TIP3    H256507   4.269   4.780   6.027  1.8328 -0.1566 -1.1081
11698TIP3   OH256508   0.712   6.031  16.222  0.4478 -0.6459  0.5033
11698TIP3    H156509   0.799   6.032  16.262  0.1443  0.1390  1.1693
11698TIP3    H256510   0.686   6.123  16.222 -0.3641 -0.8795  0.2673
11699TIP3   OH256511   3.129   5.889  13.010 -0.2552  0.1429 -0.0060
11699TIP3    H156512   3.041   5.870  13.043  0.2767  0.6005  1.7511
11699TIP3    H256513   3.123   5.978  12.975 -0.5033  0.1435  0.0358
11700TIP3   OH256514   0.384   3.914  12.900 -0.3815 -1.0261  0.0604
11700TIP3    H156515   0.326   3.882  12.969 -1.4174  0.5773 -0.0378
11700TIP3    H256516   0.445   3.842  12.885 -1.8128 -2.4281  0.7568
11701TIP3   OH256517   4.576   5.028   0.358 -0.9487  0.4011  0.3319
11701TIP3    H156518   4.657   5.021   0.408  0.2388  0.4696 -1.5459
11701TIP3    H256519   4.568   4.944   0.313 -1.2272  0.8964 -0.5396
11702TIP3   OH256520   4.841   2.488  16.299 -0.2713  0.1110  0.0371
11702TIP3    H156521   4.802   2.421  16.244 -0.7051 -0.5920  1.1787
11702TIP3    H256522   4.777   2.502  16.369  0.0005  1.4139  0.0439
11703TIP3   OH256523   5.398   1.335  10.785  0.2030 -0.3707 -0.2795
11703TIP3    H156524   5.323   1.319  10.726 -1.4366  1.5043  1.2193
11703TIP3    H256525   5.370   1.409  10.839  2.3435 -0.9881  1.7288
11704TIP3   OH256526   1.924   3.090  14.957  0.1275  0.5317  0.4313
11704TIP3    H156527   2.019   3.097  14.945  0.3080  0.4765  1.7358
11704TIP3    H256528   1.905   3.147  15.032 -0.6974 -0.3618  0.9123
11705TIP3   OH256529   0.496   6.299  11.036  0.9459  0.0384 -0.1540
11705TIP3    H156530   0.557   6.286  11.108 -0.5757 -2.2732  0.7728
11705TIP3    H256531   0.414   6.326  11.078  0.1931 -0.8406 -1.0248
11706TIP3   OH256532   5.675   5.434  13.915 -0.4063  0.3228  0.5844
11706TIP3    H156533   5.669   5.405  14.006 -1.8666  2.1002  1.0968
11706TIP3    H256534   5.620   5.513  13.911  2.1611  2.1372 -1.0887
11707TIP3   OH256535   2.009   0.219  14.943  0.3747  0.5943  0.1773
11707TIP3    H156536   1.985   0.311  14.942 -0.6930  0.3136 -0.9083
11707TIP3    H256537   2.055   0.205  14.860  2.3300  0.5946  1.2211
11708TIP3   OH256538   2.411   2.521  12.849 -0.0042  0.4064 -0.2012
11708TIP3    H156539   2.459   2.516  12.766  0.5881 -1.1014  0.2138
11708TIP3    H256540   2.415   2.433  12.885  0.8240  1.3014  2.0461
11709TIP3   OH256541   5.293   1.530  11.683 -0.2208  0.8093  0.0558
11709TIP3    H156542   5.367   1.486  11.641 -2.3717 -1.3594 -1.6148
11709TIP3    H256543   5.285   1.613  11.637  0.4896  0.5616 -0.5226
11710TIP3   OH256544   5.099   6.397  12.993  0.4531  0.2863 -0.1216
11710TIP3    H156545   5.116   6.476  13.044 -0.4053  0.0867  0.4788
11710TIP3    H256546   5.086   6.328  13.058  0.4984 -0.2058 -0.6308
11711TIP3   OH256547   3.749   5.744  12.729 -0.0511 -0.3209 -0.9951
11711TIP3    H156548   3.673   5.723  12.784  1.5555 -0.4348  1.2587
11711TIP3    H256549   3.730   5.831  12.694 -0.6072  0.2682  0.7017
11712TIP3   OH256550   0.485   1.168  12.131 -0.6725  0.5052 -0.7101
11712TIP3    H156551   0.429   1.199  12.203 -0.4444 -0.1793 -0.2337
11712TIP3    H256552   0.559   1.229  12.131 -0.5033  0.3000 -0.1420
11713TIP3   OH256553   4.874   5.209  15.425 -0.4101  0.3695 -0.1665
11713TIP3    H156554   4.901   5.297  15.451 -0.4396  0.2408  0.2984
11713TIP3    H256555   4.954   5.167  15.395 -0.3090  0.3856  0.0839
11714TIP3   OH256556   1.638   6.624   4.077  0.4934 -0.2076  0.2136
11714TIP3    H156557   1.580   6.655   4.007  0.9709 -2.9271 -1.4691
11714TIP3    H256558   1.719   6.600   4.033  0.8288 -1.9485  1.6983
11715TIP3   OH256559   4.905   5.570   1.103  0.0374 -0.1750  0.0545
11715TIP3    H156560   4.904   5.646   1.045  1.1153  0.9495  1.4567
11715TIP3    H256561   4.827   5.580   1.158  0.8683  0.6527  1.1163
11716TIP3   OH256562   3.263   5.004   2.699 -0.2169 -0.5533 -0.2821
11716TIP3    H156563   3.287   5.031   2.611  0.2821 -1.7368 -0.5213
11716TIP3    H256564   3.185   4.950   2.688 -1.6424  1.3259  0.2671
11717TIP3   OH256565   2.999   4.047   2.080 -0.3025  0.4055 -0.3142
11717TIP3    H156566   3.057   4.074   2.008 -0.5298 -0.5498 -0.8629
11717TIP3    H256567   3.007   3.952   2.083  0.1871  0.4749  1.3429
11718TIP3   OH256568   3.888   2.808  15.643 -0.3508 -0.1742  0.4340
11718TIP3    H156569   3.916   2.870  15.576  0.4930 -0.9851  0.0177
11718TIP3    H256570   3.824   2.752  15.598  1.1933 -1.5512 -0.0943
11719TIP3   OH256571   3.702   6.124  11.840  0.4539 -0.1554  0.0489
11719TIP3    H156572   3.676   6.094  11.753 -0.3887 -0.4398  0.3968
11719TIP3    H256573   3.706   6.219  11.833  1.2580 -0.2219 -0.5324
11720TIP3   OH256574   3.074   3.533   3.298 -0.5234 -0.2325 -0.0648
11720TIP3    H156575   3.163   3.512   3.267 -0.9129 -0.4208 -1.0788
11720TIP3    H256576   3.068   3.628   3.292 -1.1977 -0.3850 -2.2982
11721TIP3   OH256577   4.523   5.560  16.968  0.2779 -0.2039 -0.5378
11721TIP3    H156578   4.440   5.588  17.007  2.3337 -0.6382  4.5695
11721TIP3    H256579   4.536   5.470  16.998  3.2878  0.3774  0.1621
11722TIP3   OH256580   1.663   3.798  16.608  0.4688  0.1047 -0.7882
11722TIP3    H156581   1.568   3.794  16.597  0.2100 -0.4091  1.3703
11722TIP3    H256582   1.691   3.707  16.609  0.9412  0.2462 -1.1156
11723TIP3   OH256583   1.474   4.444   5.309 -0.5673  0.3043  0.5570
11723TIP3    H156584   1.390   4.468   5.347 -0.2746 -0.0958  1.4678
11723TIP3    H256585   1.453   4.381   5.240 -1.1087  1.1074 -0.0122
11724TIP3   OH256586   1.298   4.808  11.331 -0.4949  0.2769  0.5458
11724TIP3    H156587   1.382   4.836  11.367 -0.2682 -0.1698  0.3626
11724TIP3    H256588   1.278   4.873  11.264 -0.1170  0.1719  0.3320
11725TIP3   OH256589   0.609   2.577   1.188  0.1101  0.1372 -0.9378
11725TIP3    H156590   0.525   2.539   1.214 -0.5472  1.4063 -1.2090
11725TIP3    H256591   0.671   2.505   1.200 -1.2010 -1.2002 -1.9247
11726TIP3   OH256592   4.518   4.482   2.072  0.3139  0.8250 -0.0873
11726TIP3    H156593   4.571   4.553   2.035 -0.3015  2.0154  1.2787
11726TIP3    H256594   4.579   4.431   2.125  0.6052  0.7327 -0.5048
11727TIP3   OH256595   2.338   1.812   3.065 -0.6030  0.1088  0.2227
11727TIP3    H156596   2.252   1.769   3.066 -0.0986 -0.8845  0.7546
11727TIP3    H256597   2.342   1.855   2.979 -1.7822  0.4747  0.3405
11728TIP3   OH256598   6.111   5.615  13.528 -0.5920  0.3740  0.3571
11728TIP3    H156599   6.090   5.524  13.504  3.2752 -0.8070  1.0915
11728TIP3    H256600   6.108   5.663  13.445 -1.2070 -0.7206 -0.2673
11729TIP3   OH256601   4.327   5.820   5.253  0.1492  0.2625 -0.0402
11729TIP3    H156602   4.341   5.758   5.182 -0.6681  0.7501 -0.6261
11729TIP3    H256603   4.361   5.903   5.219 -0.1209  0.4678  0.1913
11730TIP3   OH256604   3.716   4.998  11.816  0.4591  0.3473  0.5121
11730TIP3    H156605   3.726   4.924  11.876  1.3872  0.1680  0.1536
11730TIP3    H256606   3.803   5.038  11.813  0.1897  0.9006 -0.0065
11731TIP3   OH256607   1.461   0.088  10.396 -0.0130 -0.0215 -0.1088
11731TIP3    H156608   1.517   0.087  10.318  2.8114 -1.2866  1.8396
11731TIP3    H256609   1.511   0.039  10.461 -2.4590  0.7428  2.4149
11732TIP3   OH256610   5.980   3.480   5.885  0.1307 -0.0671 -0.4058
11732TIP3    H156611   6.057   3.442   5.843 -0.7966 -0.3123 -1.8960
11732TIP3    H256612   5.929   3.406   5.915 -0.3344  0.0627 -0.8781
11733TIP3   OH256613   2.026   4.326  13.263 -0.0738  0.0957 -0.1284
11733TIP3    H156614   2.064   4.413  13.278  0.7137 -0.1117 -0.9278
11733TIP3    H256615   2.083   4.267  13.311 -0.3039 -0.0497 -0.0328
11734TIP3   OH256616   2.521   3.122  16.624 -0.0362 -0.6209 -0.0836
11734TIP3    H156617   2.537   3.201  16.676 -1.8697 -0.7033  0.6372
11734TIP3    H256618   2.569   3.137  16.543 -0.9196  1.5788 -0.2458
11735TIP3   OH256619   5.194   0.513   3.581  0.1206  0.0686 -0.3277
11735TIP3    H156620   5.208   0.443   3.644  1.4614  1.5013  0.9919
11735TIP3    H256621   5.243   0.487   3.504  1.1960 -0.1132  0.4172
11736TIP3   OH256622   0.832   4.048  15.623 -0.6680 -0.4689 -0.0364
11736TIP3    H156623   0.858   4.070  15.712 -0.3640 -0.7786 -0.0483
11736TIP3    H256624   0.851   4.127  15.572 -0.0150 -0.5978  0.0052
11737TIP3   OH256625   4.916   5.259  14.398  0.5545  0.3251 -0.2516
11737TIP3    H156626   4.980   5.294  14.335 -1.3148  0.3090 -2.2263
11737TIP3    H256627   4.902   5.169  14.371  2.0112 -0.6575  2.1129
11738TIP3   OH256628   3.877   5.425  14.172  0.4928  0.2405  0.1276
11738TIP3    H156629   3.908   5.515  14.179  0.9707 -0.0306  1.8410
11738TIP3    H256630   3.925   5.378  14.241 -1.6718 -0.7669  1.0019
11739TIP3   OH256631   4.654   2.558   3.709  0.2750 -0.2861 -0.2553
11739TIP3    H156632   4.679   2.568   3.800 -0.4542 -0.6359 -0.0162
11739TIP3    H256633   4.731   2.588   3.660  0.6426 -0.0353  0.4652
11740TIP3   OH256634   3.358   0.695   2.660 -0.4302 -0.1233  0.0005
11740TIP3    H156635   3.399   0.740   2.586 -0.6569 -0.6186 -0.4298
11740TIP3    H256636   3.407   0.613   2.668  1.1975  0.9982  1.9537
11741TIP3   OH256637   0.225   1.834   3.969 -0.1109 -0.1392 -0.2513
11741TIP3    H156638   0.181   1.764   3.920 -0.5665 -0.6184  0.8295
11741TIP3    H256639   0.159   1.904   3.975 -0.4516 -0.5235  0.6322
11742TIP3   OH256640   6.328   3.866  15.329  0.1495  0.0423  0.3144
11742TIP3    H156641   6.379   3.810  15.270  0.7189 -0.5806  1.3885
11742TIP3    H256642   6.287   3.805  15.391 -1.4668  0.5818 -0.1824
11743TIP3   OH256643   6.618   0.702  17.140 -0.0392  0.4295  0.8614
11743TIP3    H156644   6.597   0.771  17.076 -2.6508 -1.0075  0.0718
11743TIP3    H256645   6.533   0.661  17.159  1.1800 -1.2737  2.8230
11744TIP3   OH256646   1.392   3.993  13.336  0.7096  0.3247  0.3841
11744TIP3    H156647   1.362   3.932  13.404  3.4529 -1.8846 -0.2976
11744TIP3    H256648   1.471   4.032  13.373  0.6468  1.2265 -0.4341
11745TIP3   OH256649   1.506   2.343  15.641  0.3810 -0.3620  0.0056
11745TIP3    H156650   1.418   2.316  15.667  0.1185  0.9268  0.5159
11745TIP3    H256651   1.498   2.362  15.548  0.1597 -0.4338  0.0087
11746TIP3   OH256652   5.931   4.840   2.885 -0.3043 -0.2677 -0.2085
11746TIP3    H156653   5.940   4.744   2.889 -2.0165 -0.5496 -2.0395
11746TIP3    H256654   5.860   4.854   2.822 -1.2986  2.1681  1.4103
11747TIP3   OH256655   0.879   4.693   3.430  0.4575  0.3264 -0.4501
11747TIP3    H156656   0.796   4.686   3.382 -0.0881  0.3581  0.4818
11747TIP3    H256657   0.867   4.636   3.506  1.5907 -0.2907 -0.7362
11748TIP3   OH256658   0.298   1.841  14.094  0.2817  0.0538  0.3389
11748TIP3    H156659   0.297   1.839  14.190  0.2322  0.4909  0.3474
11748TIP3    H256660   0.212   1.809  14.069 -0.0032  0.7113  0.4585
11749TIP3   OH256661   3.461   0.058  14.737  0.1777 -0.0497  0.3709
11749TIP3    H156662   3.411   0.014  14.669  1.3071 -0.9417  0.1026
11749TIP3    H256663   3.521   0.115  14.690 -0.6392  1.0873  0.6939
11750TIP3   OH256664   4.257   0.274  15.868  0.3515 -0.0026  0.0611
11750TIP3    H156665   4.190   0.298  15.804  1.2706  0.7689 -0.6337
11750TIP3    H256666   4.246   0.180  15.881 -0.1568 -0.0786 -0.8732
11751TIP3   OH256667   4.208   1.646  13.546 -0.3662  0.6119  0.2267
11751TIP3    H156668   4.132   1.591  13.528  0.8293 -0.6154 -1.2219
11751TIP3    H256669   4.264   1.592  13.602  0.3416  0.7584 -0.3359
11752TIP3   OH256670   0.176   4.262   5.299  0.4772 -0.5080  0.5163
11752TIP3    H156671   0.105   4.215   5.256 -1.8288  3.1948  0.0709
11752TIP3    H256672   0.194   4.211   5.378 -1.2042 -2.6800 -0.4708
11753TIP3   OH256673   6.687   2.696  13.982 -0.1767  0.2340 -0.1863
11753TIP3    H156674   6.645   2.781  13.993 -0.0068  0.1751  1.0039
11753TIP3    H256675   6.691   2.683  13.887 -0.4127  1.4421 -0.3686
11754TIP3   OH256676   2.794   4.100   0.899  0.1567 -0.2977  0.4770
11754TIP3    H156677   2.840   4.020   0.925  0.7079  0.1561  0.8969
11754TIP3    H256678   2.703   4.085   0.927  0.0471 -1.1779 -0.3264
11755TIP3   OH256679   4.015   0.075   5.485 -0.2435  0.0389 -0.8776
11755TIP3    H156680   3.937   0.020   5.495 -1.0182  1.0171 -1.4587
11755TIP3    H256681   4.074   0.023   5.430 -0.2874 -0.8971 -0.0618
11756TIP3   OH256682   4.331   2.665   5.964  0.3089  0.5401 -0.2371
11756TIP3    H156683   4.273   2.722   6.015 -1.2715 -0.5813 -0.7593
11756TIP3    H256684   4.275   2.593   5.935  1.2624  0.8941 -3.1414
11757TIP3   OH256685   3.959   0.297   1.631 -0.2263 -0.0397 -0.0042
11757TIP3    H156686   4.037   0.245   1.610 -0.4232 -0.3230 -0.0452
11757TIP3    H256687   3.897   0.233   1.668  0.0920  0.4198  1.3773
11758TIP3   OH256688   3.850   3.392   5.302 -0.8893  0.1148  0.6653
11758TIP3    H156689   3.767   3.421   5.263 -0.2346  0.7708 -0.2622
11758TIP3    H256690   3.878   3.464   5.358 -0.0647  0.6457 -0.4044
11759TIP3   OH256691   2.040   5.704  11.912 -0.4562  0.6881 -0.4008
11759TIP3    H156692   2.110   5.700  11.977 -0.7834  1.5458  0.0044
11759TIP3    H256693   2.059   5.782  11.860  0.0521 -0.2314 -1.6242
11760TIP3   OH256694   3.924   0.477  13.927  0.5872 -0.3761  0.2984
11760TIP3    H156695   3.970   0.516  14.002  1.1455  0.4313 -0.4595
11760TIP3    H256696   3.931   0.542  13.858 -1.7443 -0.2028  0.1686
11761TIP3   OH256697   4.066   6.165  12.503  0.1369  0.4344  0.4591
11761TIP3    H156698   4.038   6.242  12.454 -0.3975  0.5649  0.9710
11761TIP3    H256699   4.056   6.092  12.441  0.3335  0.7276  0.0849
11762TIP3   OH256700   1.956   3.796  16.083  0.0307 -0.1975 -0.3786
11762TIP3    H156701   1.983   3.886  16.071  1.7744 -0.3609  1.9124
11762TIP3    H256702   1.988   3.750  16.005  0.4757  0.8593 -0.8225
11763TIP3   OH256703   4.153   2.726  13.288  0.6587 -0.3526  0.4039
11763TIP3    H156704   4.242   2.692  13.293  0.2605 -1.3675  0.7672
11763TIP3    H256705   4.114   2.679  13.214  0.1797 -0.5299  0.7655
11764TIP3   OH256706   1.164   0.799   4.664  0.5288 -0.1495  0.2770
11764TIP3    H156707   1.109   0.864   4.620  0.5116 -0.8990 -0.8423
11764TIP3    H256708   1.103   0.741   4.708  0.4530 -0.4319 -0.1905
11765TIP3   OH256709   4.825   2.571  11.688 -0.2334  0.0856 -0.3180
11765TIP3    H156710   4.813   2.636  11.757  0.1540  0.9680 -1.0698
11765TIP3    H256711   4.868   2.497  11.732 -0.6195  0.3569  0.5240
11766TIP3   OH256712   5.088   3.708   2.311  0.4737  0.3216  1.0611
11766TIP3    H156713   5.026   3.773   2.344 -0.9359 -0.6062  0.2993
11766TIP3    H256714   5.067   3.628   2.358 -0.8395 -0.7335 -1.2218
11767TIP3   OH256715   2.200   4.436  16.362  0.4013 -0.4380 -0.0862
11767TIP3    H156716   2.167   4.483  16.285 -0.7467  0.0838  0.7022
11767TIP3    H256717   2.295   4.437  16.353  0.3050  0.4226 -1.0217
11768TIP3   OH256718   6.447   5.520  12.544 -0.3442 -0.0151  0.3995
11768TIP3    H156719   6.488   5.582  12.484  1.7539  0.0161  1.7839
11768TIP3    H256720   6.476   5.549  12.631 -2.2234 -0.8358  1.3346
11769TIP3   OH256721   4.741   4.951   5.068 -0.1092 -0.0700 -0.1761
11769TIP3    H156722   4.733   5.020   5.134  2.4222 -0.8676  1.0548
11769TIP3    H256723   4.725   4.870   5.116 -1.5435 -0.4590 -1.2828
11770TIP3   OH256724   1.612   0.932   0.205 -0.8767  0.4870 -0.3804
11770TIP3    H156725   1.599   0.867   0.274  1.8209 -0.3447 -0.6128
11770TIP3    H256726   1.553   0.904   0.135 -0.6500 -1.0209  0.0104
11771TIP3   OH256727   2.992   0.618   3.385  0.0419  0.0941  0.0518
11771TIP3    H156728   2.922   0.655   3.439  0.2175 -0.8487  0.9357
11771TIP3    H256729   2.953   0.541   3.344  0.2229  0.2158 -0.3522
11772TIP3   OH256730   5.208   2.482  15.138 -0.7218  0.4024 -0.2865
11772TIP3    H156731   5.216   2.577  15.150 -0.5786  0.3058  0.3924
11772TIP3    H256732   5.177   2.472  15.047 -0.4122  1.0810 -0.4697
11773TIP3   OH256733   1.697   2.929   3.422  0.5903  0.1666  0.0068
11773TIP3    H156734   1.745   2.852   3.453  1.8631  0.7884 -0.4241
11773TIP3    H256735   1.607   2.913   3.451  0.7886 -1.5911 -0.2585
11774TIP3   OH256736   0.324   4.977   3.979 -0.2680  0.1257  0.2759
11774TIP3    H156737   0.326   4.946   3.888  0.4396  2.2383 -0.4491
11774TIP3    H256738   0.362   4.905   4.029  1.8374  0.0028 -1.4269
11775TIP3   OH256739   4.273   3.177   0.205 -0.3311 -0.1579  0.1304
11775TIP3    H156740   4.262   3.159   0.299 -0.4073  0.0558  0.1650
11775TIP3    H256741   4.259   3.272   0.198 -1.7329 -0.3885 -0.3026
11776TIP3   OH256742   0.102   1.871   0.620  0.4362 -0.3018 -0.3316
11776TIP3    H156743   0.108   1.869   0.715 -3.4448  1.8794  0.0967
11776TIP3    H256744   0.129   1.960   0.596  2.0512 -1.0440 -1.3833
11777TIP3   OH256745   5.558   5.588   4.319 -0.3611 -0.3443  0.2900
11777TIP3    H156746   5.653   5.599   4.330  0.0127 -1.8801 -1.1223
11777TIP3    H256747   5.544   5.493   4.325 -1.7746 -0.1528  0.1746
11778TIP3   OH256748   3.012   2.622   0.912 -0.7457 -0.2608  0.1121
11778TIP3    H156749   3.092   2.610   0.965 -0.4341  0.6486 -0.1396
11778TIP3    H256750   2.966   2.538   0.919  0.7935 -1.1979 -0.6911
11779TIP3   OH256751   2.996   4.643  15.078  0.3191  0.2818 -0.9340
11779TIP3    H156752   2.961   4.611  15.161  1.6997 -0.2155 -0.5289
11779TIP3    H256753   3.014   4.564  15.027  1.6541  0.4863 -0.7951
11780TIP3   OH256754   3.768   4.913  16.451  0.3733  0.3600  0.2139
11780TIP3    H156755   3.809   4.850  16.391 -1.7182  0.5143 -1.4526
11780TIP3    H256756   3.736   4.860  16.523 -0.1643 -0.3322 -0.5176
11781TIP3   OH256757   5.911   4.054   5.702  0.1102 -0.1193  0.2734
11781TIP3    H156758   5.909   4.127   5.765  0.2324  0.6999 -0.6726
11781TIP3    H256759   6.004   4.034   5.692  0.1796  0.5868 -0.5947
11782TIP3   OH256760   6.383   1.736   6.395 -0.1803  0.1152 -0.0714
11782TIP3    H156761   6.420   1.665   6.343 -0.0457 -0.1265  0.3522
11782TIP3    H256762   6.457   1.771   6.444  0.0351  1.4560 -1.3126
11783TIP3   OH256763   3.714   4.670  15.408 -0.0585  0.1554  0.5009
11783TIP3    H156764   3.716   4.587  15.456 -1.1303  0.2136  0.6600
11783TIP3    H256765   3.733   4.736  15.475  1.0232  0.0386  0.3317
11784TIP3   OH256766   2.609   1.071  16.578  0.5633 -0.2261  0.2096
11784TIP3    H156767   2.613   1.055  16.484  1.6882 -0.3778  0.2803
11784TIP3    H256768   2.690   1.033  16.613  1.0002  1.3879  1.0030
11785TIP3   OH256769   0.644   3.447  14.029 -0.4789 -0.1962 -0.1149
11785TIP3    H156770   0.690   3.498  13.962 -0.3414  1.0453  0.9074
11785TIP3    H256771   0.556   3.484  14.032 -1.0400 -1.4458 -0.8637
11786TIP3   OH256772   0.292   4.201  13.734 -0.1855 -0.0406 -0.1798
11786TIP3    H156773   0.209   4.241  13.760 -0.3211  0.8274 -1.9243
11786TIP3    H256774   0.355   4.273  13.737  0.3757 -0.5516  0.4653
11787TIP3   OH256775   6.298   6.027  15.063  0.3292 -0.1265 -0.6876
11787TIP3    H156776   6.389   6.053  15.055  1.0010 -2.1434  0.2652
11787TIP3    H256777   6.249   6.106  15.039  2.2790  2.3100  2.8196
11788TIP3   OH256778   2.611   3.706   0.999  0.2910  0.1926  0.0717
11788TIP3    H156779   2.624   3.613   1.019 -0.9529  0.3172  1.4687
11788TIP3    H256780   2.669   3.722   0.924  1.7782 -1.3049  0.8670
11789TIP3   OH256781   6.687   3.402  12.431 -0.6965 -0.1189 -0.0865
11789TIP3    H156782   6.715   3.399  12.339  0.8681 -2.1513  0.4198
11789TIP3    H256783   6.592   3.406  12.427 -0.6115  0.6835 -1.8062
11790TIP3   OH256784   2.494   5.430  13.034  0.0910 -0.5583  0.1676
11790TIP3    H156785   2.544   5.465  12.960 -0.0272 -0.4969  0.1191
11790TIP3    H256786   2.487   5.503  13.095  1.8174 -1.1251  1.0824
11791TIP3   OH256787   1.993   4.153   2.652  0.2309  0.2909  0.4982
11791TIP3    H156788   1.908   4.192   2.633  0.4940  1.4677  1.6843
11791TIP3    H256789   2.046   4.171   2.575 -0.4756 -0.1313 -0.0936
11792TIP3   OH256790   3.694   5.038  17.006  0.2518 -0.1149  0.1558
11792TIP3    H156791   3.669   5.088  16.928  0.9396 -0.2360 -0.1448
11792TIP3    H256792   3.725   5.104  17.067  0.7140 -0.1260 -0.0661
11793TIP3   OH256793   3.419   5.180   4.232  0.2468  0.6134  0.4450
11793TIP3    H156794   3.414   5.200   4.326 -0.2757 -1.2691  0.8335
11793TIP3    H256795   3.433   5.086   4.228  4.5324  1.1685 -1.2782
11794TIP3   OH256796   5.126   5.526  15.743  0.1958 -0.4304  0.0326
11794TIP3    H156797   5.165   5.445  15.776  0.8859 -0.3922 -0.6916
11794TIP3    H256798   5.068   5.499  15.672 -2.1028 -0.6268  1.8744
11795TIP3   OH256799   3.690   0.960  12.557 -0.0161 -0.0550  0.3400
11795TIP3    H156800   3.742   1.035  12.586  0.8728 -1.0546  1.4257
11795TIP3    H256801   3.625   0.997  12.498 -0.2388  1.7038  1.6311
11796TIP3   OH256802   2.037   1.248  12.073 -0.0550  0.2292 -0.4039
11796TIP3    H156803   2.009   1.233  11.983  1.0064 -2.1335 -0.3668
11796TIP3    H256804   2.098   1.322  12.067 -1.1148  1.0404 -1.3919
11797TIP3   OH256805   1.620   4.782   6.108 -0.3209 -0.3468 -0.3382
11797TIP3    H156806   1.613   4.843   6.034  1.7212 -0.4148 -0.6208
11797TIP3    H256807   1.690   4.722   6.082  0.0846 -0.6569  1.4515
11798TIP3   OH256808   5.857   6.702   2.638 -0.3766  0.0439 -0.0103
11798TIP3    H156809   5.895   6.627   2.592  0.8661 -1.1911  2.9315
11798TIP3    H256810   5.927   6.768   2.637 -0.0756 -0.2609  0.7487
11799TIP3   OH256811   1.664   5.471  15.636 -0.6850  0.3230  0.1473
11799TIP3    H156812   1.658   5.542  15.573  0.3351  0.8017  0.5720
11799TIP3    H256813   1.724   5.408  15.596  0.6192  1.0138  0.9888
11800TIP3   OH256814   5.879   0.502   1.714  0.1776  0.0402 -0.6620
11800TIP3    H156815   5.906   0.413   1.689  0.6123 -0.0732  0.1834
11800TIP3    H256816   5.959   0.542   1.749  0.2067  1.0929 -1.9137
11801TIP3   OH256817   5.895   5.099   4.406  0.0372  0.0316  0.0229
11801TIP3    H156818   5.892   5.144   4.490  0.8001 -0.0776  0.1153
11801TIP3    H256819   5.964   5.033   4.416 -0.4533 -0.5492 -0.4084
11802TIP3   OH256820   5.679   6.527  15.514 -0.4354  0.1400 -0.1835
11802TIP3    H156821   5.695   6.621  15.523  1.3415 -0.0167 -1.3730
11802TIP3    H256822   5.645   6.516  15.425 -2.8505 -0.0979  0.7430
11803TIP3   OH256823   6.321   4.576   0.720 -0.4478  0.0863 -0.4789
11803TIP3    H156824   6.382   4.610   0.654 -0.6559 -0.0930 -0.7658
11803TIP3    H256825   6.374   4.567   0.799  0.3431 -1.6422 -1.1658
11804TIP3   OH256826   4.411   3.761  14.846  0.0476 -0.1575  0.1396
11804TIP3    H156827   4.414   3.665  14.841  0.9831 -0.1321  0.1732
11804TIP3    H256828   4.502   3.787  14.858 -0.3624  0.6689  1.5762
11805TIP3   OH256829   4.054   3.286  13.851  0.1054  0.1349  0.3038
11805TIP3    H156830   4.077   3.343  13.777  0.2794 -0.7636 -0.3457
11805TIP3    H256831   4.138   3.267  13.893  0.4816 -2.2779 -1.4292
11806TIP3   OH256832   0.112   5.936  16.635 -0.3512 -0.2526  0.2255
11806TIP3    H156833   0.061   6.015  16.616  1.5514  1.4299  1.7116
11806TIP3    H256834   0.116   5.888  16.553 -1.4980  1.2611 -0.7266
11807TIP3   OH256835   2.508   3.568   2.541 -0.0468 -0.1151 -0.6497
11807TIP3    H156836   2.532   3.609   2.624 -2.1850 -0.7911  0.3359
11807TIP3    H256837   2.527   3.475   2.553  2.9284  0.2637 -2.1817
11808TIP3   OH256838   3.751   3.331  17.037  0.9016  0.4195 -0.0888
11808TIP3    H156839   3.759   3.356  16.944 -2.2243  1.0830 -0.2387
11808TIP3    H256840   3.841   3.329  17.069  1.9612  1.3520 -2.8468
11809TIP3   OH256841   4.147   2.973  14.842 -0.2212  0.0449 -0.2148
11809TIP3    H156842   4.165   2.970  14.936  0.3051 -1.1923 -0.3390
11809TIP3    H256843   4.148   3.066  14.820 -1.5721  0.4166  1.2337
11810TIP3   OH256844   4.904   4.377  13.185  0.2093  0.0124 -0.0379
11810TIP3    H156845   4.920   4.471  13.182  1.3169 -0.1173  1.0799
11810TIP3    H256846   4.894   4.358  13.279 -1.2058 -0.7949 -0.3414
11811TIP3   OH256847   3.319   3.455  14.093  0.5326  0.2819  0.1741
11811TIP3    H156848   3.346   3.400  14.166  1.7481 -0.7905 -1.0598
11811TIP3    H256849   3.251   3.511  14.129 -1.5034 -2.7432  1.1907
11812TIP3   OH256850   5.728   2.481   4.042 -0.3459 -0.3691  0.5163
11812TIP3    H156851   5.710   2.521   3.957 -0.1397 -0.4490  0.4352
11812TIP3    H256852   5.806   2.427   4.028  0.5104  0.6970  1.0807
11813TIP3   OH256853   1.374   2.556   5.303  0.1874 -0.2528 -0.1208
11813TIP3    H156854   1.295   2.608   5.290 -0.5012 -1.2269  0.1305
11813TIP3    H256855   1.397   2.525   5.216 -0.3858 -0.9540 -0.0194
11814TIP3   OH256856   4.517   6.173  12.357 -0.3686  0.5878  0.7555
11814TIP3    H156857   4.517   6.225  12.277 -1.3748 -1.3556 -0.5504
11814TIP3    H256858   4.581   6.216  12.414 -0.3824  2.5739 -0.6984
11815TIP3   OH256859   5.664   2.715  17.199 -0.4567  0.3397 -0.5540
11815TIP3    H156860   5.594   2.774  17.224 -0.7034 -0.2533  0.1644
11815TIP3    H256861   5.709   2.695  17.281  0.1490  0.1999 -0.9178
11816TIP3   OH256862   2.838   0.194   2.933  0.4821 -0.3906  0.4799
11816TIP3    H156863   2.902   0.128   2.957  0.2909 -0.7114  0.1101
11816TIP3    H256864   2.879   0.277   2.956  1.3962 -0.5383 -0.5544
11817TIP3   OH256865   2.898   5.055  13.280 -0.3642 -0.4589 -0.4724
11817TIP3    H156866   2.954   4.979  13.297  0.7061  0.3216 -0.4976
11817TIP3    H256867   2.905   5.109  13.359 -1.1659 -0.3971 -0.4329
11818TIP3   OH256868   4.392   3.870   5.692  0.4007 -0.1305  0.1564
11818TIP3    H156869   4.469   3.904   5.647 -0.0719  1.1026  0.2660
11818TIP3    H256870   4.361   3.799   5.635  0.4492  0.6923 -0.9119
11819TIP3   OH256871   0.954   5.190  11.554 -0.0124 -0.2522 -0.2610
11819TIP3    H156872   0.976   5.099  11.576 -0.6572 -0.1470  0.8293
11819TIP3    H256873   0.885   5.214  11.615  0.8253  1.3030  0.1081
11820TIP3   OH256874   0.282   2.810   6.535  0.1940  0.3835  0.2743
11820TIP3    H156875   0.343   2.868   6.490  0.5074  0.7568  1.1808
11820TIP3    H256876   0.330   2.728   6.547  0.0975  0.2721 -0.1057
11821TIP3   OH256877   6.519   2.752  17.175 -0.0619  0.2244 -0.3128
11821TIP3    H156878   6.486   2.684  17.117 -1.9055  0.8274 -0.0091
11821TIP3    H256879   6.614   2.744  17.171 -0.2545 -2.0838 -0.6177
11822TIP3   OH256880   3.288   3.397   5.676  0.6831 -0.5121  0.5475
11822TIP3    H156881   3.259   3.477   5.721  3.2870  0.4038  0.6980
11822TIP3    H256882   3.378   3.417   5.649 -0.1061 -1.7709 -3.3190
11823TIP3   OH256883   2.902   0.005  13.044  0.7448  0.2252  0.1210
11823TIP3    H156884   2.862  -0.054  13.108 -0.8307  0.6044 -0.4960
11823TIP3    H256885   2.919   0.086  13.093  0.9797 -0.0144  0.4379
11824TIP3   OH256886   4.145   0.440   5.512 -0.1475 -0.9855  0.3150
11824TIP3    H156887   4.230   0.461   5.549 -1.0410  0.1652  1.7866
11824TIP3    H256888   4.158   0.447   5.417  1.2064 -0.0843  0.5480
11825TIP3   OH256889   5.755   0.299  16.330 -0.3763  0.3132  0.8649
11825TIP3    H156890   5.822   0.273  16.267  0.7418  0.4343  1.9952
11825TIP3    H256891   5.701   0.363  16.282 -0.2947 -0.5327 -0.3671
11826TIP3   OH256892   6.021   6.690  14.429  0.1979 -0.3327 -0.0283
11826TIP3    H156893   6.012   6.699  14.524  1.7530  0.0161  0.0973
11826TIP3    H256894   5.938   6.722  14.393 -0.4948 -0.7152  1.2263
11827TIP3   OH256895   5.743   0.901   2.620  0.2909  0.2481 -0.6693
11827TIP3    H156896   5.668   0.887   2.678 -0.2725  1.6438 -1.0547
11827TIP3    H256897   5.811   0.844   2.656 -0.4283  0.1936  0.6554
11828TIP3   OH256898   2.811   3.730  16.507 -0.1570 -0.6297  0.5809
11828TIP3    H156899   2.728   3.753  16.548 -0.9596 -0.2522 -1.1805
11828TIP3    H256900   2.786   3.682  16.427  1.2793  0.1218 -0.3511
11829TIP3   OH256901   1.340   5.275  14.913  0.1893  0.1199 -0.1293
11829TIP3    H156902   1.334   5.358  14.866  0.7928 -0.2526 -0.8679
11829TIP3    H256903   1.423   5.236  14.884 -0.6404 -1.2843 -0.6822
11830TIP3   OH256904   5.122   6.668  14.770  0.7200  0.3710 -0.2724
11830TIP3    H156905   5.196   6.696  14.716  0.1722  2.8719  0.2145
11830TIP3    H256906   5.091   6.587  14.729  2.2032  0.5947 -1.8913
11831TIP3   OH256907   5.406   3.863  12.481  0.1483 -0.1216 -0.4420
11831TIP3    H156908   5.348   3.873  12.556 -0.2566 -0.5864 -0.6873
11831TIP3    H256909   5.488   3.832  12.518  1.0661  2.8931  0.1998
11832TIP3   OH256910   2.961   4.750   3.435 -0.4711  0.2222  0.5133
11832TIP3    H156911   2.904   4.705   3.498 -0.3351  1.0511  1.2360
11832TIP3    H256912   2.965   4.840   3.467  1.2613  0.1688  0.4589
11833TIP3   OH256913   3.310   1.063  17.196  0.4877 -0.7171 -0.2225
11833TIP3    H156914   3.348   1.139  17.241  1.8893 -1.6304  0.1836
11833TIP3    H256915   3.348   1.066  17.108 -0.1948 -0.4179 -0.5061
11834TIP3   OH256916   0.017   0.833   5.763 -0.6178  0.1123 -0.0550
11834TIP3    H156917  -0.030   0.910   5.796 -1.8360  0.6961 -2.9851
11834TIP3    H256918  -0.051   0.767   5.751 -0.6430  0.6540 -3.4291
11835TIP3   OH256919   4.557   2.975  14.247 -0.4898  0.1016 -0.3115
11835TIP3    H156920   4.600   2.890  14.244 -0.5183  0.0518  0.4730
11835TIP3    H256921   4.626   3.038  14.226  0.7566  0.2707  3.8606
11836TIP3   OH256922   1.515   6.655  13.375  0.1865  0.1977  0.1926
11836TIP3    H156923   1.435   6.602  13.378  0.1243  0.1485 -1.8333
11836TIP3    H256924   1.505   6.710  13.297  1.0448  1.9572  1.2727
11837TIP3   OH256925   2.704   4.521  12.824  0.0120 -0.8691 -0.0826
11837TIP3    H156926   2.766   4.491  12.890  2.2449 -1.1211 -2.2258
11837TIP3    H256927   2.746   4.598  12.785 -1.2145 -0.7814 -1.2670
11838TIP3   OH256928   1.715   3.347  11.589  0.0550 -0.2687  0.2116
11838TIP3    H156929   1.708   3.292  11.510 -0.3472 -1.1454  0.8513
11838TIP3    H256930   1.635   3.398  11.589  0.3955  0.2719 -0.3480
11839TIP3   OH256931   2.690   4.125   6.224 -0.4108 -0.2548  0.3585
11839TIP3    H156932   2.747   4.182   6.276  0.9647 -0.6373 -0.7013
11839TIP3    H256933   2.713   4.036   6.253  0.0133 -0.4431 -0.5426
11840TIP3   OH256934   5.077   3.452   4.332 -0.1246  0.3045 -0.6908
11840TIP3    H156935   5.071   3.540   4.368 -1.3308  0.4075 -1.1056
11840TIP3    H256936   4.990   3.414   4.346  0.5475 -1.0203 -0.0171
11841TIP3   OH256937   2.227   2.129   2.222 -0.0856  0.3717 -0.2838
11841TIP3    H156938   2.305   2.166   2.181 -0.5299  0.0128 -1.5024
11841TIP3    H256939   2.241   2.139   2.316  1.1519  0.8515 -0.5140
11842TIP3   OH256940   0.316   5.175   4.516 -0.9861  0.0624 -0.1042
11842TIP3    H156941   0.237   5.204   4.470 -1.8880 -0.2292  1.2147
11842TIP3    H256942   0.338   5.091   4.476 -0.3111  0.9644 -1.6672
11843TIP3   OH256943   6.073   1.001   1.898  0.1946  0.3076 -0.4116
11843TIP3    H156944   6.029   1.078   1.934  0.3134 -0.7320  2.0761
11843TIP3    H256945   6.027   0.983   1.817 -2.0420  1.0040  0.6573
11844TIP3   OH256946   5.013   6.120   0.606 -0.1741 -0.0489 -0.1744
11844TIP3    H156947   4.959   6.143   0.530 -0.5701  0.4602  0.2560
11844TIP3    H256948   5.098   6.160   0.587  0.4046 -1.7886 -1.3663
11845TIP3   OH256949   1.729   1.260  16.294 -0.2577 -0.0446  0.1014
11845TIP3    H156950   1.763   1.324  16.232  2.1461 -0.5133  0.8838
11845TIP3    H256951   1.702   1.312  16.370 -0.3186  0.2251 -0.1044
11846TIP3   OH256952   6.786   5.598  16.364 -0.0333  0.0450 -0.6032
11846TIP3    H156953   6.705   5.645  16.344 -0.8793 -1.1527 -0.0390
11846TIP3    H256954   6.850   5.667  16.382 -0.8447  1.0020 -1.3588
11847TIP3   OH256955   5.423   2.925   0.875  0.2865  0.2872  0.2313
11847TIP3    H156956   5.509   2.966   0.863  0.6119 -0.4409  0.0710
11847TIP3    H256957   5.374   2.949   0.796  0.6873 -0.1527 -0.1538
11848TIP3   OH256958   0.246   0.224  12.385  0.1367 -0.5373 -0.1421
11848TIP3    H156959   0.323   0.192  12.433  1.5918  1.3769 -1.1286
11848TIP3    H256960   0.257   0.188  12.297  0.0804  0.0146 -0.3739
11849TIP3   OH256961   4.850   0.681  16.642  0.5711  0.1955 -0.2188
11849TIP3    H156962   4.780   0.746  16.647  0.6584  0.2561  0.1917
11849TIP3    H256963   4.930   0.733  16.637  0.6040  0.1231 -0.4647
11850TIP3   OH256964   1.183   0.981  11.383  0.2790  0.8923  0.0101
11850TIP3    H156965   1.210   0.923  11.454 -2.4255 -1.5424 -0.8398
11850TIP3    H256966   1.250   0.970  11.316  0.4334 -0.3226  0.3506
11851TIP3   OH256967   4.084   6.547  11.555  0.0944 -0.8031 -0.1161
11851TIP3    H156968   4.162   6.571  11.504  1.6703 -2.3674  1.4651
11851TIP3    H256969   4.053   6.466  11.516  0.7916 -1.5363  0.8050
11852TIP3   OH256970   1.848   3.702   2.269 -0.0206 -0.1065 -0.0501
11852TIP3    H156971   1.808   3.769   2.215  0.5980 -0.5472 -1.0617
11852TIP3    H256972   1.810   3.620   2.239  1.6407 -0.5342 -1.0651
11853TIP3   OH256973   1.483   5.531  15.993 -0.3159 -0.0447 -0.3903
11853TIP3    H156974   1.543   5.574  16.053 -1.1777 -0.2206  0.6162
11853TIP3    H256975   1.482   5.440  16.023 -2.3682  0.3007  0.6881
11854TIP3   OH256976   6.104   5.670  10.838  0.0679 -0.2377 -0.0250
11854TIP3    H156977   6.125   5.580  10.814 -1.4277 -0.5141 -0.2817
11854TIP3    H256978   6.128   5.721  10.760  1.9306 -0.2513  0.5003
11855TIP3   OH256979   2.538   4.464   3.699 -0.1852  0.1428 -0.7951
11855TIP3    H156980   2.448   4.438   3.678 -0.6618  0.8489  0.3057
11855TIP3    H256981   2.582   4.382   3.722 -0.7084 -0.1307 -0.7692
11856TIP3   OH256982   0.044   5.790  14.678  0.2745  0.1145 -0.6082
11856TIP3    H156983  -0.008   5.713  14.655 -0.9708  0.9166 -0.4933
11856TIP3    H256984   0.031   5.850  14.605  0.7997  0.4343 -0.4364
11857TIP3   OH256985   0.126   2.717   1.703 -0.2110 -0.3929  0.2770
11857TIP3    H156986   0.077   2.667   1.638  0.5105 -0.8627  0.0821
11857TIP3    H256987   0.151   2.797   1.657  2.2544 -1.7186 -0.7895
11858TIP3   OH256988   5.222   3.919   3.887  0.0171 -0.7405 -0.6239
11858TIP3    H156989   5.317   3.928   3.882 -0.0038 -0.3640 -0.3652
11858TIP3    H256990   5.207   3.856   3.957  0.0476 -0.0906 -0.0241
11859TIP3   OH256991   4.476   5.343  12.170  0.5892  0.2601  0.2008
11859TIP3    H156992   4.452   5.260  12.130  0.2228  0.0137  0.9258
11859TIP3    H256993   4.441   5.410  12.111 -0.6170 -0.0936  0.5158
11860TIP3   OH256994   2.162   3.798  15.350  0.1832 -0.5586 -0.7362
11860TIP3    H156995   2.256   3.786  15.361  0.0558 -1.1031 -0.2040
11860TIP3    H256996   2.154   3.870  15.288  0.9520  0.2186  0.0425
11861TIP3   OH256997   2.795   6.697  13.786 -0.6193  0.0436 -0.2875
11861TIP3    H156998   2.797   6.614  13.833  0.4871  0.1477 -0.1446
11861TIP3    H256999   2.852   6.684  13.710 -0.7544  0.5457 -0.4782
11862TIP3   OH257000   2.529   3.803   3.637 -0.3373 -0.0665  0.0504
11862TIP3    H157001   2.442   3.765   3.625 -0.2463  0.2958 -1.8275
11862TIP3    H257002   2.589   3.729   3.625 -0.3377 -0.2137  0.8637
11863TIP3   OH257003   2.065   3.849  13.223 -0.2410 -0.0074 -0.2558
11863TIP3    H157004   2.011   3.797  13.282  0.6283 -1.4758 -0.7428
11863TIP3    H257005   2.071   3.797  13.143  1.4394  0.3659 -0.3976
11864TIP3   OH257006   2.409   5.269   2.002 -0.3109 -0.0187 -0.4208
11864TIP3    H157007   2.503   5.268   1.987 -0.6050  1.3326 -2.6470
11864TIP3    H257008   2.399   5.302   2.091  1.3410 -1.4366  0.3278
11865TIP3   OH257009   2.844   0.056   2.123  0.5097  0.3898  0.0886
11865TIP3    H157010   2.795  -0.026   2.134  1.1747  0.2436  2.1958
11865TIP3    H257011   2.920   0.032   2.070  0.8304 -0.4152  0.9015
11866TIP3   OH257012   3.558   0.351   5.600  0.3921  0.6453  0.0572
11866TIP3    H157013   3.567   0.260   5.628 -2.3546  0.4144  0.2973
11866TIP3    H257014   3.570   0.348   5.505  0.0651 -0.0136  0.0343
11867TIP3   OH257015   3.314   3.454   2.531  0.0592  0.0230 -0.5207
11867TIP3    H157016   3.319   3.471   2.437  0.9403 -2.2053 -0.9072
11867TIP3    H257017   3.384   3.392   2.549  1.9720  2.7902  2.2166
11868TIP3   OH257018   1.689   2.879  13.134  0.3196 -0.0672 -0.4268
11868TIP3    H157019   1.740   2.801  13.155  0.8423  0.3633 -0.0807
11868TIP3    H257020   1.750   2.935  13.085  0.2570  0.5548  0.1960
11869TIP3   OH257021   1.358   5.017   2.580 -0.2552 -0.2235  0.5337
11869TIP3    H157022   1.400   4.931   2.580 -0.3391 -0.2708 -0.2518
11869TIP3    H257023   1.417   5.073   2.631 -0.5969 -0.9281  1.7107
11870TIP3   OH257024   0.974   3.187   1.760  0.1869 -0.3629  0.3153
11870TIP3    H157025   0.939   3.206   1.673 -1.0983 -1.6047  0.5487
11870TIP3    H257026   0.976   3.092   1.766  0.7565 -0.2948  1.4493
11871TIP3   OH257027   3.290   0.675  16.035 -0.0730 -0.3159  0.4135
11871TIP3    H157028   3.203   0.671  16.075 -0.9268  1.6945 -1.1310
11871TIP3    H257029   3.342   0.728  16.095 -1.1782  2.1675 -0.7539
11872TIP3   OH257030   2.212   5.808   2.208  0.4293 -0.3364  0.1205
11872TIP3    H157031   2.182   5.881   2.261  0.4388 -1.5832  1.8618
11872TIP3    H257032   2.154   5.808   2.132 -1.9311 -0.7571  1.8726
11873TIP3   OH257033   5.686   1.723   1.801 -0.1048  0.0539 -0.4290
11873TIP3    H157034   5.753   1.762   1.745 -1.7082  0.0898 -2.4000
11873TIP3    H257035   5.666   1.790   1.865  1.3039  0.2671 -0.1994
11874TIP3   OH257036   4.018   1.226   1.054 -0.0939 -0.7726 -0.0962
11874TIP3    H157037   4.027   1.264   0.966 -0.9647 -0.6461 -0.1371
11874TIP3    H257038   4.098   1.176   1.067  0.0110 -0.8469 -0.9923
11875TIP3   OH257039   3.119   0.396  12.243  0.2654 -0.4421 -0.0107
11875TIP3    H157040   3.193   0.397  12.305  0.0799 -0.1837  0.2059
11875TIP3    H257041   3.070   0.475  12.263  0.7805  0.1793 -1.1918
11876TIP3   OH257042   4.238   3.127   4.599  0.0913  0.3449 -0.1554
11876TIP3    H157043   4.206   3.149   4.687  2.2026 -1.7479  1.1972
11876TIP3    H257044   4.177   3.060   4.568 -0.3860  0.7476 -0.0878
11877TIP3   OH257045   0.388   4.846   5.318 -0.0714  0.2490  0.2282
11877TIP3    H157046   0.410   4.754   5.308 -1.6395 -0.2666  1.3829
11877TIP3    H257047   0.304   4.855   5.273  0.7002  1.4103 -1.0242
11878TIP3   OH257048   6.598   5.754   5.891  0.3608  0.1601 -0.0456
11878TIP3    H157049   6.601   5.699   5.812 -0.2006  0.0971 -0.0250
11878TIP3    H257050   6.689   5.759   5.920  0.2710 -1.7022  0.6060
11879TIP3   OH257051   2.176   6.746  16.292  0.0748  0.3200 -0.1073
11879TIP3    H157052   2.095   6.768  16.247 -1.2383 -1.7474  1.1891
11879TIP3    H257053   2.241   6.738  16.222 -1.8670 -2.5500 -1.6856
11880TIP3   OH257054   3.782   5.386   0.161 -0.1047  0.2033 -0.3358
11880TIP3    H157055   3.821   5.466   0.123 -0.5255  0.6043  0.0674
11880TIP3    H257056   3.690   5.408   0.173  0.2843  0.6346  2.3146
11881TIP3   OH257057   0.448   0.709   3.254 -0.1873 -0.3541  0.2144
11881TIP3    H157058   0.393   0.635   3.228 -0.0961 -1.6614  3.3931
11881TIP3    H257059   0.390   0.763   3.307 -0.1133  1.6494 -1.7069
11882TIP3   OH257060   5.082   1.117  12.083 -0.3791  0.3773 -0.7048
11882TIP3    H157061   5.151   1.071  12.036  1.2836  1.5874  0.4972
11882TIP3    H257062   5.047   1.052  12.144  0.3568  0.0358 -0.6401
11883TIP3   OH257063   5.586   5.412  12.606 -0.0558 -0.0049  0.5892
11883TIP3    H157064   5.534   5.434  12.684  0.2402 -0.4133  0.9078
11883TIP3    H257065   5.557   5.474  12.540 -1.2268 -0.4751  0.6469
11884TIP3   OH257066   3.170   5.820   5.184  0.0582  0.1281  0.1185
11884TIP3    H157067   3.197   5.824   5.276  1.9442 -0.9517 -0.3681
11884TIP3    H257068   3.145   5.910   5.163 -1.6703  0.1241  2.0491
11885TIP3   OH257069   4.943   1.900   6.176  0.1056 -0.1649 -0.1699
11885TIP3    H157070   4.876   1.839   6.209  0.0053 -0.4569 -0.9119
11885TIP3    H257071   4.909   1.986   6.199 -0.1982 -0.3417  0.0612
11886TIP3   OH257072   3.555   3.932   1.394 -0.9682  0.0684  0.1221
11886TIP3    H157073   3.606   3.998   1.441 -1.5076  0.7689 -0.2678
11886TIP3    H257074   3.464   3.952   1.416 -1.1979  0.1152 -0.8667
11887TIP3   OH257075   3.773   5.927   6.717  0.1373  0.1579 -0.7619
11887TIP3    H157076   3.822   5.845   6.711 -1.1993 -0.5850 -1.7697
11887TIP3    H257077   3.811   5.982   6.650  1.6829  0.7300  0.5540
11888TIP3   OH257078   5.394   5.683   4.942 -0.1630  0.0070  0.3748
11888TIP3    H157079   5.351   5.600   4.922  0.1659 -0.1650  0.3738
11888TIP3    H257080   5.463   5.660   5.004 -0.6510  0.4114  1.0886
11889TIP3   OH257081   0.371   4.690  13.846 -0.0406  0.2945 -0.5431
11889TIP3    H157082   0.332   4.765  13.800 -0.0820 -0.6084 -2.0160
11889TIP3    H257083   0.302   4.660  13.905  0.0295  1.5008  0.1819
11890TIP3   OH257084   6.107   4.509   5.720 -0.3046 -0.2351 -0.9434
11890TIP3    H157085   6.194   4.470   5.734  0.3158  0.6565 -2.2545
11890TIP3    H257086   6.124   4.602   5.707 -1.4354 -0.1044 -1.5189
11891TIP3   OH257087   6.088   5.528   4.470 -0.4226  0.0548  0.8338
11891TIP3    H157088   6.066   5.458   4.409 -2.5487 -0.2485  1.8799
11891TIP3    H257089   6.110   5.603   4.415  0.4309 -1.0007 -0.2807
11892TIP3   OH257090   3.245   5.189  11.881  0.0039  0.1977  0.3873
11892TIP3    H157091   3.340   5.182  11.896  0.3909  0.0640 -1.8630
11892TIP3    H257092   3.207   5.193  11.968  2.0631 -0.1311  1.3360
11893TIP3   OH257093   5.454   2.037   1.875 -0.2111 -0.3104  0.1799
11893TIP3    H157094   5.376   1.981   1.876 -0.1591 -0.3958 -0.4211
11893TIP3    H257095   5.508   2.004   1.947 -1.0082  0.1467  0.9869
11894TIP3   OH257096   4.799   0.034  12.022  0.6164  0.3827 -0.6027
11894TIP3    H157097   4.731   0.061  11.960  0.6861 -1.6848 -1.6104
11894TIP3    H257098   4.871   0.095  12.006  0.3033  0.4033 -1.9606
11895TIP3   OH257099   1.679   4.739   0.943 -0.6133  0.5016 -0.1042
11895TIP3    H157100   1.709   4.672   0.883  0.0035  0.9046 -0.2548
11895TIP3    H257101   1.717   4.714   1.028 -2.1725 -0.5298  0.3131
11896TIP3   OH257102   6.573   3.778   2.497 -0.7778  0.0413 -0.1401
11896TIP3    H157103   6.667   3.769   2.516 -1.0753 -1.8586  0.5275
11896TIP3    H257104   6.567   3.859   2.446  1.1314  0.5712  0.4238
11897TIP3   OH257105   0.575   0.100  16.261 -0.3719  0.3257 -0.3149
11897TIP3    H157106   0.660   0.140  16.246 -0.3206  0.3802  0.1065
11897TIP3    H257107   0.595   0.010  16.288 -0.4926 -0.0566 -1.4658
11898TIP3   OH257108   5.817   1.959  13.586  0.1066 -0.0425  0.0783
11898TIP3    H157109   5.804   1.902  13.511  1.9044 -0.7161  0.2586
11898TIP3    H257110   5.752   2.029  13.575  0.7282  0.1721 -2.3829
11899TIP3   OH257111   1.262   0.559  11.698 -0.1464  0.1099 -0.5969
11899TIP3    H157112   1.195   0.578  11.763 -0.8298  0.2432 -1.3310
11899TIP3    H257113   1.341   0.543  11.749 -1.3377 -2.8732  0.4636
11900TIP3   OH257114   4.821   1.658  14.803  1.0004 -0.2794 -0.2549
11900TIP3    H157115   4.753   1.696  14.858 -1.5044  0.2520 -3.5230
11900TIP3    H257116   4.797   1.565  14.796  1.1187 -0.2843 -0.6222
11901TIP3   OH257117   0.550   6.316  13.113 -0.1456  0.2645 -0.4328
11901TIP3    H157118   0.455   6.329  13.115 -0.2993 -0.8659  0.5469
11901TIP3    H257119   0.569   6.268  13.194  1.3212  0.8598 -0.4147
11902TIP3   OH257120   3.820   0.876  15.174  0.2235 -0.2521  0.1044
11902TIP3    H157121   3.916   0.873  15.175  0.2067 -0.8592  0.5772
11902TIP3    H257122   3.793   0.786  15.155 -0.2524 -0.1191  0.1310
11903TIP3   OH257123   3.513   6.774   2.732 -0.6524 -0.1930  0.3067
11903TIP3    H157124   3.540   6.857   2.771 -3.5842  1.0542 -0.1411
11903TIP3    H257125   3.510   6.712   2.805  3.1012 -0.3674  0.3824
11904TIP3   OH257126   5.315   0.385   0.593 -0.3649  0.9820  0.6442
11904TIP3    H157127   5.241   0.439   0.566  0.0935  1.1943 -0.1925
11904TIP3    H257128   5.387   0.448   0.605  0.0855  0.5985 -0.0351
11905TIP3   OH257129   4.306   2.187   2.055  0.2974  0.5682 -0.0486
11905TIP3    H157130   4.340   2.242   1.984 -0.5702  0.4752 -0.5354
11905TIP3    H257131   4.361   2.210   2.130  0.1069  1.9230 -0.3064
11906TIP3   OH257132   5.378   0.457   3.107 -0.0700  0.3464 -0.6357
11906TIP3    H157133   5.446   0.522   3.086 -0.4693  0.4677 -1.5779
11906TIP3    H257134   5.308   0.508   3.147  1.3467 -0.1005  2.5746
11907TIP3   OH257135   6.358   5.595   1.586 -0.6192 -0.2928  0.4105
11907TIP3    H157136   6.288   5.575   1.523  1.3749  0.4387 -2.1473
11907TIP3    H257137   6.352   5.689   1.600 -0.9060 -0.4177  1.1562
11908TIP3   OH257138   5.671   0.299   0.699  0.3339 -0.0063  0.5116
11908TIP3    H157139   5.607   0.369   0.705  1.7192  1.3904 -0.5131
11908TIP3    H257140   5.755   0.341   0.719  1.3217 -1.1386 -1.0836
11909TIP3   OH257141   5.127   3.612  13.610  0.2140 -0.3262 -0.2665
11909TIP3    H157142   5.183   3.604  13.534  0.6876 -1.5719  0.2056
11909TIP3    H257143   5.176   3.570  13.681 -0.9372 -0.6817  0.3342
11910TIP3   OH257144   1.831   3.683   3.899 -0.2766  0.4154 -0.2123
11910TIP3    H157145   1.752   3.632   3.915 -1.3272  1.5155 -1.7572
11910TIP3    H257146   1.900   3.617   3.886 -1.4181 -0.6063 -1.1808
11911TIP3   OH257147   4.138   6.146  14.236  0.7023 -0.4200  0.1697
11911TIP3    H157148   4.075   6.079  14.263  0.5636 -0.8201 -1.1032
11911TIP3    H257149   4.200   6.152  14.309 -0.0933 -0.9155  0.8987
11912TIP3   OH257150   1.770   0.992   5.726 -0.0008  0.0255  0.2720
11912TIP3    H157151   1.833   0.931   5.686  1.3457  1.3674  0.2857
11912TIP3    H257152   1.807   1.012   5.812  0.3078  1.9252 -0.2808
11913TIP3   OH257153   5.609   4.373   3.919 -0.0464  0.7112 -0.4037
11913TIP3    H157154   5.641   4.345   3.833  0.1803 -0.3035  0.0073
11913TIP3    H257155   5.516   4.391   3.905 -0.0833  0.2371 -0.7866
11914TIP3   OH257156   4.838   4.706  12.739  0.4033  0.0943  0.2828
11914TIP3    H157157   4.906   4.648  12.773 -0.1491  0.2658  1.7389
11914TIP3    H257158   4.804   4.661  12.662  0.2907 -1.3066  1.1263
11915TIP3   OH257159   6.505   2.732  16.083 -0.5484 -0.3775  0.1038
11915TIP3    H157160   6.527   2.792  16.011  0.1775  1.1911  1.5972
11915TIP3    H257161   6.409   2.735  16.087 -0.5444  0.3492 -0.1286
11916TIP3   OH257162   1.687   6.766  13.937 -0.5134 -0.2923  0.1395
11916TIP3    H157163   1.619   6.811  13.987 -0.6972  1.6654 -1.7869
11916TIP3    H257164   1.659   6.775  13.846  2.0817  0.1935 -0.6510
11917TIP3   OH257165   6.760   2.112   4.165 -0.2990  0.3482  0.1497
11917TIP3    H157166   6.846   2.069   4.166 -0.8137 -0.6913  1.6088
11917TIP3    H257167   6.772   2.190   4.219 -0.4184 -0.1168  0.8577
11918TIP3   OH257168   5.918   5.166   1.488  0.0346  0.2635 -0.1323
11918TIP3    H157169   5.976   5.091   1.498 -1.0748 -0.9958 -2.8099
11918TIP3    H257170   5.842   5.132   1.441 -1.3639  2.6387  0.3332
11919TIP3   OH257171   3.971   2.538   0.034 -0.1365 -0.1190  0.0421
11919TIP3    H157172   3.896   2.560  -0.021 -0.1632 -0.3780 -0.0284
11919TIP3    H257173   3.962   2.444   0.049 -1.1429  0.2599  1.9806
11920TIP3   OH257174   6.649   4.179  14.356 -0.1299 -0.3216  0.0430
11920TIP3    H157175   6.711   4.251  14.366  1.9724 -2.0777  0.0150
11920TIP3    H257176   6.589   4.189  14.430  1.3326  0.3165  1.1703
11921TIP3   OH257177   5.257   2.577  15.939 -0.4556 -0.2019 -0.1166
11921TIP3    H157178   5.313   2.508  15.902 -0.1763  0.1361 -0.3217
11921TIP3    H257179   5.265   2.650  15.878 -2.2000 -0.6235 -0.8833
11922TIP3   OH257180   1.605   4.413  11.915  0.3281 -0.2234 -0.0906
11922TIP3    H157181   1.620   4.391  12.007 -0.0849 -0.1677 -0.0067
11922TIP3    H257182   1.670   4.362  11.867  0.2556 -0.5919  0.1998
11923TIP3   OH257183   2.440   1.474  16.243  0.2226  0.7517 -0.2692
11923TIP3    H157184   2.490   1.487  16.162 -1.0074  0.6057 -1.0687
11923TIP3    H257185   2.482   1.399  16.285 -0.3611 -0.4323 -1.7582
11924TIP3   OH257186   4.179   2.058   5.411 -0.4075 -0.1492  0.2158
11924TIP3    H157187   4.255   2.117   5.411 -1.5613  1.4438 -2.2368
11924TIP3    H257188   4.188   2.008   5.492  2.1699  1.4014  0.9768
11925TIP3   OH257189   4.545   3.056  14.547 -0.5043  0.5545 -0.1764
11925TIP3    H157190   4.526   2.985  14.486  0.2729  0.4949 -0.3516
11925TIP3    H257191   4.530   3.136  14.497  0.0216  0.5063 -0.4177
11926TIP3   OH257192   6.745   1.867  17.166 -0.6007  0.3776  0.1136
11926TIP3    H157193   6.768   1.875  17.073 -0.5824  2.1602  0.2428
11926TIP3    H257194   6.751   1.957  17.200  0.9466 -0.4931  2.2265
11927TIP3   OH257195   4.888   3.339   2.903 -0.2578 -0.3816  0.1338
11927TIP3    H157196   4.952   3.280   2.941  0.1033 -0.6326 -0.8569
11927TIP3    H257197   4.864   3.298   2.820  0.0862  0.9171 -0.6202
11928TIP3   OH257198   3.637   4.001   4.910  0.1776  0.4134 -0.2695
11928TIP3    H157199   3.673   4.074   4.859  0.1336  0.6524  0.0400
11928TIP3    H257200   3.622   4.038   4.997  0.0762  0.0560 -0.1359
11929TIP3   OH257201   5.960   3.801   3.559 -0.3586 -0.4030  0.3666
11929TIP3    H157202   5.938   3.861   3.631 -0.7684  1.0675 -0.9478
11929TIP3    H257203   6.046   3.830   3.529 -1.4703  0.9050 -1.6478
11930TIP3   OH257204   2.342   0.934  16.308  0.3308  0.0605 -0.7038
11930TIP3    H157205   2.341   0.923  16.403  0.1995 -0.9023 -0.8135
11930TIP3    H257206   2.356   0.846  16.273  1.4306  0.5438 -1.5517
11931TIP3   OH257207   5.289   0.373   4.142  0.1313  0.1420 -0.3593
11931TIP3    H157208   5.213   0.404   4.094  0.7681 -1.9236 -2.8158
11931TIP3    H257209   5.364   0.414   4.099  0.5991 -0.2858  0.0385
11932TIP3   OH257210   1.453   4.868  14.411 -0.7971 -0.6110 -0.0918
11932TIP3    H157211   1.428   4.908  14.494  3.1385 -1.6811  1.6896
11932TIP3    H257212   1.399   4.789  14.405 -1.0739 -0.5604  1.4802
11933TIP3   OH257213   5.301   5.534  11.706  0.4225 -0.1497 -0.4507
11933TIP3    H157214   5.329   5.454  11.663 -0.1307 -0.6316  0.0805
11933TIP3    H257215   5.226   5.508  11.760  0.6006  0.5976  0.1757
11934TIP3   OH257216   1.477   2.831  11.539  0.3435 -0.1007 -0.2866
11934TIP3    H157217   1.546   2.896  11.549 -1.3342  1.6739  0.0412
11934TIP3    H257218   1.457   2.832  11.446 -0.2574  0.4638 -0.1530
11935TIP3   OH257219   4.900   3.384   1.216 -0.6369 -0.0805  0.3851
11935TIP3    H157220   4.844   3.380   1.294 -1.5535 -0.6554 -0.3022
11935TIP3    H257221   4.953   3.304   1.221  0.4468  0.6813  1.2687
11936TIP3   OH257222   4.828   2.631   3.310 -0.2049 -0.0961  0.4652
11936TIP3    H157223   4.912   2.618   3.356 -0.0942 -0.8294  0.0687
11936TIP3    H257224   4.838   2.582   3.229  0.0968  2.3016 -0.9870
11937TIP3   OH257225   5.873   4.509   4.372  0.6797 -0.6262  0.4436
11937TIP3    H157226   5.952   4.517   4.318  0.6411  0.9125  0.6024
11937TIP3    H257227   5.820   4.444   4.326  0.6652  0.6469 -1.3923
11938TIP3   OH257228   6.777   5.745  14.263  0.2835 -0.0457 -0.1106
11938TIP3    H157229   6.714   5.679  14.293 -0.5389  0.2752 -1.1043
11938TIP3    H257230   6.862   5.709  14.288 -0.3347  0.0164  2.2149
11939TIP3   OH257231   2.754   1.018  11.132 -0.1472 -0.3535  0.2277
11939TIP3    H157232   2.782   1.023  11.223  0.2612 -0.8571  0.1313
11939TIP3    H257233   2.762   1.107  11.099  0.8773 -0.4068  0.3337
11940TIP3   OH257234   6.685   1.347  14.166 -0.1744  0.1748  0.1386
11940TIP3    H157235   6.634   1.302  14.233 -0.7399  0.6769  0.0464
11940TIP3    H257236   6.621   1.397  14.116  0.1509 -0.7439 -1.2271
11941TIP3   OH257237   6.078   1.148   5.961  0.2258 -0.0473 -0.0793
11941TIP3    H157238   6.002   1.113   5.913  0.0581 -0.2799  0.3522
11941TIP3    H257239   6.039   1.203   6.029  0.4769  0.6130 -0.4623
11942TIP3   OH257240   0.351   5.758   2.585 -0.2188 -0.7545  0.2935
11942TIP3    H157241   0.365   5.664   2.577  0.0914 -0.6890  0.0382
11942TIP3    H257242   0.363   5.791   2.496 -1.7061 -0.6497  0.1305
11943TIP3   OH257243   1.203   3.547  15.535  0.3521 -0.0440 -0.4310
11943TIP3    H157244   1.231   3.455  15.529 -0.0220 -0.1052 -1.3130
11943TIP3    H257245   1.149   3.560  15.457  0.3923  0.9245 -0.2955
11944TIP3   OH257246   3.499   5.001   5.685  0.6103 -0.1393  0.1325
11944TIP3    H157247   3.504   4.978   5.592 -2.7477  0.5727 -0.2896
11944TIP3    H257248   3.508   5.096   5.686 -1.1073  0.0433  0.3219
11945TIP3   OH257249   5.633   1.600  16.607  0.2652 -0.6631 -0.0932
11945TIP3    H157250   5.597   1.546  16.536  1.7870 -1.0380 -0.5919
11945TIP3    H257251   5.640   1.687  16.570  0.1321 -0.6474 -0.0814
11946TIP3   OH257252   3.675   4.381   3.315 -0.4998 -0.2809 -0.1239
11946TIP3    H157253   3.753   4.428   3.344 -2.2814  2.9076 -0.3709
11946TIP3    H257254   3.694   4.358   3.224  0.1344  0.4916 -0.1894
11947TIP3   OH257255   0.962   1.017   5.711  0.4277  0.7414 -0.7453
11947TIP3    H157256   0.997   0.999   5.799  0.0346  1.7668 -0.3753
11947TIP3    H257257   1.030   0.984   5.652  0.9805  0.6168 -0.0585
11948TIP3   OH257258   4.669   4.589  15.142  0.1735  0.4486 -0.9232
11948TIP3    H157259   4.649   4.497  15.122  1.1979  0.4682 -2.0848
11948TIP3    H257260   4.583   4.629  15.158 -0.3096 -0.6151 -0.8072
11949TIP3   OH257261   6.541   0.432  11.557 -0.0304 -0.2135 -0.2957
11949TIP3    H157262   6.504   0.449  11.471  0.0483 -0.0935 -0.3052
11949TIP3    H257263   6.489   0.360  11.592  0.3579 -0.6930 -0.7101
11950TIP3   OH257264   1.884   0.425   4.757 -0.5305 -0.1527  0.4640
11950TIP3    H157265   1.802   0.378   4.772 -1.1293 -0.1709 -2.5346
11950TIP3    H257266   1.948   0.356   4.739 -0.0199 -0.0992  2.0332
11951TIP3   OH257267   2.297   5.588  10.493  0.2685 -0.1832  0.2789
11951TIP3    H157268   2.227   5.649  10.518  0.1650  0.1498 -0.7562
11951TIP3    H257269   2.368   5.645  10.463  1.3997 -0.5012  2.3613
11952TIP3   OH257270   3.300   6.543  15.805 -0.0801  0.1136 -0.0373
11952TIP3    H157271   3.366   6.599  15.846 -1.4986  2.4253 -0.8167
11952TIP3    H257272   3.227   6.542  15.868 -0.5962  0.2493 -0.6297
11953TIP3   OH257273   3.085   6.612  17.011 -0.5996 -0.1671  0.6259
11953TIP3    H157274   3.028   6.619  17.088  0.4170  2.0679  1.2350
11953TIP3    H257275   3.174   6.611  17.048 -0.1184  0.4917 -0.5071
11954TIP3   OH257276   6.609   0.780  15.198  0.4047 -0.4590  0.1275
11954TIP3    H157277   6.636   0.690  15.181  0.3491 -0.3589 -0.4930
11954TIP3    H257278   6.689   0.832  15.191  0.8619 -0.7259  2.6620
11955TIP3   OH257279   6.640   1.236  17.165 -0.1144 -0.4857  0.3546
11955TIP3    H157280   6.656   1.146  17.137  0.6654  0.0263 -0.9608
11955TIP3    H257281   6.547   1.240  17.186  0.3042 -2.1597  2.6589
11956TIP3   OH257282   3.457   6.275   1.878  0.2947 -0.0670 -0.1156
11956TIP3    H157283   3.441   6.186   1.910  0.1568  0.1727  0.4924
11956TIP3    H257284   3.452   6.268   1.783 -1.6221 -0.3429 -0.0112
11957TIP3   OH257285   1.902   1.091   4.639 -0.3294  0.2680  0.3186
11957TIP3    H157286   1.912   1.169   4.693  0.0400  1.2414 -1.1455
11957TIP3    H257287   1.874   1.123   4.554  1.0408 -1.0915 -0.6801
11958TIP3   OH257288   3.389   4.505  13.365  0.0824 -0.6787  0.1132
11958TIP3    H157289   3.453   4.496  13.436  0.5921 -0.4050 -0.2997
11958TIP3    H257290   3.305   4.487  13.405  0.1279  1.5684  1.2609
11959TIP3   OH257291   4.987   0.709  11.531 -0.4780  0.2471 -0.3626
11959TIP3    H157292   5.053   0.762  11.486 -0.3826 -0.4936 -1.1148
11959TIP3    H257293   4.909   0.716  11.475 -1.0197  1.0281  0.4642
11960TIP3   OH257294   0.041   1.790  14.152 -0.2058  0.3244  0.5791
11960TIP3    H157295  -0.036   1.841  14.178  0.1413  1.8334 -1.2475
11960TIP3    H257296   0.007   1.727  14.089  0.1216  1.4226 -0.7306
11961TIP3   OH257297   3.010   6.588  12.912 -0.1036 -0.1668  0.2817
11961TIP3    H157298   2.994   6.660  12.973  2.5034  0.9798 -0.3211
11961TIP3    H257299   3.100   6.561  12.930 -0.6672 -2.4882 -0.3231
11962TIP3   OH257300   3.418   5.966   1.429  0.0416  0.5038  0.2342
11962TIP3    H157301   3.435   5.908   1.354  0.0864  1.0710 -0.1910
11962TIP3    H257302   3.327   5.992   1.419 -0.0996  0.1895  0.6539
11963TIP3   OH257303   4.185   2.545  15.708 -0.0187 -0.0608 -0.3585
11963TIP3    H157304   4.185   2.620  15.768 -2.5982  0.9852 -1.5779
11963TIP3    H257305   4.111   2.491  15.738 -0.7319 -0.0087 -1.9688
11964TIP3   OH257306   4.009   2.369   1.611  0.3005 -0.6620 -0.1650
11964TIP3    H157307   3.920   2.389   1.582  0.0767 -1.0662  0.2177
11964TIP3    H257308   4.056   2.349   1.531  0.2769  0.4101 -0.4560
11965TIP3   OH257309   3.748   6.486   1.026 -0.2924 -0.1972 -0.3238
11965TIP3    H157310   3.751   6.549   0.953 -1.2355 -2.1412 -2.0661
11965TIP3    H257311   3.655   6.479   1.048 -0.1277 -0.5262  0.2627
11966TIP3   OH257312   4.163   4.961  16.020  0.4183  0.2056  0.3708
11966TIP3    H157313   4.068   4.967  16.008  0.2205  0.2610  1.8727
11966TIP3    H257314   4.185   5.037  16.074  1.4322  0.5533 -0.4918
11967TIP3   OH257315   2.886   4.216   0.153 -0.3307  0.3979 -0.0853
11967TIP3    H157316   2.940   4.138   0.143 -0.5488  0.3008 -0.5299
11967TIP3    H257317   2.949   4.289   0.156 -0.1982  0.3227 -1.0268
11968TIP3   OH257318   0.289   4.717  15.868  0.0239  0.0854 -0.1796
11968TIP3    H157319   0.271   4.810  15.876 -0.6238 -0.1260  0.9764
11968TIP3    H257320   0.214   4.682  15.819  0.3164  0.1815 -0.7000
11969TIP3   OH257321   4.593   2.415   4.457 -0.0052  0.2656  0.0311
11969TIP3    H157322   4.572   2.508   4.466 -4.2119 -0.5745 -0.3801
11969TIP3    H257323   4.597   2.400   4.362 -2.0818 -0.4937  0.0387
11970TIP3   OH257324   3.361   0.606  12.468 -0.2659  0.1472 -0.2116
11970TIP3    H157325   3.273   0.576  12.490 -1.1472  3.0961  0.4566
11970TIP3    H257326   3.415   0.579  12.542 -0.7241 -1.0871 -0.3168
11971TIP3   OH257327   2.178   0.409   4.805 -0.0783 -0.1830 -0.2490
11971TIP3    H157328   2.109   0.459   4.849 -1.5149 -2.0841 -0.2539
11971TIP3    H257329   2.249   0.472   4.791 -0.0628  0.8073  3.6788
11972TIP3   OH257330   3.488   5.789  13.468  0.8763  0.2129 -0.1843
11972TIP3    H157331   3.496   5.803  13.563  0.5425 -0.8194 -0.0074
11972TIP3    H257332   3.571   5.820  13.433  2.1145 -1.9501  0.7392
11973TIP3   OH257333   4.568   3.430   5.593  0.0339 -0.1023  0.0493
11973TIP3    H157334   4.610   3.345   5.606 -2.5021 -1.7540 -1.9146
11973TIP3    H257335   4.596   3.457   5.505  2.6703  2.2631  1.5499
11974TIP3   OH257336   4.676   5.478   5.145  0.1344 -0.4258 -0.2582
11974TIP3    H157337   4.737   5.477   5.219  2.4705  1.3991 -2.0820
11974TIP3    H257338   4.665   5.570   5.124 -2.9847 -0.7544 -0.2449
11975TIP3   OH257339   3.425   5.509  15.423  0.0777  0.6543 -0.1512
11975TIP3    H157340   3.430   5.488  15.330 -0.4434 -1.1613  0.2173
11975TIP3    H257341   3.350   5.568  15.430  0.6040  1.4435 -0.9733
11976TIP3   OH257342   0.451   4.357   2.271  0.0140 -0.0549 -0.1436
11976TIP3    H157343   0.449   4.429   2.333 -0.5154 -0.0611 -0.1565
11976TIP3    H257344   0.530   4.307   2.294 -0.1985 -0.0737  0.5336
11977TIP3   OH257345   6.269   6.448  16.286  0.1015  0.0796 -0.1832
11977TIP3    H157346   6.189   6.404  16.314 -0.0771  0.7175  0.3367
11977TIP3    H257347   6.336   6.380  16.287  0.1311  0.0825  1.9649
11978TIP3   OH257348   0.243   5.532  16.733 -0.3610  0.1016  0.3082
11978TIP3    H157349   0.150   5.545  16.748 -0.2042  0.5902  0.8362
11978TIP3    H257350   0.282   5.619  16.739  0.0573 -0.0209 -0.4468
11979TIP3   OH257351   0.497   5.248  13.998 -0.0087 -0.4046 -0.1650
11979TIP3    H157352   0.439   5.304  14.050 -1.3347 -0.7823 -1.2052
11979TIP3    H257353   0.474   5.268  13.907 -0.1801 -2.2870 -0.5536
11980TIP3   OH257354   3.238   3.138  12.201 -0.1666 -0.0396 -0.3428
11980TIP3    H157355   3.331   3.161  12.203 -0.6087  1.8286 -0.2134
11980TIP3    H257356   3.236   3.050  12.163  1.5154  0.7268 -2.3062
11981TIP3   OH257357   0.585   3.383  16.243 -0.4791 -0.0954  0.5901
11981TIP3    H157358   0.515   3.448  16.251 -0.6882 -0.3779  1.0756
11981TIP3    H257359   0.588   3.361  16.150 -1.3448 -0.4208  0.6402
11982TIP3   OH257360   5.258   2.096  13.082 -0.0668  0.1670 -0.0822
11982TIP3    H157361   5.343   2.130  13.052  0.4223 -0.4248  0.6212
11982TIP3    H257362   5.204   2.173  13.095  1.1671  0.7020  1.9165
11983TIP3   OH257363   1.858   4.705  15.671 -0.0199 -0.3070  0.1957
11983TIP3    H157364   1.810   4.709  15.589  0.9543 -1.0220 -0.4202
11983TIP3    H257365   1.873   4.796  15.695 -0.5559 -0.0947 -0.2805
11984TIP3   OH257366   3.590   3.506  16.416  0.1171  0.9871 -0.5226
11984TIP3    H157367   3.603   3.414  16.393 -2.6371 -0.0022  1.5096
11984TIP3    H257368   3.518   3.535  16.360 -1.2228  0.8996  1.1112
11985TIP3   OH257369   3.513   1.322   3.912  0.1615  0.3322 -0.2781
11985TIP3    H157370   3.542   1.282   3.830 -0.1536  0.5625 -0.5021
11985TIP3    H257371   3.418   1.315   3.910  0.2151 -1.0475  0.7701
11986TIP3   OH257372   5.388   3.563  12.472  0.2179  0.1987 -0.3324
11986TIP3    H157373   5.393   3.649  12.430  0.4023  0.8432  1.0055
11986TIP3    H257374   5.475   3.525  12.459  0.3833  0.5397 -0.2192
11987TIP3   OH257375   4.504   2.510  14.984  0.4119 -0.4804  0.1572
11987TIP3    H157376   4.417   2.531  14.950 -0.0610  0.2987  1.7616
11987TIP3    H257377   4.564   2.541  14.916 -0.5251 -0.0405 -0.4896
11988TIP3   OH257378   3.464   6.612   5.084 -0.3831  0.1461 -0.6619
11988TIP3    H157379   3.395   6.574   5.029  0.9603 -0.8421 -1.7110
11988TIP3    H257380   3.426   6.616   5.172 -1.0923 -2.2698 -0.8212
11989TIP3   OH257381   4.500   3.153  12.499  0.1390  0.3012 -0.6341
11989TIP3    H157382   4.588   3.182  12.524 -0.2562 -0.6721  2.0977
11989TIP3    H257383   4.486   3.191  12.412  3.9945 -1.1079 -2.0001
11990TIP3   OH257384   4.369   2.680   4.161  0.5216 -0.7415 -0.1736
11990TIP3    H157385   4.342   2.592   4.134 -1.0967  0.2357 -1.8939
11990TIP3    H257386   4.287   2.722   4.187  1.0607  0.7421 -0.8470
11991TIP3   OH257387   1.941   2.259   4.115 -0.1044  0.7188  0.1223
11991TIP3    H157388   1.995   2.181   4.125  0.5061  1.0746 -0.3726
11991TIP3    H257389   1.863   2.228   4.069 -1.5669 -0.3202  3.1552
11992TIP3   OH257390   1.404   1.434  13.476  0.2433  0.4090 -0.0381
11992TIP3    H157391   1.336   1.501  13.480  0.3180  0.5753 -1.2158
11992TIP3    H257392   1.432   1.423  13.566 -1.0202  0.6748  0.4056
11993TIP3   OH257393   5.440   5.008  15.057 -0.2266 -0.3833  0.5124
11993TIP3    H157394   5.535   5.020  15.063 -0.2522 -0.4286  1.0340
11993TIP3    H257395   5.425   4.986  14.965  0.2351 -0.0882  0.3577
11994TIP3   OH257396   2.659   4.043   0.262  0.5064  0.6165 -0.3996
11994TIP3    H157397   2.687   3.956   0.232 -1.8514  0.1069 -1.2083
11994TIP3    H257398   2.735   4.099   0.247  1.8123 -1.1452 -0.5662
11995TIP3   OH257399   5.306   3.142  15.879 -0.7055 -0.2202  0.6867
11995TIP3    H157400   5.352   3.066  15.916 -1.5635 -0.3091  1.6227
11995TIP3    H257401   5.219   3.108  15.856 -2.0574  1.0597  3.6368
11996TIP3   OH257402   3.272   1.502   6.285 -0.5259 -0.0970  0.3385
11996TIP3    H157403   3.227   1.435   6.233  0.3995 -0.4984  0.0507
11996TIP3    H257404   3.276   1.578   6.227  0.1775 -0.4275 -0.0619
11997TIP3   OH257405   3.315   0.992   4.145 -0.4223  0.2005 -0.0402
11997TIP3    H157406   3.269   1.005   4.228 -1.2206 -1.5668 -0.1740
11997TIP3    H257407   3.258   1.032   4.080 -0.8621 -0.3248  0.0186
11998TIP3   OH257408   6.608   5.335  17.102  0.3490 -0.0834  0.5521
11998TIP3    H157409   6.584   5.360  17.013  3.2345  0.5015 -0.1320
11998TIP3    H257410   6.579   5.245  17.110  0.4370 -0.2922 -1.1549
11999TIP3   OH257411   1.399   0.265  11.048  0.8244 -0.6430  0.9921
11999TIP3    H157412   1.456   0.239  10.976 -1.2600 -2.1284 -0.1787
11999TIP3    H257413   1.430   0.215  11.123  1.0683 -1.4744  0.3476
12000TIP3   OH257414   2.794   5.211   1.551 -0.4128  0.8448  0.6186
12000TIP3    H157415   2.751   5.153   1.488  0.4394 -0.5019  1.2453
12000TIP3    H257416   2.787   5.299   1.513 -1.7065  0.3263 -0.3528
12001TIP3   OH257417   2.360   3.154  12.688 -0.7143  0.4025 -0.3484
12001TIP3    H157418   2.332   3.228  12.742 -1.2752  0.1976 -0.3522
12001TIP3    H257419   2.361   3.080  12.749 -3.3228 -0.2452 -1.0409
12002TIP3   OH257420   1.817   5.342  11.434  0.7008 -0.3378  0.1686
12002TIP3    H157421   1.795   5.402  11.362  1.9010 -0.0870  0.0112
12002TIP3    H257422   1.823   5.256  11.392 -2.6196 -0.8721  0.6563
12003TIP3   OH257423   0.926   6.549   3.455  0.4817 -0.1521  0.2532
12003TIP3    H157424   0.897   6.626   3.504  2.1201  1.3862 -1.1172
12003TIP3    H257425   0.847   6.517   3.411 -0.3040  0.4532  1.1988
12004TIP3   OH257426   0.964   2.044   3.256 -0.0134 -0.0499 -0.4705
12004TIP3    H157427   0.997   2.037   3.346  0.4910  2.6831 -0.3996
12004TIP3    H257428   1.016   1.981   3.206  0.2944 -0.9706  0.9865
12005TIP3   OH257429   5.813   4.996  16.927  0.5835 -0.3560 -0.2547
12005TIP3    H157430   5.789   4.949  17.007 -0.5498 -0.0606 -0.4071
12005TIP3    H257431   5.778   5.084  16.940 -0.1144 -0.4710 -1.3154
12006TIP3   OH257432   5.510   2.387  15.126  0.2371 -0.5404  0.1996
12006TIP3    H157433   5.516   2.406  15.219  1.4854 -2.8871  0.6490
12006TIP3    H257434   5.416   2.376  15.110  0.1890 -2.8638  1.8195
12007TIP3   OH257435   1.708   6.596   2.305 -1.1692 -0.7259  0.2206
12007TIP3    H157436   1.622   6.603   2.263 -0.7039  0.9240 -0.4827
12007TIP3    H257437   1.690   6.611   2.398 -1.5571  0.3233 -0.0182
12008TIP3   OH257438   6.614   4.871   2.104  0.1203 -0.5667 -0.2054
12008TIP3    H157439   6.707   4.869   2.129  0.2209 -1.2395 -0.6338
12008TIP3    H257440   6.569   4.827   2.176  0.0246  0.5553  0.4392
12009TIP3   OH257441   6.209   0.668  11.878 -0.1453  0.4831 -0.2233
12009TIP3    H157442   6.128   0.670  11.928 -0.0253 -0.0905 -0.0024
12009TIP3    H257443   6.202   0.590  11.823  0.7160 -0.1842  0.5857
12010TIP3   OH257444   1.726   0.513  13.499  0.0384 -0.5532  0.2963
12010TIP3    H157445   1.701   0.556  13.418 -0.4019 -1.2256  0.0775
12010TIP3    H257446   1.643   0.493  13.543  0.2875  0.4684  1.2555
12011TIP3   OH257447   4.891   4.206  11.031 -0.2017  0.2913  0.0738
12011TIP3    H157448   4.883   4.151  10.953 -0.3798 -1.5457  1.3745
12011TIP3    H257449   4.801   4.232  11.051 -0.7339 -3.0761  2.3622
12012TIP3   OH257450   2.655   5.579  14.094  0.0944 -0.5372 -0.1061
12012TIP3    H157451   2.725   5.530  14.051  0.2584 -1.5065  1.2260
12012TIP3    H257452   2.638   5.653  14.036 -0.0467 -2.0726 -2.1142
12013TIP3   OH257453   1.766   4.531  16.537 -0.0933 -0.5767 -0.5739
12013TIP3    H157454   1.729   4.451  16.574  0.2671 -0.2265  0.5502
12013TIP3    H257455   1.860   4.521  16.549 -0.0653  0.1277 -0.2006
12014TIP3   OH257456   2.256   5.288  12.439 -0.0990  0.4943 -0.4377
12014TIP3    H157457   2.313   5.263  12.366  2.5956 -0.6692  1.9589
12014TIP3    H257458   2.301   5.361  12.480 -1.6442  1.1951  0.0392
12015TIP3   OH257459   4.560   0.018   1.735 -0.1207 -0.0871 -0.0342
12015TIP3    H157460   4.576   0.014   1.829 -0.2297 -0.2429 -0.0213
12015TIP3    H257461   4.604  -0.059   1.699 -0.1391 -0.0664 -0.1017
12016TIP3   OH257462   6.388   6.664   1.914 -0.0544 -0.0999 -0.4878
12016TIP3    H157463   6.377   6.693   1.823  0.2559  0.0108 -0.4907
12016TIP3    H257464   6.302   6.675   1.953  0.0925  0.9830 -0.4462
12017TIP3   OH257465   5.790   4.172  17.061 -0.4404  0.7322  0.3214
12017TIP3    H157466   5.828   4.091  17.028  0.6971  0.8707  1.2299
12017TIP3    H257467   5.781   4.157  17.155 -2.8099  0.6536  0.0958
12018TIP3   OH257468   1.134   0.313   3.600  0.7845  0.2720 -0.3466
12018TIP3    H157469   1.207   0.273   3.648 -0.5283 -0.8543  0.7739
12018TIP3    H257470   1.092   0.370   3.664  0.7456  1.0105 -1.0227
12019TIP3   OH257471   1.795   4.928   2.909 -0.2809 -0.1969  0.0644
12019TIP3    H157472   1.826   5.018   2.918 -0.3403 -0.1911  0.2196
12019TIP3    H257473   1.700   4.936   2.898  0.0185 -0.0934 -2.5833
12020TIP3   OH257474   3.125   3.897   5.976  0.1521  0.2543 -0.1130
12020TIP3    H157475   3.110   3.976   5.923 -0.6129  0.6458  0.6627
12020TIP3    H257476   3.065   3.907   6.051  1.3667 -0.1726  0.9431
12021TIP3   OH257477   2.088   1.862   5.551 -0.6049 -0.1238 -0.1346
12021TIP3    H157478   2.048   1.870   5.638  0.7842  0.8848  0.4328
12021TIP3    H257479   2.013   1.852   5.492 -1.6865  1.1422  0.9670
12022TIP3   OH257480   0.908   3.535   2.047 -0.2846 -0.1529  0.0384
12022TIP3    H157481   0.980   3.572   2.098 -0.1598  0.0692 -0.3008
12022TIP3    H257482   0.906   3.443   2.073  0.5267 -0.3059 -0.4098
12023TIP3   OH257483   2.884   3.516  15.190 -0.3256 -0.1541  0.2458
12023TIP3    H157484   2.943   3.453  15.231 -1.0886 -0.5751  0.7115
12023TIP3    H257485   2.811   3.524  15.252  0.2710  2.0199  0.7289
12024TIP3   OH257486   0.529   6.394  12.762 -0.1791  0.0371  0.8798
12024TIP3    H157487   0.459   6.347  12.716 -1.0819  2.0119  0.1917
12024TIP3    H257488   0.492   6.480  12.780  2.6043  1.6713 -0.9122
12025TIP3   OH257489   3.495   4.252   6.141 -0.0562  0.0972 -0.0239
12025TIP3    H157490   3.545   4.193   6.197  1.0084  1.2661  0.2799
12025TIP3    H257491   3.463   4.196   6.071 -0.5377 -1.1794  1.1899
12026TIP3   OH257492   0.006   4.146   5.108  0.0591 -0.1345  0.0832
12026TIP3    H157493  -0.047   4.143   5.028  1.0158  2.6799 -0.6972
12026TIP3    H257494  -0.058   4.159   5.178 -0.7138 -1.8543 -0.2811
12027TIP3   OH257495   3.382   4.753   2.524  0.3222 -0.1850 -0.5156
12027TIP3    H157496   3.299   4.770   2.571  0.5979  1.9585 -0.7209
12027TIP3    H257497   3.366   4.786   2.435  1.6802  1.1640 -0.2933
12028TIP3   OH257498   4.068   3.691  11.631  0.1766  1.0888 -0.0576
12028TIP3    H157499   4.099   3.613  11.677 -2.4556 -0.3097 -0.5348
12028TIP3    H257500   4.126   3.699  11.555 -0.9259 -1.8317 -1.3019
12029TIP3   OH257501   1.210   3.199  14.731  0.6459 -0.1552  0.5865
12029TIP3    H157502   1.277   3.186  14.664 -1.6522 -1.1639 -1.6302
12029TIP3    H257503   1.159   3.274  14.699 -1.1975 -1.3913  0.5833
12030TIP3   OH257504   1.131   1.411  14.954  0.5727 -0.0887 -0.1156
12030TIP3    H157505   1.044   1.436  14.922 -1.2024 -2.3215  2.7866
12030TIP3    H257506   1.174   1.494  14.974 -1.4388  1.0038 -0.1978
12031TIP3   OH257507   5.393   1.596   1.453  0.0328 -0.1537  0.2555
12031TIP3    H157508   5.441   1.514   1.441  0.5090 -0.1593  2.1407
12031TIP3    H257509   5.454   1.664   1.423 -0.2845 -0.4424 -1.1031
12032TIP3   OH257510   4.246   4.435  16.524 -0.4691  0.1942  0.1009
12032TIP3    H157511   4.236   4.526  16.497 -1.0601  0.4521  1.1435
12032TIP3    H257512   4.253   4.439  16.619 -1.2833 -0.9061  0.2266
12033TIP3   OH257513   5.815   6.201   2.925 -0.2370 -0.0225  0.3803
12033TIP3    H157514   5.781   6.290   2.912  0.6795  0.1569 -0.9480
12033TIP3    H257515   5.770   6.169   3.003 -2.3664  0.7388 -0.4856
12034TIP3   OH257516   5.192   5.800   4.732 -0.4045 -0.2463 -0.4328
12034TIP3    H157517   5.230   5.801   4.644 -0.5213  1.0406 -0.4733
12034TIP3    H257518   5.224   5.718   4.770  0.7250 -0.1832 -1.2032
12035TIP3   OH257519   3.867   5.591   5.274 -0.2819  0.1041  0.5777
12035TIP3    H157520   3.844   5.572   5.183 -0.8886 -0.4511  0.8473
12035TIP3    H257521   3.961   5.609   5.271 -0.0423 -1.1964  0.0438
12036TIP3   OH257522   0.068   3.035  13.303  0.0020 -0.0558 -0.5403
12036TIP3    H157523   0.151   2.988  13.304 -0.3430 -0.6647  0.8320
12036TIP3    H257524   0.011   2.984  13.361 -0.5244  1.7666  0.5949
12037TIP3   OH257525   0.306   3.584   6.339  0.0512 -0.0272  0.0759
12037TIP3    H157526   0.216   3.587   6.372 -0.3395  0.9258 -1.0401
12037TIP3    H257527   0.352   3.652   6.388 -0.1871  0.4466 -0.3551
12038TIP3   OH257528   5.379   3.305   4.638 -0.2660  0.4544 -0.2116
12038TIP3    H157529   5.295   3.268   4.610 -0.2225  0.2576 -0.0811
12038TIP3    H257530   5.403   3.254   4.714  0.7106 -0.4674 -1.1369
12039TIP3   OH257531   6.250   5.142   6.221  0.1232  0.3951 -0.0670
12039TIP3    H157532   6.337   5.115   6.190 -0.2436 -1.2521  0.2858
12039TIP3    H257533   6.260   5.235   6.243  1.2969  0.7137 -1.8123
12040TIP3   OH257534   1.343   1.202   1.797  0.5262 -0.3456  0.6522
12040TIP3    H157535   1.358   1.117   1.839  0.7826 -1.2788 -1.2603
12040TIP3    H257536   1.413   1.210   1.733 -0.6002  0.4405 -0.5148
12041TIP3   OH257537   1.561   2.583   4.142 -0.7455 -0.1326  0.5994
12041TIP3    H157538   1.651   2.616   4.135 -1.0079  0.6163  0.7012
12041TIP3    H257539   1.541   2.549   4.055 -1.4857  2.6464 -0.3865
12042TIP3   OH257540   5.303   3.992   1.762  0.2995  0.0437 -0.2350
12042TIP3    H157541   5.280   3.922   1.701  1.3454 -0.0577 -0.5201
12042TIP3    H257542   5.376   3.956   1.813 -0.0585  0.4188  0.5468
12043TIP3   OH257543   3.557   2.350  14.341 -0.3147  0.0732 -0.5164
12043TIP3    H157544   3.549   2.401  14.260 -2.9366 -0.4575 -0.6529
12043TIP3    H257545   3.504   2.398  14.405  1.1116  0.0701  0.6788
12044TIP3   OH257546   6.729   6.188  11.422 -0.2457  0.1137 -0.3829
12044TIP3    H157547   6.727   6.157  11.512 -0.9978 -0.9787 -0.7662
12044TIP3    H257548   6.819   6.219  11.409  0.4197 -1.5594  0.1427
12045TIP3   OH257549   4.649   1.524  13.015  0.1147 -0.1239 -0.5536
12045TIP3    H157550   4.646   1.482  12.930 -0.5640 -2.0209  0.3791
12045TIP3    H257551   4.671   1.454  13.076 -1.3322  0.7890  1.0815
12046TIP3   OH257552   4.068   2.549  16.101 -0.5817 -0.0327  0.1888
12046TIP3    H157553   4.041   2.606  16.029 -1.9263 -0.4719  0.3347
12046TIP3    H257554   4.038   2.462  16.076  3.3971 -1.1570 -1.0878
12047TIP3   OH257555   5.531   4.338  10.755 -0.3763 -0.3624  0.2819
12047TIP3    H157556   5.488   4.423  10.762 -0.4142 -0.5586  3.3596
12047TIP3    H257557   5.624   4.357  10.767 -0.2238 -0.6044 -0.4760
12048TIP3   OH257558   5.852   4.379  12.781  0.0023 -0.1650 -0.2736
12048TIP3    H157559   5.778   4.370  12.842 -0.9276 -0.4106 -1.4208
12048TIP3    H257560   5.914   4.312  12.809 -0.4117 -0.2710  0.4063
12049TIP3   OH257561   0.589   3.726   3.607 -0.4952 -0.1450  0.0428
12049TIP3    H157562   0.537   3.781   3.666 -0.0180  0.2484  0.0969
12049TIP3    H257563   0.636   3.788   3.552  1.1519 -0.4910  1.0537
12050TIP3   OH257564   3.527   1.385   2.196  0.1308 -0.1359  0.3328
12050TIP3    H157565   3.570   1.300   2.197  0.9124  0.2565  0.4162
12050TIP3    H257566   3.597   1.447   2.175 -0.7729  0.2843 -1.5465
12051TIP3   OH257567   2.801   2.794   2.113  0.6233 -0.2136  0.1084
12051TIP3    H157568   2.833   2.751   2.193  2.0361  0.4056 -0.1206
12051TIP3    H257569   2.879   2.829   2.071 -0.5204  2.7633  0.3885
12052TIP3   OH257570   5.377   0.018   5.413  0.0655  0.2273  0.0467
12052TIP3    H157571   5.392   0.083   5.482 -0.2374  0.2110  0.1329
12052TIP3    H257572   5.405   0.060   5.332 -0.9594  0.8015 -0.0209
12053TIP3   OH257573   3.434   4.682   5.951  0.0552 -0.1556 -0.3041
12053TIP3    H157574   3.375   4.684   5.876  1.3836  0.3376 -1.3496
12053TIP3    H257575   3.521   4.693   5.914  0.8709 -1.3863  1.1804
12054TIP3   OH257576   3.795   0.220  13.893  0.3014  0.1768 -0.2430
12054TIP3    H157577   3.865   0.282  13.911  0.4091 -0.3673  1.3320
12054TIP3    H257578   3.839   0.137  13.876  0.1572  0.5161 -2.3400
12055TIP3   OH257579   5.324   5.146  11.069  0.1775 -0.2000  0.2560
12055TIP3    H157580   5.242   5.154  11.022 -0.9866 -0.1654  2.2477
12055TIP3    H257581   5.391   5.147  11.000 -1.4105  0.6204 -1.3260
12056TIP3   OH257582   4.529   6.154  10.136  0.5760 -0.2483  1.0316
12056TIP3    H157583   4.470   6.228  10.120  2.0013  0.7043  0.0408
12056TIP3    H257584   4.484   6.078  10.099  0.0244  0.4792  0.2001
12057TIP3   OH257585   3.781   0.461  11.963 -0.4547 -0.4113 -0.1142
12057TIP3    H157586   3.729   0.409  11.902 -0.3923 -0.6213  0.0104
12057TIP3    H257587   3.870   0.429  11.952 -0.6832 -1.5431  1.2151
12058TIP3   OH257588   0.730   0.386   1.025 -0.0730 -0.4738 -0.2623
12058TIP3    H157589   0.678   0.406   1.102  0.6925  0.1227  0.1066
12058TIP3    H257590   0.797   0.325   1.056  1.1848  0.9523 -0.0929
12059TIP3   OH257591   1.739   2.226   5.882 -0.1194  0.2262  0.4792
12059TIP3    H157592   1.706   2.185   5.962  1.3076 -1.2824  0.3137
12059TIP3    H257593   1.676   2.297   5.864 -1.7573 -0.8940  1.6237
12060TIP3   OH257594   0.487   4.318   3.734  0.1293  0.2042  0.6399
12060TIP3    H157595   0.565   4.293   3.685  0.3410 -1.4176  1.7455
12060TIP3    H257596   0.424   4.249   3.715  0.6312 -1.1370  3.5664
12061TIP3   OH257597   0.250   5.083   0.569  0.3110  0.1758  0.0657
12061TIP3    H157598   0.243   5.037   0.653 -2.3468  1.1739  0.4569
12061TIP3    H257599   0.161   5.080   0.534  0.6898  2.6367 -1.1653
12062TIP3   OH257600   6.011   1.842   6.696 -0.2434  0.2439  0.1408
12062TIP3    H157601   6.017   1.927   6.739 -1.3852  0.6134 -0.4103
12062TIP3    H257602   5.925   1.808   6.721 -0.2737 -0.2233 -0.5754
12063TIP3   OH257603   0.370   1.279  12.431 -0.0722  0.4099 -0.7506
12063TIP3    H157604   0.454   1.318  12.453 -0.0512 -0.1157  0.1230
12063TIP3    H257605   0.361   1.206  12.493 -1.3156  0.6611 -0.6400
12064TIP3   OH257606   4.715   0.250   4.634  0.1267  0.1618  0.2285
12064TIP3    H157607   4.745   0.334   4.600  1.0338  0.1346  0.9378
12064TIP3    H257608   4.620   0.254   4.626  0.2909  0.3266 -1.8490
12065TIP3   OH257609   5.591   4.264  16.891  0.1349  0.3250  0.5326
12065TIP3    H157610   5.648   4.230  16.960  0.6854 -0.6771 -0.4023
12065TIP3    H257611   5.522   4.197  16.882  0.4296  0.1280 -0.3319
12066TIP3   OH257612   0.722   3.824  14.470  0.2403 -0.3208 -0.0582
12066TIP3    H157613   0.745   3.793  14.557  1.5692  1.8454  0.3867
12066TIP3    H257614   0.640   3.873  14.483  0.5461  0.1740  0.0133
12067TIP3   OH257615   3.815   4.241  15.230 -0.0903  0.3646 -0.3231
12067TIP3    H157616   3.863   4.176  15.178  1.3003  1.2981 -0.2199
12067TIP3    H257617   3.883   4.290  15.276 -1.2649  0.1945  1.6329
12068TIP3   OH257618   2.036   3.037  11.521  0.0582 -0.0870 -0.1167
12068TIP3    H157619   1.969   3.083  11.470  0.1560 -0.9875 -1.0803
12068TIP3    H257620   2.047   3.090  11.600  0.0782  1.4606 -1.1447
12069TIP3   OH257621   5.549   5.106   0.756 -0.5548 -0.6504 -0.2649
12069TIP3    H157622   5.477   5.096   0.818 -0.2692 -1.6383 -0.0698
12069TIP3    H257623   5.519   5.171   0.693 -1.2535 -0.3974  0.3297
12070TIP3   OH257624   2.940   2.648  14.923 -0.2017 -0.4754 -0.6284
12070TIP3    H157625   2.913   2.730  14.965  0.2088 -1.2485  1.1993
12070TIP3    H257626   3.030   2.664  14.894  0.2343 -0.5905  0.6223
12071TIP3   OH257627   3.700   4.342   5.379 -0.2678 -0.6056 -0.4289
12071TIP3    H157628   3.638   4.380   5.317 -1.6181 -0.9055  0.7217
12071TIP3    H257629   3.661   4.357   5.465  0.2314 -2.6777  0.1849
12072TIP3   OH257630   5.941   4.724  13.614 -0.0130 -1.0606  0.5353
12072TIP3    H157631   5.977   4.658  13.555 -0.3020  1.1198 -2.2291
12072TIP3    H257632   6.017   4.778  13.639 -0.5472  0.8408 -1.7117
12073TIP3   OH257633   0.278   1.345   5.773 -0.0290 -0.2081 -0.1141
12073TIP3    H157634   0.253   1.390   5.692 -0.5570 -1.2728 -0.5588
12073TIP3    H257635   0.315   1.262   5.743  3.4095  1.0149  0.5531
12074TIP3   OH257636   0.789   1.630   5.815  0.4968 -0.1952  0.2234
12074TIP3    H157637   0.738   1.705   5.783  0.4739 -0.0532  0.5900
12074TIP3    H257638   0.858   1.669   5.868 -0.0044 -0.4803  1.0828
12075TIP3   OH257639   3.004   0.710  14.166 -0.3295 -0.6798  0.2975
12075TIP3    H157640   3.029   0.655  14.091  2.1902 -0.3159  0.8271
12075TIP3    H257641   2.974   0.792  14.126  0.7747 -0.5715 -0.3378
12076TIP3   OH257642   2.150   0.909  11.277 -0.3895  0.2999 -0.5593
12076TIP3    H157643   2.226   0.961  11.249 -1.1979  0.8836 -1.7193
12076TIP3    H257644   2.075   0.963  11.254 -1.2065 -0.9397 -0.8279
12077TIP3   OH257645   4.123   0.537  16.670 -0.6906  0.4195  0.7238
12077TIP3    H157646   4.185   0.571  16.734 -1.0706 -0.3446  1.5053
12077TIP3    H257647   4.092   0.614  16.623  1.2264  0.7697 -0.0268
12078TIP3   OH257648   1.593   3.080   5.921 -0.1979 -0.6243  0.1772
12078TIP3    H157649   1.664   3.035   5.874  0.1152 -0.6732  0.6975
12078TIP3    H257650   1.557   3.014   5.980 -1.6970 -1.0424 -1.1862
12079TIP3   OH257651   5.701   0.553  10.601 -0.9025  0.4906 -0.5429
12079TIP3    H157652   5.793   0.541  10.577 -0.9300  3.7321 -2.4487
12079TIP3    H257653   5.653   0.497  10.540 -0.3998  1.6343 -2.0073
12080TIP3   OH257654   4.224   1.348   6.811  0.0392 -0.0016 -0.2341
12080TIP3    H157655   4.147   1.292   6.801 -0.5235  0.5032  1.0696
12080TIP3    H257656   4.275   1.334   6.732 -0.7082 -1.4108 -0.4783
12081TIP3   OH257657   0.022   0.547  15.278  0.0159 -0.2160 -0.6272
12081TIP3    H157658   0.046   0.543  15.185  0.4105 -0.3486 -0.5219
12081TIP3    H257659   0.094   0.502  15.323  0.3262  0.7339 -0.1660
12082TIP3   OH257660   0.397   4.286   5.145  0.2109 -0.2442 -0.3871
12082TIP3    H157661   0.378   4.362   5.089  1.2371  0.1507 -0.2005
12082TIP3    H257662   0.324   4.283   5.207  0.7542  1.2943  0.3483
12083TIP3   OH257663   2.626   4.667   1.688  0.1182 -0.2094 -0.4416
12083TIP3    H157664   2.702   4.679   1.630  0.5036 -1.9573 -0.3254
12083TIP3    H257665   2.565   4.615   1.637 -1.9142  2.8148 -1.2709
12084TIP3   OH257666   4.669   3.191  15.866 -0.5155 -0.0994 -0.1463
12084TIP3    H157667   4.682   3.285  15.851 -1.4545  0.0324 -0.1783
12084TIP3    H257668   4.721   3.172  15.944 -0.3752  0.4691 -0.1001
12085TIP3   OH257669   2.880   4.576   0.912  0.7253  0.2162  0.7318
12085TIP3    H157670   2.938   4.571   0.988  1.0520  0.4635  0.5012
12085TIP3    H257671   2.831   4.494   0.913  2.0678 -0.6153  0.1412
12086TIP3   OH257672   3.254   5.460  11.155 -1.0438 -0.1426 -0.0026
12086TIP3    H157673   3.235   5.415  11.073  0.0322 -0.7557  0.0797
12086TIP3    H257674   3.248   5.393  11.222  0.4562 -0.1747  0.1342
12087TIP3   OH257675   0.966   0.549   0.589 -0.2475 -0.0577  0.0013
12087TIP3    H157676   0.974   0.626   0.532  0.0059 -0.9749 -1.2126
12087TIP3    H257677   1.053   0.540   0.629 -0.6846  1.1436  1.3043
12088TIP3   OH257678   5.070   3.034   3.782 -0.4148 -0.0755  0.0761
12088TIP3    H157679   5.139   3.022   3.847  0.1606  2.0168 -0.0960
12088TIP3    H257680   5.082   2.963   3.720  0.1782 -1.0273  1.2558
12089TIP3   OH257681   5.834   1.652   2.768  0.6984  0.1519 -0.2119
12089TIP3    H157682   5.783   1.732   2.778 -0.4429 -0.6838  0.9450
12089TIP3    H257683   5.776   1.583   2.802  2.6934 -0.7998  1.3848
12090TIP3   OH257684   3.335   1.573  17.204 -0.7644 -0.0618 -0.6815
12090TIP3    H157685   3.369   1.644  17.148  0.1671  0.5559  0.6455
12090TIP3    H257686   3.389   1.498  17.183 -1.0133 -0.0787 -1.2720
12091TIP3   OH257687   5.110   2.597   0.619  0.1670 -0.0558  0.0544
12091TIP3    H157688   5.023   2.585   0.657  0.7302 -2.1041  0.7925
12091TIP3    H257689   5.135   2.686   0.643 -0.7748 -0.2353  1.7995
12092TIP3   OH257690   1.892   2.332  13.095  0.4792  0.4452 -0.2504
12092TIP3    H157691   1.893   2.353  13.001 -1.7235  0.3336 -0.3250
12092TIP3    H257692   1.950   2.396  13.135 -0.5597  2.1182 -1.3882
12093TIP3   OH257693   1.000   0.926  12.135 -1.0791 -0.3434  0.7779
12093TIP3    H157694   0.921   0.884  12.102 -0.6622 -1.4283  1.1417
12093TIP3    H257695   1.042   0.859  12.188  0.6329 -0.1299 -0.2695
12094TIP3   OH257696   3.958   5.314   1.476 -0.2735 -0.0929 -0.0439
12094TIP3    H157697   3.960   5.234   1.423 -1.2607 -0.3925  0.3677
12094TIP3    H257698   3.878   5.359   1.448  0.2259  0.7123 -0.2039
12095TIP3   OH257699   2.550   3.670   0.650  0.0562 -0.6501 -0.7750
12095TIP3    H157700   2.495   3.613   0.704  0.0614 -1.9723 -2.1282
12095TIP3    H257701   2.501   3.681   0.569  0.7515  0.0341 -1.1059
12096TIP3   OH257702   5.125   0.382  16.707 -0.1406  0.3498 -0.0846
12096TIP3    H157703   5.150   0.379  16.615  1.4126  1.4959  0.2750
12096TIP3    H257704   5.151   0.297  16.742  0.2276  0.3102 -0.4603
12097TIP3   OH257705   4.191   2.834   2.223  0.2355  0.2222  0.3140
12097TIP3    H157706   4.244   2.889   2.281  2.0020 -0.3550 -0.7117
12097TIP3    H257707   4.174   2.755   2.275 -0.4175  0.7862  0.9750
12098TIP3   OH257708   1.370   3.536  11.912 -0.4242  0.4048 -0.2624
12098TIP3    H157709   1.445   3.591  11.888 -0.4869  1.1597  1.1831
12098TIP3    H257710   1.395   3.498  11.997 -0.7323 -1.1635 -0.8463
12099TIP3   OH257711   5.036   1.535  11.195 -0.2783 -0.0405 -0.4663
12099TIP3    H157712   5.026   1.512  11.102  2.4145 -1.5568 -0.4342
12099TIP3    H257713   5.125   1.570  11.201 -1.4402  2.7447  1.0577
12100TIP3   OH257714   0.918   6.560  10.840  0.0044 -0.2153 -0.2560
12100TIP3    H157715   0.923   6.535  10.932 -1.6490 -0.2209 -0.1440
12100TIP3    H257716   0.902   6.654  10.842 -2.4498 -0.5793 -0.4389
12101TIP3   OH257717   0.813   3.491  13.820  0.1181 -0.3314 -0.4028
12101TIP3    H157718   0.873   3.424  13.787 -0.1419  0.1819 -1.9433
12101TIP3    H257719   0.794   3.546  13.744 -1.8482 -0.1396  0.1929
12102TIP3   OH257720   5.854   1.807  12.179 -0.2268 -0.3164  0.1797
12102TIP3    H157721   5.794   1.736  12.202 -1.0936  0.3378 -0.0575
12102TIP3    H257722   5.908   1.818  12.257  2.2243 -3.5520 -0.9390
12103TIP3   OH257723   0.531   6.231  15.498 -0.7808  0.0275  0.4492
12103TIP3    H157724   0.471   6.213  15.571 -1.8471  0.4620 -0.2943
12103TIP3    H257725   0.477   6.281  15.436 -0.2023 -1.2280 -1.0834
12104TIP3   OH257726   1.188   5.573   1.751  0.1054 -0.0283 -0.0415
12104TIP3    H157727   1.258   5.550   1.690  0.0325  2.9566 -1.3478
12104TIP3    H257728   1.129   5.628   1.700 -1.9062 -0.4397  1.7438
12105TIP3   OH257729   5.520   2.808   5.751  0.9413 -0.1783  0.5519
12105TIP3    H157730   5.532   2.890   5.703 -0.8550 -0.2700 -0.1041
12105TIP3    H257731   5.531   2.833   5.843  1.7374  0.5281  0.2765
12106TIP3   OH257732   1.993   4.589  14.230  0.1762  0.2268  0.8667
12106TIP3    H157733   1.982   4.682  14.210  2.2131  0.6467  1.5595
12106TIP3    H257734   1.918   4.568  14.285 -1.9896  0.6583 -1.8122
12107TIP3   OH257735   3.483   1.118  15.156 -0.2243 -0.0239  0.8378
12107TIP3    H157736   3.509   1.166  15.078  0.2699 -1.3746  0.1686
12107TIP3    H257737   3.565   1.099  15.202 -0.3097 -1.2409  0.5053
12108TIP3   OH257738   3.929   4.522   4.700 -0.1156 -0.4368  0.2096
12108TIP3    H157739   3.957   4.532   4.791  0.1958  2.1420 -0.1099
12108TIP3    H257740   3.849   4.469   4.704  0.6654 -1.5112  1.8358
12109TIP3   OH257741   1.560   2.586  11.624 -0.2555  0.1543  0.0740
12109TIP3    H157742   1.489   2.534  11.662  0.3811  1.7728  3.6370
12109TIP3    H257743   1.515   2.661  11.583 -0.7516  0.0096  0.3530
12110TIP3   OH257744   3.082   6.443   1.142 -0.2177 -0.3005 -0.0102
12110TIP3    H157745   3.151   6.464   1.079 -0.3975  1.3995  0.3319
12110TIP3    H257746   3.043   6.528   1.164 -0.1387 -0.8634  2.4152
12111TIP3   OH257747   3.955   2.744   5.436 -0.3478  0.5431  0.1523
12111TIP3    H157748   3.989   2.673   5.382 -2.2795  0.4234 -0.9484
12111TIP3    H257749   4.012   2.819   5.417 -0.5628  0.2947 -1.5002
12112TIP3   OH257750   6.289   4.309   0.023  0.1787 -0.2755 -0.2116
12112TIP3    H157751   6.293   4.352  -0.062 -0.5019  0.3935  0.0939
12112TIP3    H257752   6.377   4.274   0.037  0.0458 -1.1780 -1.6046
12113TIP3   OH257753   2.719   6.088  12.223 -0.2698  0.1254  0.1451
12113TIP3    H157754   2.809   6.121  12.224 -0.8679  1.9869 -1.8580
12113TIP3    H257755   2.714   6.033  12.145 -0.6122 -0.7404  0.7736
12114TIP3   OH257756   4.609   4.592  11.697 -0.3603 -0.0263 -0.2253
12114TIP3    H157757   4.538   4.614  11.757 -0.3122  0.3952 -0.3210
12114TIP3    H257758   4.633   4.502  11.719 -1.6076 -0.5265 -0.8719
12115TIP3   OH257759   3.107   6.104  12.829  0.2200  0.1685  0.5146
12115TIP3    H157760   3.052   6.102  12.751  0.0957  0.2945  0.5987
12115TIP3    H257761   3.108   6.196  12.856 -0.4655 -0.0056  1.1729
12116TIP3   OH257762   5.423   5.459   5.747 -0.5071  0.6512  0.2285
12116TIP3    H157763   5.452   5.521   5.814  0.2647  0.3538  0.1717
12116TIP3    H257764   5.453   5.374   5.778 -0.9203  0.3980 -0.0576
12117TIP3   OH257765   3.911   6.197  16.442  0.1488 -0.2917 -0.0353
12117TIP3    H157766   3.982   6.145  16.407  1.4429  0.2777  1.6661
12117TIP3    H257767   3.932   6.287  16.417 -0.6860 -0.2653 -0.6819
12118TIP3   OH257768   4.203   6.221   3.675  0.1711  0.4295  0.2968
12118TIP3    H157769   4.271   6.240   3.739  1.5368 -2.3611 -0.2449
12118TIP3    H257770   4.165   6.138   3.704  1.0522 -1.0597 -2.6654
12119TIP3   OH257771   5.774   3.332   0.018  0.5921  0.3718  0.6117
12119TIP3    H157772   5.784   3.399   0.086 -0.9184  0.7851  0.4546
12119TIP3    H257773   5.824   3.366  -0.056 -0.7021  1.6736  0.3066
12120TIP3   OH257774   1.860   2.117   3.664  0.0708  0.1836 -0.7641
12120TIP3    H157775   1.902   2.036   3.694 -0.6742  0.3410  0.7546
12120TIP3    H257776   1.824   2.094   3.579 -0.7803 -1.3252 -0.0294
12121TIP3   OH257777   5.460   5.707   5.350 -0.2361 -0.1289  0.5393
12121TIP3    H157778   5.503   5.624   5.332  1.1097  0.4828  0.8785
12121TIP3    H257779   5.498   5.768   5.286 -0.2899  0.5144  1.1108
12122TIP3   OH257780   2.523   2.214  16.192  0.4075 -0.1008 -0.0683
12122TIP3    H157781   2.461   2.221  16.119 -0.0531 -1.4305  0.1697
12122TIP3    H257782   2.541   2.120  16.199  1.1900  0.1096  0.9207
12123TIP3   OH257783   5.284   6.029  14.337  0.5750  0.0299  0.1460
12123TIP3    H157784   5.197   6.067  14.349 -0.2772 -1.9366  0.2563
12123TIP3    H257785   5.340   6.105  14.320 -1.2051  1.2920 -0.2804
12124TIP3   OH257786   4.005   0.688   5.689  0.5092 -0.3861 -0.0681
12124TIP3    H157787   4.068   0.625   5.724 -0.3366 -1.5441 -0.5819
12124TIP3    H257788   3.956   0.719   5.765 -1.2145 -2.7721 -0.1512
12125TIP3   OH257789   2.110   3.234   4.013  0.6602  0.0489 -0.2019
12125TIP3    H157790   2.188   3.216   4.066  0.8482  0.0207 -0.4889
12125TIP3    H257791   2.133   3.204   3.926  0.1359 -0.4358 -0.1721
12126TIP3   OH257792   3.884   6.767  13.806 -0.5776  0.3266 -0.3302
12126TIP3    H157793   3.851   6.715  13.879  1.5794 -0.1641  0.3314
12126TIP3    H257794   3.919   6.702  13.744 -0.5692  0.8509 -0.8806
12127TIP3   OH257795   0.872   5.327   0.657 -0.1503  0.4471  0.2948
12127TIP3    H157796   0.777   5.319   0.645 -0.3684  1.2893  1.3402
12127TIP3    H257797   0.910   5.296   0.575 -1.3923  1.7406 -0.7802
12128TIP3   OH257798   0.299   5.468   6.386  0.0856  0.3703 -0.6758
12128TIP3    H157799   0.244   5.392   6.405 -1.1436  1.3304 -0.3010
12128TIP3    H257800   0.381   5.451   6.433 -1.3073  0.7065  1.9855
12129TIP3   OH257801   5.446   1.646   1.137 -0.6088  0.1418  1.1408
12129TIP3    H157802   5.529   1.644   1.088 -2.3514  0.7991 -1.9448
12129TIP3    H257803   5.465   1.702   1.212  2.0531 -0.5729  1.0850
12130TIP3   OH257804   5.499   0.690  10.793 -0.1546 -0.1635  0.1966
12130TIP3    H157805   5.425   0.667  10.737 -0.1967  0.2949  0.0690
12130TIP3    H257806   5.575   0.654  10.747 -0.4780 -2.3146  1.2562
12131TIP3   OH257807   3.864   3.123   5.298 -0.6951  0.2186  0.0613
12131TIP3    H157808   3.860   3.218   5.288 -0.2345  0.1793 -0.5035
12131TIP3    H257809   3.788   3.102   5.354 -1.4034  0.7973 -0.6660
12132TIP3   OH257810   1.421   2.816   1.043  0.6513 -0.4512  0.3311
12132TIP3    H157811   1.492   2.877   1.021 -0.0580  0.0145 -0.7355
12132TIP3    H257812   1.401   2.772   0.961  0.5183 -1.4646  0.8974
12133TIP3   OH257813   2.149   0.681   0.309  0.1233  0.3141 -0.0509
12133TIP3    H157814   2.072   0.642   0.351  1.3411 -1.3388  0.6763
12133TIP3    H257815   2.113   0.747   0.250 -1.8455 -0.2799  0.4534
12134TIP3   OH257816   4.457   5.595   3.970 -0.3079 -0.0757 -0.4148
12134TIP3    H157817   4.508   5.521   4.004  0.6377  0.8002  0.1063
12134TIP3    H257818   4.372   5.557   3.949 -0.4559 -0.9436  1.5931
12135TIP3   OH257819   1.415   0.207   4.622 -0.0304  0.1946 -0.6411
12135TIP3    H157820   1.325   0.217   4.653 -0.5131  0.6247 -2.1574
12135TIP3    H257821   1.456   0.149   4.687 -1.0479  0.9499  0.7143
12136TIP3   OH257822   3.196   0.004  13.249  0.2342 -0.1287  0.1817
12136TIP3    H157823   3.262   0.063  13.286  0.0070  0.9976 -1.1655
12136TIP3    H257824   3.114   0.051  13.261 -0.1892 -1.0108  0.7808
12137TIP3   OH257825   4.010   6.199  13.813 -0.6910 -0.4763  0.1355
12137TIP3    H157826   4.030   6.149  13.733  0.5039  0.2487 -0.0310
12137TIP3    H257827   3.951   6.268  13.783  1.3553  1.0212 -0.5242
12138TIP3   OH257828   2.593   3.271   3.090  0.1833  0.4653  0.3000
12138TIP3    H157829   2.678   3.227   3.083  0.0727  0.3022 -0.0270
12138TIP3    H257830   2.575   3.304   3.002  0.8898  2.3560  0.8589
12139TIP3   OH257831   2.175   2.506  10.519 -0.1457  0.3315 -0.8055
12139TIP3    H157832   2.094   2.543  10.553  1.4488  1.3589  2.0367
12139TIP3    H257833   2.187   2.425  10.567  2.0634  1.7235  1.0526
12140TIP3   OH257834   2.294   6.404  11.709 -0.2801  0.4151 -0.3270
12140TIP3    H157835   2.331   6.319  11.684 -0.2530  0.2734  0.2077
12140TIP3    H257836   2.207   6.384  11.744 -0.0909  0.5633  0.2259
12141TIP3   OH257837   2.426   2.228   2.072  0.6199 -0.2277  0.1335
12141TIP3    H157838   2.451   2.256   1.984  1.3196  1.8600  0.9873
12141TIP3    H257839   2.464   2.140   2.081  1.3338 -0.0708 -1.2871
12142TIP3   OH257840   6.317   3.732  17.057 -0.2752  0.4414 -0.1207
12142TIP3    H157841   6.324   3.667  16.987 -1.1330  2.6849 -2.3570
12142TIP3    H257842   6.244   3.701  17.110 -0.0649 -0.9186 -0.5774
12143TIP3   OH257843   5.608   5.915   0.202  0.0221  0.1504  0.3541
12143TIP3    H157844   5.666   5.872   0.265 -0.2421  0.1635  0.6048
12143TIP3    H257845   5.538   5.952   0.255  1.0960  2.3085  0.3224
12144TIP3   OH257846   4.241   0.994   1.509  0.0349  0.2741  0.2085
12144TIP3    H157847   4.334   1.004   1.531  0.3014  0.2617 -0.8613
12144TIP3    H257848   4.196   1.051   1.571  0.6634 -0.5861  1.4661
12145TIP3   OH257849   2.351   0.737   3.333 -0.3912 -0.4760  0.1170
12145TIP3    H157850   2.344   0.821   3.379  0.4140  0.3121 -1.1809
12145TIP3    H257851   2.286   0.744   3.263  1.1040 -0.1141 -1.2400
12146TIP3   OH257852   5.465   0.591  14.474 -0.2330  0.1620 -0.4730
12146TIP3    H157853   5.462   0.594  14.378 -0.9766  0.7211 -0.4351
12146TIP3    H257854   5.389   0.642  14.502 -1.7248 -2.4832  0.3941
12147TIP3   OH257855   3.255   6.511  12.126  0.0059 -0.7400  0.1133
12147TIP3    H157856   3.310   6.442  12.162  0.7582  0.7534  1.8696
12147TIP3    H257857   3.280   6.590  12.173 -1.9202  0.4569 -0.7774
12148TIP3   OH257858   6.625   5.734  15.338 -0.0326 -0.5045 -0.2113
12148TIP3    H157859   6.600   5.675  15.409  2.3510 -0.3089  0.8152
12148TIP3    H257860   6.543   5.778  15.314 -0.8128 -0.3012  2.6526
12149TIP3   OH257861   5.837   0.319   0.145  1.4042 -0.2925 -0.9185
12149TIP3    H157862   5.864   0.394   0.197 -0.9386 -0.0882  0.0852
12149TIP3    H257863   5.838   0.245   0.207 -2.8469  0.2282 -0.0665
12150TIP3   OH257864   1.892   0.348   5.071 -0.0957 -0.0363  0.1417
12150TIP3    H157865   1.913   0.315   5.159 -0.4868 -2.7487 -0.7558
12150TIP3    H257866   1.895   0.271   5.015  1.3518  1.8704 -2.4823
12151TIP3   OH257867   4.133   1.476  16.828  0.0149  0.3207 -0.2714
12151TIP3    H157868   4.165   1.554  16.782  0.2189 -0.6254 -1.7724
12151TIP3    H257869   4.185   1.472  16.908  1.1591  0.8156 -0.9788
12152TIP3   OH257870   0.745   6.086  15.657  0.3056  0.0269  0.1557
12152TIP3    H157871   0.658   6.074  15.695  0.7309 -2.9124  0.3793
12152TIP3    H257872   0.731   6.085  15.562  0.0534 -0.0908  0.1938
12153TIP3   OH257873   2.880   2.822  15.664 -0.3969  0.2556  0.3031
12153TIP3    H157874   2.815   2.777  15.718  0.0510  3.0290  3.2245
12153TIP3    H257875   2.955   2.762  15.662 -1.3055 -0.9223  0.6978
12154TIP3   OH257876   2.071   1.347  17.084 -0.0614  0.1584 -0.3392
12154TIP3    H157877   2.061   1.430  17.131  2.1247  0.9372 -1.2416
12154TIP3    H257878   2.131   1.295  17.138  1.0802  0.3866 -1.3675
12155TIP3   OH257879   1.563   1.487   2.500 -0.0509  0.2822  0.5605
12155TIP3    H157880   1.643   1.441   2.526 -0.8939 -0.3882  2.0601
12155TIP3    H257881   1.586   1.579   2.507  0.9301  0.1013 -0.1234
12156TIP3   OH257882   6.109   2.620   0.704  0.4469  0.2390  0.1555
12156TIP3    H157883   6.191   2.648   0.663  0.0974 -0.0947 -0.8082
12156TIP3    H257884   6.135   2.549   0.763  1.1758  1.8370  1.7814
12157TIP3   OH257885   3.962   5.096   5.773 -0.4014 -0.1988  0.5559
12157TIP3    H157886   3.915   5.076   5.854 -0.5254 -0.3789  0.4377
12157TIP3    H257887   3.902   5.152   5.724 -0.3814 -0.2016  0.5276
12158TIP3   OH257888   2.043   4.474  16.600 -0.2137 -0.5391 -0.4970
12158TIP3    H157889   2.103   4.545  16.623  0.1206 -1.2502  0.8553
12158TIP3    H257890   2.059   4.459  16.506  2.6604 -1.5766  0.1147
12159TIP3   OH257891   2.046   5.009  13.653 -0.1977 -0.2868  0.5485
12159TIP3    H157892   2.046   4.917  13.627  0.9839 -0.3670  0.8265
12159TIP3    H257893   1.959   5.023  13.691 -0.4036 -1.2673  0.4537
12160TIP3   OH257894   0.992   5.115  12.854 -0.2023  0.2515  0.4046
12160TIP3    H157895   1.009   5.183  12.919 -0.5412  1.8317 -1.1306
12160TIP3    H257896   0.900   5.128  12.830 -1.1129 -2.5633  2.1485
12161TIP3   OH257897   4.851   3.526  17.093  0.1490  0.0767  0.2620
12161TIP3    H157898   4.816   3.503  17.179 -0.4498  1.0103  0.2793
12161TIP3    H257899   4.939   3.561  17.111  1.4946 -3.0964  0.1356
12162TIP3   OH257900   3.752   1.934  11.886  0.1414 -0.3740  0.0339
12162TIP3    H157901   3.679   1.969  11.835 -1.3822 -1.7535  1.2049
12162TIP3    H257902   3.733   1.961  11.976  1.4231 -0.2027  0.2650
12163TIP3   OH257903   2.462   2.540   0.660 -0.3740  0.1824  0.2358
12163TIP3    H157904   2.511   2.600   0.717  2.2814  0.2940 -2.0999
12163TIP3    H257905   2.474   2.454   0.701  3.1625 -0.0477 -1.0710
12164TIP3   OH257906   5.660   2.317   4.401 -0.3351  0.4388 -0.5743
12164TIP3    H157907   5.667   2.407   4.432 -1.9069 -0.7099  3.5023
12164TIP3    H257908   5.740   2.274   4.434 -0.3498 -0.0296 -1.1365
12165TIP3   OH257909   5.379   1.604   2.214 -0.1565 -0.2905  0.0814
12165TIP3    H157910   5.284   1.606   2.200 -0.2802 -2.6184  0.4168
12165TIP3    H257911   5.389   1.584   2.307  0.6608 -1.7782 -0.3124
12166TIP3   OH257912   1.832   2.180  16.515 -0.1634  0.6066  0.2250
12166TIP3    H157913   1.797   2.259  16.475  1.6256  1.4152  0.2025
12166TIP3    H257914   1.885   2.139  16.446 -1.2830 -0.7728  0.1444
12167TIP3   OH257915   0.833   6.705  13.938  0.7883 -0.6225 -0.3567
12167TIP3    H157916   0.748   6.665  13.957  1.2561 -1.3404  0.2652
12167TIP3    H257917   0.896   6.651  13.986  1.5306  0.2829 -0.2921
12168TIP3   OH257918   5.962   4.939  12.263  0.1723  0.1515 -0.0182
12168TIP3    H157919   6.022   4.885  12.315 -0.5311 -0.4438  0.1787
12168TIP3    H257920   6.011   5.020  12.247 -0.2807  1.1532  3.2358
12169TIP3   OH257921   3.961   5.425  12.782  0.6245  0.6129  0.7156
12169TIP3    H157922   3.949   5.458  12.870  0.0512 -0.3789  1.0198
12169TIP3    H257923   3.986   5.501  12.730  1.0405  1.1803  1.7461
12170TIP3   OH257924   0.054   3.252  12.196 -0.2015 -0.0861  0.3489
12170TIP3    H157925   0.038   3.328  12.141 -1.1923 -0.4297  0.1607
12170TIP3    H257926   0.133   3.212  12.159 -0.3736  0.1606 -0.2950
12171TIP3   OH257927   4.542   4.218   0.122 -0.3043 -0.2329 -0.2775
12171TIP3    H157928   4.563   4.152   0.056  1.3130  0.3836 -0.3984
12171TIP3    H257929   4.503   4.168   0.194  1.0473 -1.3534 -0.2960
12172TIP3   OH257930   0.861   0.404   6.072 -0.1470  0.3452 -0.4743
12172TIP3    H157931   0.870   0.498   6.088  2.2426  0.1896 -0.7940
12172TIP3    H257932   0.874   0.393   5.978 -1.8216 -0.1595 -0.6591
12173TIP3   OH257933   2.452   3.093  16.095  0.6144  0.3159 -0.3207
12173TIP3    H157934   2.394   3.087  16.171  0.2567  0.1295 -0.6060
12173TIP3    H257935   2.518   3.157  16.121  1.7843 -1.3770  1.0043
12174TIP3   OH257936   2.025   4.629   1.761 -1.3830 -0.3282  0.3223
12174TIP3    H157937   2.041   4.600   1.671  1.1794 -0.5348  0.7930
12174TIP3    H257938   2.001   4.721   1.753  0.7783  0.1952 -0.4679
12175TIP3   OH257939   0.577   2.822   5.383 -0.4646 -0.1249  0.3561
12175TIP3    H157940   0.619   2.863   5.308  0.8520 -1.1270  0.5372
12175TIP3    H257941   0.490   2.796   5.350 -0.6949  1.3251 -0.2072
12176TIP3   OH257942   2.070   5.339   3.185 -0.2018 -0.4537 -0.2791
12176TIP3    H157943   2.107   5.251   3.195 -1.6663 -1.2004 -1.1714
12176TIP3    H257944   2.049   5.367   3.275 -1.5044 -1.8285 -0.1290
12177TIP3   OH257945   6.092   4.615  11.028 -0.7432 -0.5176  0.0015
12177TIP3    H157946   6.139   4.686  10.985 -1.7594 -0.2603 -0.6935
12177TIP3    H257947   6.131   4.535  10.993 -0.3237 -0.3090 -0.0132
12178TIP3   OH257948   5.716   2.316   5.026 -0.2818  0.9989 -0.0861
12178TIP3    H157949   5.718   2.411   5.037  0.9961  0.7683  2.0024
12178TIP3    H257950   5.673   2.284   5.105  1.7415 -0.3121  0.5277
12179TIP3   OH257951   0.492   2.066  13.288 -0.5147 -0.8034 -0.0867
12179TIP3    H157952   0.560   2.041  13.225  0.3319  1.1276 -0.0003
12179TIP3    H257953   0.456   2.148  13.253 -0.5328 -0.0879  1.5465
12180TIP3   OH257954   0.467   1.945  11.474 -0.0518 -0.1484  0.0917
12180TIP3    H157955   0.450   1.939  11.380 -2.2140  0.0514  0.4492
12180TIP3    H257956   0.383   1.924  11.515  1.1631 -1.3924  2.0160
12181TIP3   OH257957   6.755   3.085   0.083  0.5419 -0.5007 -0.2756
12181TIP3    H157958   6.667   3.067   0.116  1.1984 -0.2087  1.7040
12181TIP3    H257959   6.814   3.056   0.153  1.8931  2.1545 -0.2253
12182TIP3   OH257960   6.223   1.890   4.751 -0.0892  0.2475  0.0496
12182TIP3    H157961   6.266   1.841   4.821 -1.4369 -1.3682 -0.2156
12182TIP3    H257962   6.243   1.841   4.671 -2.3862 -0.5704 -0.0678
12183TIP3   OH257963   6.615   1.849   5.583 -0.5195  0.5072  0.3564
12183TIP3    H157964   6.550   1.846   5.653 -0.7309 -1.1306  0.1076
12183TIP3    H257965   6.699   1.850   5.628 -0.6804  0.7625  0.6548
12184TIP3   OH257966   5.551   0.588  11.689 -0.1496 -0.1288 -0.3933
12184TIP3    H157967   5.628   0.604  11.744  0.0542 -2.7510  0.1144
12184TIP3    H257968   5.476   0.604  11.747  0.0088  0.9449 -0.4720
12185TIP3   OH257969   5.858   2.631   6.036 -0.2470 -0.2817 -0.1936
12185TIP3    H157970   5.952   2.639   6.049 -0.0548 -1.2052 -0.9154
12185TIP3    H257971   5.819   2.653   6.120  0.6789 -1.1141  0.4535
12186TIP3   OH257972   3.829   3.112  11.462  0.1124  0.5131  0.1099
12186TIP3    H157973   3.922   3.131  11.474  0.5234 -1.7310  0.8635
12186TIP3    H257974   3.788   3.138  11.545  0.6289 -1.4949  1.0387
12187TIP3   OH257975   0.692   2.924   3.159 -0.5765 -0.4570  0.4542
12187TIP3    H157976   0.629   2.892   3.223 -2.4704 -1.2268 -1.7209
12187TIP3    H257977   0.767   2.866   3.168 -0.0621  0.5671  3.1850
12188TIP3   OH257978   1.443   1.618   5.432  0.0650  0.0453 -0.6704
12188TIP3    H157979   1.361   1.569   5.431 -1.0218  1.7541  0.4628
12188TIP3    H257980   1.454   1.644   5.523  3.0982 -2.0877 -0.3548
12189TIP3   OH257981   1.635   1.777   5.282  0.1402  0.3255  0.3984
12189TIP3    H157982   1.582   1.751   5.358 -0.1375 -2.6780 -0.7518
12189TIP3    H257983   1.723   1.746   5.302  0.4298  1.0166  0.2062
12190TIP3   OH257984   1.746   4.155  12.708  0.1714 -0.7908  0.2789
12190TIP3    H157985   1.824   4.189  12.663  0.1218  0.2104  0.9370
12190TIP3    H257986   1.673   4.182  12.653  0.2544 -1.3067 -0.0844
12191TIP3   OH257987   0.815   4.420  14.768  0.3591 -0.1116  0.2271
12191TIP3    H157988   0.737   4.444  14.717  0.9662 -0.1428 -0.7213
12191TIP3    H257989   0.887   4.463  14.724  0.9090 -0.2056  1.0238
12192TIP3   OH257990   4.975   4.651   1.850  0.0864 -0.1162  0.0504
12192TIP3    H157991   4.898   4.644   1.793  0.8515 -1.1700 -0.9013
12192TIP3    H257992   5.025   4.725   1.815  0.1551 -0.2599 -0.1591
12193TIP3   OH257993   4.166   6.786  13.216 -0.1475  0.5245  0.0313
12193TIP3    H157994   4.210   6.701  13.217 -0.0158  0.5937  0.3003
12193TIP3    H257995   4.115   6.788  13.297 -0.8812  0.3251 -0.4164
12194TIP3   OH257996   2.278   3.532  13.257  0.1703  0.3023 -0.1033
12194TIP3    H157997   2.306   3.441  13.252  1.5326  0.7451 -0.8174
12194TIP3    H257998   2.343   3.580  13.206 -1.3020  1.5044 -0.9039
12195TIP3   OH257999   5.167   1.907   4.790  0.1365 -0.5644 -0.6644
12195TIP3    H158000   5.151   1.813   4.779 -0.1110 -0.5084 -0.7912
12195TIP3    H258001   5.261   1.917   4.782  0.1167 -0.7432 -1.1155
12196TIP3   OH258002   2.136   6.138   6.141 -0.3162  0.5797  0.3255
12196TIP3    H158003   2.071   6.208   6.143  0.7795  1.6734 -1.2425
12196TIP3    H258004   2.208   6.173   6.089  0.2785 -1.6991 -0.4677
12197TIP3   OH258005   6.684   1.107  13.756 -0.2206 -0.1822 -0.2711
12197TIP3    H158006   6.708   1.152  13.674 -1.4713 -0.4473 -0.7986
12197TIP3    H258007   6.725   1.159  13.825  1.5106 -0.4034 -1.1106
12198TIP3   OH258008   2.751   3.686   4.952 -0.1608 -0.2169  0.8222
12198TIP3    H158009   2.664   3.659   4.982  0.0744  0.0502  1.7629
12198TIP3    H258010   2.807   3.611   4.971  0.1319  0.2257  1.7546
12199TIP3   OH258011   1.941   1.898   0.721  0.4308  0.7123  0.2930
12199TIP3    H158012   1.966   1.806   0.714 -1.5342  0.1787 -0.1163
12199TIP3    H258013   2.022   1.943   0.745  1.5587 -1.0261 -0.1333
12200TIP3   OH258014   0.571   3.853   0.189 -0.1799 -0.0852 -0.1706
12200TIP3    H158015   0.594   3.855   0.096 -0.9299 -2.9229 -0.4844
12200TIP3    H258016   0.636   3.794   0.228 -1.4454 -0.9679  0.6110
12201TIP3   OH258017   2.732   5.396   0.439  0.5495  0.0104 -0.3601
12201TIP3    H158018   2.654   5.341   0.428  1.4247 -1.1363 -0.9165
12201TIP3    H258019   2.751   5.427   0.350  0.9040  0.0525 -0.2664
12202TIP3   OH258020   3.684   5.896  10.994 -0.6638 -0.0190  0.1239
12202TIP3    H158021   3.687   5.800  10.987 -0.4560 -0.1590  1.8268
12202TIP3    H258022   3.598   5.920  10.959  0.3326 -0.5514 -2.8437
12203TIP3   OH258023   4.199   6.014  14.530 -0.1985 -0.5473 -0.0680
12203TIP3    H158024   4.188   5.919  14.524 -0.9463 -0.4418 -0.4387
12203TIP3    H258025   4.189   6.033  14.623  0.5948 -0.9067  0.0937
12204TIP3   OH258026   4.025   2.902   2.491 -0.5654 -0.0955 -0.1482
12204TIP3    H158027   4.008   2.978   2.436 -1.1803 -0.8659 -1.0560
12204TIP3    H258028   4.058   2.938   2.573  0.4714  1.0636 -1.0643
12205TIP3   OH258029   4.532   3.963   2.611  0.5124 -0.2784  0.0309
12205TIP3    H158030   4.485   3.883   2.587  0.8507 -0.7804  1.0409
12205TIP3    H258031   4.489   4.031   2.560 -1.6407 -0.6490  1.2723
12206TIP3   OH258032   2.317   0.333   3.090 -0.1377 -0.2072 -0.3875
12206TIP3    H158033   2.331   0.417   3.134 -1.6194 -0.5160  0.6885
12206TIP3    H258034   2.272   0.356   3.009  2.6615  0.3692 -1.8302
12207TIP3   OH258035   0.343   4.704   4.764 -0.5181  0.0311  0.2046
12207TIP3    H158036   0.336   4.668   4.675  0.1259  3.8429 -1.4759
12207TIP3    H258037   0.257   4.740   4.782 -0.2267  0.5833  0.5109
12208TIP3   OH258038   6.474   6.088   2.531 -0.2075  0.4105 -0.0459
12208TIP3    H158039   6.387   6.049   2.541 -0.5141  1.0601 -0.1614
12208TIP3    H258040   6.458   6.172   2.488  0.5175  0.3574 -0.4206
12209TIP3   OH258041   6.551   2.123  14.408 -0.5954 -0.3298 -0.4296
12209TIP3    H158042   6.477   2.139  14.350 -0.5461 -0.6584 -0.5850
12209TIP3    H258043   6.513   2.121  14.495 -0.2662  3.1922 -0.1116
12210TIP3   OH258044   5.024   4.406   2.066 -0.1161  0.2362  0.2714
12210TIP3    H158045   5.002   4.480   2.122  1.4468  0.6891  0.3013
12210TIP3    H258046   5.112   4.425   2.034 -0.0953 -1.1266 -0.5160
12211TIP3   OH258047   6.172   0.469  15.316 -0.0106  0.0762 -0.3518
12211TIP3    H158048   6.220   0.551  15.317 -0.6455  0.4521 -0.7751
12211TIP3    H258049   6.172   0.442  15.224 -1.7046  0.7217 -0.5428
12212TIP3   OH258050   0.199   0.960   0.489  0.0295 -0.3981  0.0679
12212TIP3    H158051   0.124   0.910   0.523 -0.7601 -0.1430 -1.2707
12212TIP3    H258052   0.173   0.986   0.401 -0.0573  3.3754  1.0994
12213TIP3   OH258053   4.576   6.112   6.350 -0.1413  0.3421  0.0783
12213TIP3    H158054   4.521   6.178   6.393 -0.6310  0.0104 -0.0453
12213TIP3    H258055   4.517   6.039   6.332  0.1101  0.3996 -0.9895
12214TIP3   OH258056   0.084   0.983   4.820 -0.2325  0.1336 -0.9657
12214TIP3    H158057   0.063   0.909   4.764  1.9597 -2.8144  1.9354
12214TIP3    H258058   0.163   1.021   4.781 -1.2406  0.8622 -2.3309
12215TIP3   OH258059   3.478   2.625  15.197 -0.0431  0.0184  0.1891
12215TIP3    H158060   3.392   2.652  15.165  0.1644  0.8240  0.2895
12215TIP3    H258061   3.491   2.676  15.277  0.3783 -0.3612  0.3638
12216TIP3   OH258062   1.477   2.311   2.515 -0.0066  0.1024  0.4671
12216TIP3    H158063   1.491   2.314   2.420 -2.4317 -1.2250  0.0414
12216TIP3    H258064   1.552   2.358   2.551  0.8925  0.7412 -2.1085
12217TIP3   OH258065   1.290   1.396   0.568  0.4629  0.1502 -0.0084
12217TIP3    H158066   1.348   1.471   0.559  0.7301  0.2268  2.0266
12217TIP3    H258067   1.338   1.335   0.624 -0.3088 -0.9528 -0.5252
12218TIP3   OH258068   6.271   6.321   0.704 -0.0330 -0.3603  0.2697
12218TIP3    H158069   6.363   6.337   0.724 -0.2819  1.2208  0.1605
12218TIP3    H258070   6.254   6.233   0.738  1.1186 -0.0657  1.6241
12219TIP3   OH258071   3.589   0.087   5.683 -0.1795  0.6832 -0.4141
12219TIP3    H158072   3.620   0.012   5.632  1.4123  1.4845 -0.6866
12219TIP3    H258073   3.566   0.051   5.768 -0.6777 -0.3169 -0.9656
12220TIP3   OH258074   0.609   5.284   4.152  0.5286  0.9318 -0.0135
12220TIP3    H158075   0.519   5.251   4.155  0.2226  1.5112 -2.1648
12220TIP3    H258076   0.607   5.364   4.205  0.0037  0.4651  0.6844
12221TIP3   OH258077   3.564   3.242   5.984  0.0344  0.3694  0.1971
12221TIP3    H158078   3.488   3.191   6.011 -1.1615  1.3001 -1.2794
12221TIP3    H258079   3.533   3.332   5.980  1.3675  0.8476  0.0831
12222TIP3   OH258080   0.854   4.648   5.551  0.6120  0.4768 -0.1581
12222TIP3    H158081   0.861   4.657   5.456  0.1094 -1.1861 -0.3662
12222TIP3    H258082   0.762   4.625   5.566  0.9864 -0.5394  0.6246
12223TIP3   OH258083   6.597   0.277   1.400 -0.0937  0.3329  0.5787
12223TIP3    H158084   6.604   0.209   1.333 -1.1889 -0.2695  1.0657
12223TIP3    H258085   6.573   0.356   1.352 -2.0516 -0.3557  0.3909
12224TIP3   OH258086   3.593   0.757  11.324 -0.1042  0.1740 -0.3092
12224TIP3    H158087   3.534   0.791  11.392  0.1496  0.1318 -0.0671
12224TIP3    H258088   3.618   0.670  11.356  1.6887  0.9893  0.5678
12225TIP3   OH258089   6.348   4.120  12.557 -0.6504 -0.2758  0.5090
12225TIP3    H158090   6.273   4.179  12.569 -0.0423  0.4432  0.8294
12225TIP3    H258091   6.419   4.162  12.605 -0.1604 -1.1932  0.6008
12226TIP3   OH258092   2.544   1.638   2.233 -0.6533 -0.3189 -0.3003
12226TIP3    H158093   2.635   1.613   2.253 -0.1027  2.7209  1.3270
12226TIP3    H258094   2.491   1.588   2.296  0.0919 -0.1344  0.4790
12227TIP3   OH258095   3.880   3.799   3.661 -0.2287 -0.2260 -0.3523
12227TIP3    H158096   3.898   3.832   3.573 -4.1424  0.7889 -0.8481
12227TIP3    H258097   3.901   3.872   3.719 -0.8313  0.2266 -0.7110
12228TIP3   OH258098   1.512   4.746   2.770  1.1872 -0.2081 -0.3818
12228TIP3    H158099   1.492   4.726   2.678 -2.4299  1.0827  0.0622
12228TIP3    H258100   1.607   4.734   2.776  1.4832 -0.6292 -4.2094
12229TIP3   OH258101   3.847   1.198  17.095  0.1895  0.4326 -0.1649
12229TIP3    H158102   3.816   1.109  17.081  0.3759  0.1786  0.9711
12229TIP3    H258103   3.922   1.208  17.037  1.6875 -0.9794  1.4611
12230TIP3   OH258104   5.921   4.949   5.793  0.2145  0.1321 -0.3989
12230TIP3    H158105   5.948   4.887   5.861  0.5557 -1.1038 -1.6510
12230TIP3    H258106   5.854   4.902   5.743  0.8659  0.5689 -1.6950
12231TIP3   OH258107   6.265   3.183   4.392  0.1136  0.0422  0.0053
12231TIP3    H158108   6.174   3.194   4.419 -0.3277 -1.3966 -0.8336
12231TIP3    H258109   6.260   3.139   4.307  1.6152 -1.1501  0.5065
12232TIP3   OH258110   5.229   3.154  15.398  0.9811  0.3911  0.2049
12232TIP3    H158111   5.324   3.151  15.390  0.9768  1.2139 -0.2324
12232TIP3    H258112   5.213   3.191  15.485  1.0551  0.6540  0.1043
12233TIP3   OH258113   4.012   2.436   4.271  1.0508 -0.3025 -0.1851
12233TIP3    H158114   4.045   2.389   4.194  0.1157 -0.2496 -0.6193
12233TIP3    H258115   3.960   2.372   4.318  0.6866 -0.0130 -0.1934
12234TIP3   OH258116   3.792   0.095   2.444  0.3512 -0.8478  0.5027
12234TIP3    H158117   3.796   0.054   2.530  1.5000  1.0845  1.4029
12234TIP3    H258118   3.776   0.188   2.463  2.1692 -0.1392 -1.3002
12235TIP3   OH258119   2.495   0.339  13.467 -0.6298  0.0923  0.0736
12235TIP3    H158120   2.459   0.307  13.550 -0.2500 -0.9950 -0.1698
12235TIP3    H258121   2.555   0.270  13.439  0.1367  0.9837 -0.5267
12236TIP3   OH258122   1.340   5.567   1.988 -0.2089  0.5706 -0.7243
12236TIP3    H158123   1.418   5.582   1.935  0.0153  0.4705 -0.4214
12236TIP3    H258124   1.267   5.575   1.926  0.0086  1.1971 -0.9007
12237TIP3   OH258125   0.249   5.196   2.688  0.0382 -0.1208 -0.3052
12237TIP3    H158126   0.308   5.122   2.705  1.2822  0.7589 -0.6528
12237TIP3    H258127   0.235   5.236   2.774 -1.9382 -1.6979  0.1228
12238TIP3   OH258128   3.589   4.373   3.975  0.5566  0.7134 -0.0266
12238TIP3    H158129   3.572   4.369   3.881 -2.1749 -2.3958  0.5180
12238TIP3    H258130   3.564   4.287   4.008 -0.1884  2.3000  3.8174
12239TIP3   OH258131   2.526   1.926  16.130 -0.1319  0.7350  0.5360
12239TIP3    H158132   2.582   1.856  16.096  0.9156  1.7559  0.1408
12239TIP3    H258133   2.474   1.884  16.199  2.4879  0.1983  2.2420
12240TIP3   OH258134   5.188   2.287   3.781 -0.0876  0.1443 -0.0077
12240TIP3    H158135   5.159   2.378   3.794  0.0404  0.1103  0.5181
12240TIP3    H258136   5.124   2.234   3.828  0.2371  0.0060  0.2820
12241TIP3   OH258137   6.268   5.235   0.800 -0.2466 -0.0073  0.0905
12241TIP3    H158138   6.302   5.323   0.785 -1.6747  0.5396 -0.0190
12241TIP3    H258139   6.296   5.185   0.723 -1.1405  0.8753 -0.8271
12242TIP3   OH258140   6.371   5.870  11.662 -0.1835  0.1912 -0.3011
12242TIP3    H158141   6.462   5.850  11.639 -0.2593 -1.3897  0.6876
12242TIP3    H258142   6.320   5.840  11.586 -0.1217 -1.6515  0.3656
12243TIP3   OH258143   1.983   5.825   2.767  0.7969  0.1834  0.1204
12243TIP3    H158144   2.072   5.859   2.780  0.6073  0.4485  0.7594
12243TIP3    H258145   1.984   5.786   2.680  1.0430  1.8008 -0.6160
12244TIP3   OH258146   6.458   0.314   3.386  0.0261  0.4502  0.3026
12244TIP3    H158147   6.523   0.244   3.389  0.5003  0.8789  0.0169
12244TIP3    H258148   6.502   0.390   3.424 -0.9813  0.2027  2.0654
12245TIP3   OH258149   5.752   0.015  11.709  0.7741  0.4251  0.0133
12245TIP3    H158150   5.687  -0.014  11.644  0.7661  0.5621 -0.0393
12245TIP3    H258151   5.836  -0.008  11.670  0.6645 -3.1388  1.6990
12246TIP3   OH258152   3.856   5.161  15.181  0.4560  0.1851 -0.6533
12246TIP3    H158153   3.788   5.095  15.191  0.9479 -0.1459  0.5904
12246TIP3    H258154   3.934   5.113  15.153  1.1978  0.0047  1.6022
12247TIP3   OH258155   1.301   6.644  14.373 -0.5741 -0.2109 -0.3114
12247TIP3    H158156   1.219   6.665  14.328 -1.2499 -0.3807  0.8255
12247TIP3    H258157   1.281   6.564  14.423 -0.0274  0.3303  0.7861
12248TIP3   OH258158   1.382   2.121  13.279 -0.2076 -0.2743 -0.1801
12248TIP3    H158159   1.343   2.036  13.260  1.0193 -1.0467  0.7262
12248TIP3    H258160   1.432   2.108  13.359  0.3062  1.2067 -0.2382
12249TIP3   OH258161   5.003   0.972   3.754 -0.6558  0.2230  0.1091
12249TIP3    H158162   4.985   1.023   3.676  0.1466  0.3686  0.0093
12249TIP3    H258163   5.042   0.891   3.721  1.3263  1.0135  0.4256
12250TIP3   OH258164   3.214   3.173   5.114  0.0421  0.1859 -0.1087
12250TIP3    H158165   3.134   3.121   5.121  1.2412 -1.5821  1.0213
12250TIP3    H258166   3.212   3.232   5.189 -0.1242  0.0082  0.0270
12251TIP3   OH258167   6.466   2.658   2.470 -0.0348 -0.1451  0.7448
12251TIP3    H158168   6.404   2.586   2.480  0.2023 -0.4090  0.3169
12251TIP3    H258169   6.538   2.621   2.420 -0.6887  0.8336 -0.9978
12252TIP3   OH258170   5.803   0.306   2.558  0.0881 -0.0943 -0.1558
12252TIP3    H158171   5.869   0.295   2.490 -0.0493 -1.5630 -0.0609
12252TIP3    H258172   5.783   0.400   2.557  2.3070  0.4171 -0.0584
12253TIP3   OH258173   1.612   4.165  10.951  0.2707 -0.0986  0.2044
12253TIP3    H158174   1.537   4.108  10.934  0.4392  0.0571 -1.0916
12253TIP3    H258175   1.688   4.110  10.931  0.4286  0.7089 -1.5050
12254TIP3   OH258176   5.768   3.240  13.522  0.2478  0.1367  0.5313
12254TIP3    H158177   5.685   3.279  13.493  0.4059 -0.6808 -1.1188
12254TIP3    H258178   5.835   3.294  13.481  0.4750 -1.2478 -1.0080
12255TIP3   OH258179   1.010   5.031   5.287  0.2866  0.0774 -0.3757
12255TIP3    H158180   0.978   5.122   5.283 -0.1005 -0.0591 -0.4807
12255TIP3    H258181   1.080   5.028   5.222  2.0928  0.9828  1.5101
12256TIP3   OH258182   6.456   3.511   6.430 -0.1807 -0.6678 -0.3292
12256TIP3    H158183   6.515   3.451   6.475  0.0243 -1.6307 -1.8701
12256TIP3    H258184   6.400   3.546   6.500  0.2900 -1.9569  0.7078
12257TIP3   OH258185   5.612   5.820  17.167  0.3713  0.6398 -0.2638
12257TIP3    H158186   5.635   5.883  17.237  0.9491 -0.3932  0.4882
12257TIP3    H258187   5.545   5.865  17.116  0.4834  1.7211  0.5123
12258TIP3   OH258188   3.924   5.640  16.189 -0.1480 -0.6396 -0.1009
12258TIP3    H158189   3.859   5.571  16.180  2.0810 -2.9969  1.1702
12258TIP3    H258190   3.894   5.692  16.264 -1.5333 -0.5412 -0.7092
12259TIP3   OH258191   4.409   3.479  17.086 -0.0137 -0.2783  0.1997
12259TIP3    H158192   4.365   3.506  17.166  0.6988  0.8692  0.2147
12259TIP3    H258193   4.344   3.491  17.017 -0.2438 -0.1399  0.4439
12260TIP3   OH258194   2.735   1.516  15.153  0.5995  0.1020  0.2598
12260TIP3    H158195   2.653   1.528  15.106  1.4400  1.1956 -0.9783
12260TIP3    H258196   2.723   1.436  15.204 -1.7251  0.9966  1.1756
12261TIP3   OH258197   3.112   5.907  16.858 -0.2998 -0.1174 -0.3834
12261TIP3    H158198   3.099   5.941  16.770 -2.0915 -0.5846 -0.3101
12261TIP3    H258199   3.024   5.893  16.892  0.3681 -2.3510  0.5397
12262TIP3   OH258200   4.063   4.914  15.290  0.1156  0.0011  0.0386
12262TIP3    H158201   4.026   4.897  15.377  1.6413  0.6059  0.8255
12262TIP3    H258202   4.118   4.838  15.272  0.8003  0.4602  0.1667
12263TIP3   OH258203   3.861   6.518  12.947  0.2974  0.7351  0.1971
12263TIP3    H158204   3.905   6.484  13.025 -0.4027 -0.3056  0.1417
12263TIP3    H258205   3.931   6.529  12.883  0.4153 -1.4823 -0.0836
12264TIP3   OH258206   6.366   0.860   5.997  0.6374 -0.1443  0.0317
12264TIP3    H158207   6.330   0.908   6.072 -0.7329 -0.7005 -0.2583
12264TIP3    H258208   6.422   0.793   6.037  1.0905  0.5040  0.5022
12265TIP3   OH258209   4.382   1.930  11.128  0.5201 -0.1618 -0.3545
12265TIP3    H158210   4.311   1.874  11.096  0.7735 -0.8957  0.3680
12265TIP3    H258211   4.424   1.963  11.048 -0.6662  0.3201 -0.7826
12266TIP3   OH258212   0.898   3.853   5.392 -0.0820 -0.6464  0.2545
12266TIP3    H158213   0.826   3.834   5.453 -0.5564 -0.0200 -0.1001
12266TIP3    H258214   0.854   3.877   5.310  0.4778  1.8396  0.6553
12267TIP3   OH258215   1.020   4.638  10.580 -0.0108  0.5130 -0.0662
12267TIP3    H158216   0.969   4.644  10.499  2.6468 -0.7011 -1.9137
12267TIP3    H258217   0.976   4.697  10.640 -2.5618  0.8162 -2.1214
12268TIP3   OH258218   0.303   5.943  11.836 -0.1150 -0.2500 -0.2682
12268TIP3    H158219   0.385   5.902  11.807  0.2504  0.2739  0.0091
12268TIP3    H258220   0.271   5.990  11.759  1.5862  2.3119  0.5324
12269TIP3   OH258221   6.192   5.158  17.175  0.0227 -0.0222  0.7209
12269TIP3    H158222   6.223   5.203  17.254  0.5223  1.5990 -0.3620
12269TIP3    H258223   6.158   5.228  17.120 -2.2372 -1.3743  0.3423
12270TIP3   OH258224   2.771   4.718   3.616  0.2395 -0.0977 -0.1440
12270TIP3    H158225   2.708   4.789   3.607 -0.2842 -0.5509 -0.0714
12270TIP3    H258226   2.724   4.650   3.663  1.0349 -0.1315  0.6292
12271TIP3   OH258227   6.004   3.010  13.050  0.1465 -0.1534  0.1348
12271TIP3    H158228   6.018   3.103  13.066 -1.1896  0.6754 -3.1530
12271TIP3    H258229   6.085   2.979  13.011  0.2117 -0.1213  0.2450
12272TIP3   OH258230   3.357   5.300  16.858 -0.0166  0.5537 -0.0638
12272TIP3    H158231   3.388   5.357  16.787 -0.3780  0.3427 -0.3957
12272TIP3    H258232   3.434   5.251  16.885 -0.0649  0.0152 -0.8951
12273TIP3   OH258233   5.558   2.750  13.300  0.3135  0.2597  0.2005
12273TIP3    H158234   5.541   2.664  13.339  0.3921 -0.6431 -1.6808
12273TIP3    H258235   5.654   2.758  13.301  0.2562  0.8297  1.4138
12274TIP3   OH258236   1.436   6.593   2.794 -0.0293  0.1614  0.5743
12274TIP3    H158237   1.389   6.592   2.877  1.6009 -2.6647  1.5308
12274TIP3    H258238   1.463   6.502   2.779  2.7323  1.1788 -1.2714
12275TIP3   OH258239   4.033   2.364   4.022  0.3902 -0.2229  0.2077
12275TIP3    H158240   4.086   2.373   3.942  1.1731 -0.2231  0.7228
12275TIP3    H258241   3.943   2.359   3.990  0.7350 -0.7530 -0.7181
12276TIP3   OH258242   3.826   4.910   3.658  0.3715 -0.5657 -0.3438
12276TIP3    H158243   3.915   4.917   3.690  0.6404  1.5154 -1.4366
12276TIP3    H258244   3.773   4.956   3.723  0.3530 -0.1471 -0.6514
12277TIP3   OH258245   2.170   6.049  13.139 -0.4363 -0.1371 -0.4085
12277TIP3    H158246   2.235   6.083  13.201 -0.7451  1.0772 -0.7294
12277TIP3    H258247   2.192   5.957  13.129 -0.0041 -0.2053  1.0330
12278TIP3   OH258248   6.026   6.265  15.520 -0.1275  0.4554 -0.2668
12278TIP3    H158249   6.005   6.347  15.565 -0.7954  0.4369 -0.5309
12278TIP3    H258250   6.085   6.219  15.580 -0.1777  0.8939  0.1213
12279TIP3   OH258251   5.055   5.155   2.845 -0.3886  0.5937  0.5063
12279TIP3    H158252   5.071   5.220   2.912 -0.3620  0.3392  0.7480
12279TIP3    H258253   5.012   5.083   2.890 -1.4075  0.8945  0.0302
12280TIP3   OH258254   5.537   4.221   4.354 -0.0068 -0.3127 -0.1409
12280TIP3    H158255   5.544   4.240   4.447  0.6003 -2.1037  0.2124
12280TIP3    H258256   5.466   4.156   4.348 -1.3340  1.1939 -1.1579
12281TIP3   OH258257   3.521   4.864   0.865 -0.3403 -0.3448  0.2200
12281TIP3    H158258   3.562   4.920   0.799  0.6796  0.0661  1.1733
12281TIP3    H258259   3.435   4.844   0.830 -0.2443  0.8209 -0.7099
12282TIP3   OH258260   1.697   0.830   3.983  0.1667  0.2178  0.0748
12282TIP3    H158261   1.730   0.746   4.014 -0.2588 -0.1598 -0.5040
12282TIP3    H258262   1.747   0.895   4.033  0.6732 -0.3723  0.3371
12283TIP3   OH258263   6.755   0.358   2.520  0.1246  0.1324  0.0806
12283TIP3    H158264   6.685   0.293   2.516  0.7052 -0.4579 -0.6642
12283TIP3    H258265   6.835   0.306   2.535  0.2332  0.9104  2.4292
12284TIP3   OH258266   0.734   2.353   1.273 -0.3995 -0.3163  0.0283
12284TIP3    H158267   0.764   2.385   1.358  1.1288 -0.2345 -0.5357
12284TIP3    H258268   0.658   2.299   1.294 -0.1432 -0.1630  1.4277
12285TIP3   OH258269   4.739   6.329   0.079  0.6080 -0.0054  0.7883
12285TIP3    H158270   4.834   6.328   0.070  0.8908 -0.2099  3.3841
12285TIP3    H258271   4.722   6.394   0.147 -1.3081  1.6627 -1.1877
12286TIP3   OH258272   1.010   6.456  11.885  0.4030 -0.0259  0.1446
12286TIP3    H158273   1.010   6.415  11.972 -0.5740 -1.2251 -0.3982
12286TIP3    H258274   0.917   6.466  11.863  0.6315 -0.7226 -1.2022
12287TIP3   OH258275   2.610   1.020   5.809  0.0704  0.3428 -0.5972
12287TIP3    H158276   2.545   1.083   5.841  0.8516  1.0506 -0.3657
12287TIP3    H258277   2.568   0.935   5.816 -0.4832  0.7023  0.4506
12288TIP3   OH258278   4.559   0.521  11.558  0.3907  0.0844 -0.9925
12288TIP3    H158279   4.575   0.443  11.612 -0.2994 -0.1918 -1.1790
12288TIP3    H258280   4.477   0.502  11.513  0.2954  0.8669 -1.1493
12289TIP3   OH258281   3.499   3.188  13.808  0.2199  0.0402 -0.2887
12289TIP3    H158282   3.516   3.114  13.867 -0.2226  0.4473  0.3513
12289TIP3    H258283   3.461   3.148  13.730  3.6042 -0.8445 -1.5598
12290TIP3   OH258284   4.148   1.933   1.241 -0.3319 -0.3266  0.0035
12290TIP3    H158285   4.149   1.840   1.216  0.1448 -0.6520  1.2242
12290TIP3    H258286   4.085   1.938   1.312 -0.3693  0.2917 -0.0736
12291TIP3   OH258287   5.986   6.627  16.791 -0.1075 -0.3476  0.3871
12291TIP3    H158288   6.048   6.660  16.856 -0.3006  0.5243  0.1483
12291TIP3    H258289   5.901   6.633  16.834 -0.0634 -1.2593  0.6071
12292TIP3   OH258290   4.707   4.301   1.854  0.0954 -0.2362  0.3507
12292TIP3    H158291   4.639   4.323   1.790  1.1362 -1.0596 -1.0443
12292TIP3    H258292   4.682   4.214   1.887  2.7823 -2.5704 -3.4009
12293TIP3   OH258293   0.961   6.263   3.392  0.0278 -0.6337  0.6475
12293TIP3    H158294   0.990   6.338   3.340 -3.0657 -0.0528 -0.3159
12293TIP3    H258295   0.974   6.187   3.335  0.8750 -0.5615  0.7338
12294TIP3   OH258296   6.702   3.005   3.523  0.0355  0.2161  0.4846
12294TIP3    H158297   6.673   3.049   3.444 -0.5289  2.7824  2.0629
12294TIP3    H258298   6.734   3.075   3.580  1.5595 -1.6853  2.0666
12295TIP3   OH258299   0.718   6.526  13.009  1.1742 -0.3540 -0.3827
12295TIP3    H158300   0.671   6.444  13.024  1.2254 -0.0477  1.6449
12295TIP3    H258301   0.650   6.592  13.000  1.1462 -0.5187 -1.4317
12296TIP3   OH258302   3.919   0.682   1.043  0.1548  0.4725 -0.7420
12296TIP3    H158303   3.952   0.665   1.132 -0.5981  0.4559 -0.4618
12296TIP3    H258304   3.986   0.645   0.985  1.7723  2.4316 -0.2238
12297TIP3   OH258305   5.569   2.682   4.821 -0.2821 -0.3628 -0.1678
12297TIP3    H158306   5.524   2.723   4.894  2.9912 -0.0197  1.7449
12297TIP3    H258307   5.651   2.649   4.858  0.4435 -2.1995 -3.2019
12298TIP3   OH258308   4.223   6.641  14.979 -0.4419  0.7682  0.6639
12298TIP3    H158309   4.175   6.584  15.038  1.3166 -0.2715  1.1000
12298TIP3    H258310   4.307   6.656  15.022  0.4871  0.7883 -1.1180
12299TIP3   OH258311   1.565   1.968  13.418  0.2271  0.4573 -0.0785
12299TIP3    H158312   1.574   2.044  13.476  0.5484  0.7308 -0.4882
12299TIP3    H258313   1.581   1.893  13.475  0.5324  0.7252  0.1941
12300TIP3   OH258314   4.848   3.975  12.505  0.3189  0.4302 -0.2953
12300TIP3    H158315   4.931   3.943  12.542 -0.4248  0.3686  1.3647
12300TIP3    H258316   4.809   3.899  12.464 -0.0094 -0.1118  0.9851
12301TIP3   OH258317   4.513   0.385  14.802 -0.0816  0.2321  0.3687
12301TIP3    H158318   4.560   0.303  14.798  0.1355  0.3712  0.0574
12301TIP3    H258319   4.480   0.398  14.713  0.7196  0.9734  0.1778
12302TIP3   OH258320   4.600   6.469  14.216 -0.4383  0.4278 -0.4681
12302TIP3    H158321   4.642   6.426  14.142 -1.2294  0.1743 -0.7776
12302TIP3    H258322   4.593   6.561  14.191  1.7066  0.8508  0.3994
12303TIP3   OH258323   0.899   6.512  12.395  0.0172 -0.3122 -0.4068
12303TIP3    H158324   0.977   6.545  12.438  0.4766 -0.2164 -1.3027
12303TIP3    H258325   0.920   6.514  12.302 -0.9212 -0.6203 -0.6333
12304TIP3   OH258326   1.684   3.532  12.829 -0.2132 -0.0874  0.5309
12304TIP3    H158327   1.711   3.622  12.850  1.3087 -0.8256  1.8547
12304TIP3    H258328   1.694   3.484  12.912 -1.7423 -1.3069  0.0201
12305TIP3   OH258329   3.943   3.481   0.364 -0.1759 -0.4608 -0.6525
12305TIP3    H158330   3.938   3.405   0.305 -1.2931  0.5630 -1.9160
12305TIP3    H258331   3.941   3.556   0.305 -0.8307  0.5810  0.6907
12306TIP3   OH258332   3.789   1.085   1.905 -0.8263 -0.4085 -0.4328
12306TIP3    H158333   3.697   1.106   1.891 -1.2523  1.0647  3.8472
12306TIP3    H258334   3.789   0.994   1.935 -0.6664 -1.0266 -2.2588
12307TIP3   OH258335   5.217   2.764   4.383 -0.4359  0.0360 -0.4545
12307TIP3    H158336   5.147   2.701   4.403  2.2576 -3.4356 -1.5136
12307TIP3    H258337   5.292   2.734   4.434  0.9173  2.4370 -0.9620
12308TIP3   OH258338   4.403   3.011  16.863 -0.8418  0.2627  0.1555
12308TIP3    H158339   4.491   3.029  16.829 -0.6706 -0.0895  0.4142
12308TIP3    H258340   4.396   3.066  16.940 -0.6207 -0.1622  0.4811
12309TIP3   OH258341   4.914   4.282   0.890  0.4458 -0.1501  0.6322
12309TIP3    H158342   4.856   4.249   0.958 -1.5023  0.7710 -0.5330
12309TIP3    H258343   4.865   4.353   0.849  2.6326  1.0218 -0.0270
12310TIP3   OH258344   2.275   0.280  16.536  0.0837  0.1308 -0.4250
12310TIP3    H158345   2.257   0.359  16.487  0.2920 -0.7670 -1.9899
12310TIP3    H258346   2.248   0.300  16.626 -2.7649  0.9132 -1.4033
12311TIP3   OH258347   0.672   0.679   3.733  0.0289 -0.2176  0.3038
12311TIP3    H158348   0.649   0.752   3.677 -2.2636 -1.0503  0.1281
12311TIP3    H258349   0.666   0.714   3.822  2.4830  0.7642  0.1318
12312TIP3   OH258350   3.024   6.114   0.934  0.3633  0.1551 -0.2808
12312TIP3    H158351   2.949   6.111   0.875 -0.7624  0.3393  1.1282
12312TIP3    H258352   2.986   6.111   1.022  2.0218 -0.1474  0.4421
12313TIP3   OH258353   2.160   2.977  14.404  0.0573 -0.2547 -0.6233
12313TIP3    H158354   2.221   3.048  14.387  0.7680 -1.0836 -1.5710
12313TIP3    H258355   2.076   3.009  14.372  0.4693 -0.0334 -1.4823
12314TIP3   OH258356   6.460   6.010  16.446  0.1500  0.0275 -0.2424
12314TIP3    H158357   6.485   5.967  16.365 -0.8945  2.2581 -1.8015
12314TIP3    H258358   6.365   6.001  16.450 -0.1593  2.5616 -0.8721
12315TIP3   OH258359   5.082   2.391   5.332 -0.1194  0.0937  0.1599
12315TIP3    H158360   4.999   2.433   5.355  0.4063  2.1456 -1.5441
12315TIP3    H258361   5.057   2.316   5.278 -0.8639  1.0505 -0.8558
12316TIP3   OH258362   4.653   2.586   1.351  0.5238 -0.4348 -0.1609
12316TIP3    H158363   4.587   2.606   1.285  0.7268 -1.9321 -0.8457
12316TIP3    H258364   4.610   2.606   1.434  0.1373  1.1099 -0.7141
12317TIP3   OH258365   3.881   3.874   3.393  0.0577 -0.3426 -0.6235
12317TIP3    H158366   3.788   3.853   3.406  0.5093 -1.5727  0.8142
12317TIP3    H258367   3.882   3.931   3.316 -2.2390  2.5033  1.3097
12318TIP3   OH258368   4.104   2.316  12.855 -0.2971  0.3061 -0.0100
12318TIP3    H158369   4.173   2.346  12.797  0.2845  1.1986  1.1268
12318TIP3    H258370   4.038   2.277  12.796  0.5284  0.6908 -1.1982
12319TIP3   OH258371   2.600   2.646   2.477 -0.7303  0.4917 -0.1778
12319TIP3    H158372   2.618   2.552   2.477 -0.5426  0.5029  1.4030
12319TIP3    H258373   2.680   2.685   2.441 -0.3595  0.1097  0.2113
12320TIP3   OH258374   5.795   6.557   6.101  0.1696 -0.2364  0.2281
12320TIP3    H158375   5.785   6.504   6.181 -0.5699 -2.3743 -1.2304
12320TIP3    H258376   5.879   6.602   6.113 -0.5516  0.4904  2.7734
12321TIP3   OH258377   4.640   4.533  17.121  0.1943 -0.1399  0.2313
12321TIP3    H158378   4.707   4.552  17.187  2.5277  1.0737 -2.3740
12321TIP3    H258379   4.607   4.619  17.095  0.4983 -0.4954 -1.3758
12322TIP3   OH258380   3.160   0.974  12.743 -0.2848 -0.3590  0.2340
12322TIP3    H158381   3.075   0.986  12.786 -0.9186  3.9683 -1.8813
12322TIP3    H258382   3.139   0.928  12.662 -0.5881  0.2748 -0.0554
12323TIP3   OH258383   6.126   3.132  14.814 -0.0533 -0.7324  0.5108
12323TIP3    H158384   6.175   3.074  14.756 -0.1191 -1.8455  1.5170
12323TIP3    H258385   6.047   3.081  14.836 -1.8371  1.1490 -1.3329
12324TIP3   OH258386   2.662   1.938  10.727 -0.6007 -0.6834  0.6205
12324TIP3    H158387   2.686   1.991  10.803  1.8744  2.3593 -2.1053
12324TIP3    H258388   2.578   1.975  10.698  0.6355  1.1869 -0.6881
12325TIP3   OH258389   1.959   6.322   3.622  0.7474  0.3047 -0.5323
12325TIP3    H158390   2.045   6.362   3.607  0.3895  0.2789 -2.9156
12325TIP3    H258391   1.897   6.391   3.598  0.0558  0.7858  2.4751
12326TIP3   OH258392   5.578   3.583   1.653  0.1103 -0.0141  0.0547
12326TIP3    H158393   5.623   3.667   1.640  1.2007 -0.5681  0.2422
12326TIP3    H258394   5.642   3.528   1.698 -0.7476 -0.8209  0.3031
12327TIP3   OH258395   3.279   2.596   0.732  0.3997  0.2593  0.3632
12327TIP3    H158396   3.336   2.657   0.686  0.5367  0.8801  1.3314
12327TIP3    H258397   3.329   2.515   0.737  1.3760  0.9207  1.5658
12328TIP3   OH258398   1.518   6.493  11.861  0.0591  0.0595  0.5816
12328TIP3    H158399   1.520   6.563  11.796  1.4199 -0.2067  0.3157
12328TIP3    H258400   1.443   6.514  11.917 -0.2010  1.1221 -0.1557
12329TIP3   OH258401   6.587   0.263   1.051  0.2678  0.1873 -0.0775
12329TIP3    H158402   6.550   0.177   1.071  1.6159 -0.4602 -0.3095
12329TIP3    H258403   6.631   0.252   0.967  0.7246  1.0225  0.0439
12330TIP3   OH258404   2.785   3.482   0.283  0.2471 -0.1509  0.4162
12330TIP3    H158405   2.690   3.478   0.271  0.2855  1.8331 -0.7889
12330TIP3    H258406   2.797   3.535   0.361  0.3724  0.2161  0.1495
12331TIP3   OH258407   1.901   5.874  14.743 -0.0677 -0.3283 -0.0401
12331TIP3    H158408   1.889   5.949  14.800  0.2700 -0.7201  0.5476
12331TIP3    H258409   1.896   5.910  14.654 -1.6469  0.1093  0.2141
12332TIP3   OH258410   4.505   5.761  11.155  0.1981  0.0120 -0.0092
12332TIP3    H158411   4.572   5.736  11.091 -1.3286  0.3026 -1.7736
12332TIP3    H258412   4.439   5.692  11.149 -1.1686  1.3377 -0.5893
12333TIP3   OH258413   3.993   2.708  11.264  0.2852  0.3066  0.4374
12333TIP3    H158414   3.982   2.726  11.170  0.0980  2.5635  0.8527
12333TIP3    H258415   4.087   2.691  11.274  0.2036 -0.6096 -0.2466
12334TIP3   OH258416   0.591   3.330  13.322  0.7120 -0.0722  0.1410
12334TIP3    H158417   0.563   3.361  13.236 -1.4058 -1.7710  0.1858
12334TIP3    H258418   0.626   3.243  13.305 -0.8897 -0.9361  1.1558
12335TIP3   OH258419   4.830   0.686  12.917 -0.3691  0.3652  0.0888
12335TIP3    H158420   4.857   0.701  13.007 -1.3349  0.5188  0.3644
12335TIP3    H258421   4.855   0.596  12.898 -1.5708 -0.1864  1.0443
12336TIP3   OH258422   3.795   0.814   4.200 -0.2944  0.1319  0.2702
12336TIP3    H158423   3.867   0.751   4.205 -0.2644  0.1771  0.4165
12336TIP3    H258424   3.732   0.783   4.265 -1.0689 -0.7351 -0.8777
12337TIP3   OH258425   3.016   1.926   3.374 -0.4783 -0.5659 -0.3624
12337TIP3    H158426   2.982   1.879   3.298  1.6704 -3.2089  0.2020
12337TIP3    H258427   2.944   1.982   3.402 -1.9099 -0.8566 -3.2627
12338TIP3   OH258428   5.827   2.681   1.166  0.0442  0.3243 -0.2242
12338TIP3    H158429   5.898   2.691   1.104 -0.5244 -0.5679 -1.0223
12338TIP3    H258430   5.849   2.742   1.237  0.2517  1.9875 -1.6805
12339TIP3   OH258431   4.545   4.706  13.959  0.4789  0.1528 -0.0895
12339TIP3    H158432   4.639   4.719  13.949  0.2406  1.1874 -1.0326
12339TIP3    H258433   4.533   4.611  13.951  1.2348  0.1823 -1.7408
12340TIP3   OH258434   6.088   6.325  12.961  0.2859  0.3972  0.0437
12340TIP3    H158435   6.110   6.323  13.054 -0.5251 -0.6101  0.2213
12340TIP3    H258436   6.076   6.418  12.941 -2.3506  0.4331  1.6196
12341TIP3   OH258437   4.701   5.653   1.281  0.2039 -0.2251  0.0587
12341TIP3    H158438   4.616   5.697   1.276  0.0472 -0.5068  0.2592
12341TIP3    H258439   4.753   5.707   1.340  0.2630  0.1123 -0.3027
12342TIP3   OH258440   0.040   2.678   4.687 -0.3640  0.4908  0.3618
12342TIP3    H158441  -0.007   2.673   4.770  1.5997  0.3549  1.4952
12342TIP3    H258442   0.052   2.587   4.661 -0.8809  0.5301 -0.0191
12343TIP3   OH258443   4.249   1.615   4.624 -0.5210 -0.1042  0.6774
12343TIP3    H158444   4.303   1.653   4.692  1.0187 -1.3313  0.1536
12343TIP3    H258445   4.192   1.553   4.670 -0.8627  0.5110  1.0957
12344TIP3   OH258446   6.773   2.363  15.050 -0.1796  0.1741 -0.2732
12344TIP3    H158447   6.799   2.355  15.142 -1.1227 -0.9177 -0.0987
12344TIP3    H258448   6.837   2.310  15.002 -0.2815 -0.0605 -0.1483
12345TIP3   OH258449   3.590   6.193   3.264 -0.2013 -0.2875 -0.2249
12345TIP3    H158450   3.673   6.237   3.281  1.4128 -2.1369 -2.9418
12345TIP3    H258451   3.579   6.133   3.338 -0.0608  1.2330  1.0644
12346TIP3   OH258452   1.738   1.936   1.710 -0.3296  0.0999 -0.2482
12346TIP3    H158453   1.830   1.909   1.707 -0.3704 -0.1130  0.3980
12346TIP3    H258454   1.715   1.950   1.618  0.0301 -0.9432 -0.5068
12347TIP3   OH258455   0.540   0.847  12.374  0.0556  0.0364  0.1403
12347TIP3    H158456   0.555   0.843  12.279 -0.1443 -0.4084  0.1250
12347TIP3    H258457   0.531   0.755  12.401  1.1130  0.1093  0.7536
12348TIP3   OH258458   0.682   1.918   0.598  0.1058 -0.0122 -0.6777
12348TIP3    H158459   0.587   1.928   0.596  0.2364  1.0838 -2.4487
12348TIP3    H258460   0.708   1.947   0.686 -0.9345  2.3043 -1.1052
12349TIP3   OH258461   5.205   0.110  17.140 -0.5397  0.2953 -0.3750
12349TIP3    H158462   5.175   0.183  17.195 -1.2659  0.7020 -1.3111
12349TIP3    H258463   5.301   0.119  17.138 -0.7059  1.9489 -1.4944
12350TIP3   OH258464   5.605   2.429   0.807  0.0558 -0.3337  0.3641
12350TIP3    H158465   5.581   2.336   0.812  0.7103 -0.5862 -0.8824
12350TIP3    H258466   5.689   2.435   0.851 -0.4402 -0.1547  1.2932
12351TIP3   OH258467   3.068   1.552   2.909 -0.2741 -0.4057 -0.9214
12351TIP3    H158468   3.119   1.489   2.961 -0.6882 -0.2948 -0.3754
12351TIP3    H258469   2.980   1.550   2.948  0.0298  1.4335 -0.0792
12352TIP3   OH258470   5.125   0.151   5.770 -0.2168 -0.1199 -0.2608
12352TIP3    H158471   5.204   0.180   5.817 -1.4066  1.9792  0.5198
12352TIP3    H258472   5.107   0.064   5.805  0.2147  0.4935  1.5798
12353TIP3   OH258473   2.948   2.404   2.848 -0.3937  0.8514  0.6938
12353TIP3    H158474   2.956   2.499   2.858  2.1590  0.5671  1.7445
12353TIP3    H258475   2.911   2.392   2.760  0.1428  2.8055  0.1723
12354TIP3   OH258476   4.851   3.311   0.451 -0.3464  0.4132 -0.1381
12354TIP3    H158477   4.797   3.391   0.445 -1.0575 -0.1126 -0.8022
12354TIP3    H258478   4.835   3.265   0.369  0.8841  0.0870 -0.2038
12355TIP3   OH258479   1.000   5.371   2.608 -0.6432  0.4604 -0.1220
12355TIP3    H158480   0.993   5.391   2.514  1.1568  2.3069  0.1041
12355TIP3    H258481   1.093   5.376   2.627 -0.9995  0.1456  1.7947
12356TIP3   OH258482   1.517   1.011  11.182  0.3050 -0.1393  0.6895
12356TIP3    H158483   1.610   1.023  11.164 -0.4320  3.1052 -1.3350
12356TIP3    H258484   1.508   1.032  11.275  1.5026  0.0971  0.7556
12357TIP3   OH258485   6.594   2.264  11.899 -0.5083 -0.1144  0.1023
12357TIP3    H158486   6.555   2.182  11.868  1.8143 -1.3332  0.2684
12357TIP3    H258487   6.643   2.297  11.824 -0.2775  0.3664  0.4655
12358TIP3   OH258488   6.596   1.175  16.165  0.2649  0.2973 -0.2633
12358TIP3    H158489   6.525   1.123  16.129 -2.1058  2.4461  1.1311
12358TIP3    H258490   6.596   1.256  16.114  4.2566 -1.1321 -2.7703
12359TIP3   OH258491   1.917   3.216   1.974  0.7702  0.3707 -0.1693
12359TIP3    H158492   1.830   3.184   1.999  0.5743  1.2228  0.2547
12359TIP3    H258493   1.936   3.171   1.891 -0.2852  0.5459 -0.5152
12360TIP3   OH258494   5.694   1.844  15.658  0.5162  0.0697  0.3588
12360TIP3    H158495   5.631   1.905  15.697  1.7618  0.2751  2.1283
12360TIP3    H258496   5.658   1.823  15.572 -1.6230  0.6920  1.0856
12361TIP3   OH258497   0.855   3.448  12.455  0.1129 -0.3525 -0.1392
12361TIP3    H158498   0.854   3.518  12.389  1.3996 -0.0579  0.1254
12361TIP3    H258499   0.948   3.434  12.472 -0.1693 -1.5697  0.4147
12362TIP3   OH258500   4.318   5.759  14.219 -0.1370  0.5415  0.0997
12362TIP3    H158501   4.245   5.735  14.277  1.2304 -1.1886  1.1720
12362TIP3    H258502   4.312   5.698  14.146 -0.3150  1.0331 -0.3033
12363TIP3   OH258503   5.970   5.533  14.261  0.0792 -0.2837 -0.4265
12363TIP3    H158504   6.007   5.554  14.347 -1.0456 -0.5046  0.1195
12363TIP3    H258505   5.877   5.518  14.278 -0.0377 -0.9189 -1.5903
12364TIP3   OH258506   5.089   6.107  15.188  0.4116 -0.1009 -0.1367
12364TIP3    H158507   5.073   6.196  15.222  0.3301 -0.0555 -0.2916
12364TIP3    H258508   5.018   6.054  15.226 -0.3237  0.1681 -1.0973
12365TIP3   OH258509   5.949   1.717  17.004 -0.6177  0.2198  0.5049
12365TIP3    H158510   6.036   1.719  17.044 -0.7618  0.1465  0.8198
12365TIP3    H258511   5.963   1.749  16.915 -0.2381  0.0396  0.4989
12366TIP3   OH258512   3.121   0.160  14.239 -0.1045  0.1106 -0.4967
12366TIP3    H158513   3.181   0.232  14.215  0.4166 -0.4250 -0.8200
12366TIP3    H258514   3.034   0.193  14.216 -0.4732  2.5747  3.7950
12367TIP3   OH258515   4.968   0.932   1.393 -0.3113 -0.2514 -0.2540
12367TIP3    H158516   5.029   0.946   1.465 -2.0465  0.8276  1.0191
12367TIP3    H258517   5.021   0.948   1.314  1.0331  0.7691  0.8279
12368TIP3   OH258518   3.825   4.811   4.780 -0.3410  0.1382 -0.0245
12368TIP3    H158519   3.882   4.887   4.788 -1.2323  0.9227 -0.9418
12368TIP3    H258520   3.873   4.750   4.725 -0.2901  0.7123 -0.6274
12369TIP3   OH258521   5.771   3.259   2.865  0.2024  0.2134 -0.4524
12369TIP3    H158522   5.739   3.345   2.894  1.2345  0.6517 -0.5794
12369TIP3    H258523   5.764   3.203   2.942  0.0969  0.5791 -0.1959
12370TIP3   OH258524   1.439   3.242  12.471  0.0371 -0.6466  0.0425
12370TIP3    H158525   1.519   3.237  12.524 -0.2589  1.5855  0.7400
12370TIP3    H258526   1.470   3.259  12.382  0.3348  0.9654  0.4387
12371TIP3   OH258527   0.840   4.299   1.254  0.0839  0.6185 -0.5862
12371TIP3    H158528   0.882   4.325   1.336 -0.4905  1.6703 -0.6182
12371TIP3    H258529   0.747   4.316   1.268 -0.3235 -1.5300 -0.5742
12372TIP3   OH258530   0.253   2.003  15.833  0.3092  0.2550 -1.1106
12372TIP3    H158531   0.245   2.044  15.747  0.0436  1.0375 -0.7131
12372TIP3    H258532   0.223   1.913  15.820 -1.1006  0.7818 -1.5100
12373TIP3   OH258533   4.209   1.727   3.811  0.4759 -0.2966 -0.5348
12373TIP3    H158534   4.275   1.660   3.825  1.5678  0.7709 -0.4919
12373TIP3    H258535   4.128   1.690   3.847  1.1572 -1.4030 -0.1329
12374TIP3   OH258536   6.195   4.244  16.462 -0.1608 -0.0498 -0.0642
12374TIP3    H158537   6.183   4.249  16.367  0.9804 -1.8732 -0.3184
12374TIP3    H258538   6.290   4.244  16.474 -0.2829  2.4915  1.2318
12375TIP3   OH258539   6.217   1.306   2.079  0.7207  0.3104  0.1453
12375TIP3    H158540   6.189   1.354   2.001  1.7316  0.7977  0.0748
12375TIP3    H258541   6.312   1.294   2.068  0.7197 -0.4232  0.8575
12376TIP3   OH258542   2.412   4.158  14.814 -0.3170 -0.3714 -0.2534
12376TIP3    H158543   2.494   4.199  14.841 -1.1589  0.1177  1.6124
12376TIP3    H258544   2.439   4.084  14.759  1.2844  1.2590 -1.6946
12377TIP3   OH258545   0.896   6.652  15.720 -0.3078 -0.3322 -0.1337
12377TIP3    H158546   0.834   6.594  15.674 -0.0576  1.4020 -2.7861
12377TIP3    H258547   0.848   6.734  15.731  1.1067  0.6742 -1.2342
12378TIP3   OH258548   1.895   4.580   1.118 -0.2999 -0.1400  0.1965
12378TIP3    H158549   1.954   4.642   1.160 -0.2568  1.1756 -1.7141
12378TIP3    H258550   1.947   4.543   1.046 -1.6968  0.8032 -1.3157
12379TIP3   OH258551   0.912   0.256  16.918 -0.0680 -0.5455  0.7103
12379TIP3    H158552   0.845   0.250  16.987  0.2897  2.1995  1.3743
12379TIP3    H258553   0.994   0.264  16.965  0.2293  0.8996 -0.0233
12380TIP3   OH258554   4.318   1.289  14.855 -0.1616  0.1516 -0.3428
12380TIP3    H158555   4.252   1.358  14.867 -0.0023  0.0218  1.4892
12380TIP3    H258556   4.296   1.224  14.922  1.4366 -0.1908 -0.1375
12381TIP3   OH258557   5.707   0.457   4.303  0.4772 -0.3080  0.0915
12381TIP3    H158558   5.656   0.391   4.256 -0.4525  0.1761  0.3883
12381TIP3    H258559   5.648   0.488   4.372  1.2135  0.2037  0.5035
12382TIP3   OH258560   1.898   2.402   5.538 -0.3774  0.0316 -0.2842
12382TIP3    H158561   1.916   2.366   5.450 -0.2253  0.6779 -0.5166
12382TIP3    H258562   1.823   2.459   5.525 -2.2556 -2.1579  0.5674
12383TIP3   OH258563   4.846   1.319  16.814 -0.1092  0.1969 -0.3666
12383TIP3    H158564   4.853   1.415  16.822  0.3226  0.4367 -3.0999
12383TIP3    H258565   4.924   1.286  16.858  0.5721  1.1938 -0.7950
12384TIP3   OH258566   3.861   3.842  16.281  0.6858 -0.2168 -0.0123
12384TIP3    H158567   3.800   3.778  16.243  0.2368  0.2249 -0.0421
12384TIP3    H258568   3.945   3.797  16.283  0.0736 -1.3708  1.3712
12385TIP3   OH258569   4.527   0.246  15.888  0.6486  0.0115 -0.6799
12385TIP3    H158570   4.578   0.319  15.854  0.7037 -1.2959 -3.6059
12385TIP3    H258571   4.438   0.282  15.898  0.9298  0.8022 -0.9544
12386TIP3   OH258572   2.889   5.228  16.827 -0.2927  0.4603  0.2188
12386TIP3    H158573   2.960   5.168  16.850  0.5037  1.2562 -0.1282
12386TIP3    H258574   2.811   5.173  16.826  0.7780 -1.0958 -2.5967
12387TIP3   OH258575   2.933   5.036   3.492 -0.1566 -0.5810  0.6096
12387TIP3    H158576   2.854   5.088   3.477  0.7548  0.5747 -0.2394
12387TIP3    H258577   2.996   5.068   3.427  1.2914 -0.9179  1.8277
12388TIP3   OH258578   0.149   4.021  12.742  0.2741 -0.5989  0.1327
12388TIP3    H158579   0.221   3.959  12.747  1.0242  0.3449  1.3039
12388TIP3    H258580   0.153   4.056  12.653  1.1202 -0.7214  0.1174
12389TIP3   OH258581   1.685   1.453  14.359 -0.1614  0.1982 -0.2757
12389TIP3    H158582   1.758   1.411  14.405 -0.5364  1.6168  1.7072
12389TIP3    H258583   1.647   1.384  14.305  1.8406 -0.8930 -0.3375
12390TIP3   OH258584   2.697   0.753  11.955 -0.1732  0.3010 -0.3396
12390TIP3    H158585   2.729   0.838  11.984  4.4193 -0.9463 -1.3745
12390TIP3    H258586   2.709   0.754  11.860 -0.2896 -1.4011 -0.3936
12391TIP3   OH258587   3.622   3.048  14.591 -0.3402 -0.0676  0.0705
12391TIP3    H158588   3.629   2.968  14.644 -1.5370  0.4411  1.0240
12391TIP3    H258589   3.550   3.097  14.631 -1.9528 -0.1159 -2.6085
12392TIP3   OH258590   5.321   5.690  15.782  0.5751  0.5464  0.2561
12392TIP3    H158591   5.261   5.618  15.759  0.6144  0.5391  0.1748
12392TIP3    H258592   5.399   5.674  15.728  1.4033 -0.4921  1.7384
12393TIP3   OH258593   0.761   5.213   0.993  0.3141 -0.2070  0.2174
12393TIP3    H158594   0.836   5.230   1.049  0.7977 -1.6186  0.0272
12393TIP3    H258595   0.700   5.165   1.048  0.0490 -0.0621  0.0487
12394TIP3   OH258596   0.556   1.325   2.599  0.2737 -0.2508 -0.2083
12394TIP3    H158597   0.513   1.257   2.547 -1.3333  1.1795 -0.7920
12394TIP3    H258598   0.623   1.360   2.541  1.5804 -1.7928  0.3416
12395TIP3   OH258599   3.378   1.466  10.688 -0.3500  0.1088  0.6127
12395TIP3    H158600   3.291   1.492  10.657 -0.7170  0.3244  1.8171
12395TIP3    H258601   3.362   1.426  10.773  0.5894 -1.0482  0.2571
12396TIP3   OH258602   3.863   4.720   0.776  0.2082 -0.4625 -0.0406
12396TIP3    H158603   3.828   4.745   0.862  0.8956 -0.6069  0.2846
12396TIP3    H258604   3.927   4.789   0.756 -1.1754  0.5149 -1.2204
12397TIP3   OH258605   6.042   6.461  11.385  0.6828 -0.0599  0.6747
12397TIP3    H158606   6.077   6.401  11.450 -0.6980 -0.0789  1.4307
12397TIP3    H258607   5.948   6.440  11.381  0.5763  0.6042 -0.5989
12398TIP3   OH258608   2.734   4.723  13.407  0.0283 -0.2583  0.6374
12398TIP3    H158609   2.688   4.737  13.490 -1.4606 -0.1117 -0.1922
12398TIP3    H258610   2.683   4.773  13.342  1.1534 -0.3918 -0.3740
12399TIP3   OH258611   0.442   4.532  14.437  0.2662  0.2626  0.0348
12399TIP3    H158612   0.507   4.488  14.382  1.5382  2.9687 -0.7134
12399TIP3    H258613   0.476   4.524  14.526  1.6130  1.5724 -0.3396
12400TIP3   OH258614   2.958   2.115   0.791  0.0890 -0.1964  0.1958
12400TIP3    H158615   2.876   2.164   0.779  0.7174  1.4923  2.3557
12400TIP3    H258616   3.025   2.183   0.794  1.1505 -1.2966  1.9469
12401TIP3   OH258617   2.167   2.632  14.337 -0.1518  0.0926  0.0892
12401TIP3    H158618   2.097   2.575  14.369 -0.3125 -0.9809 -2.0456
12401TIP3    H258619   2.122   2.712  14.308 -0.0624  0.8514  1.9808
12402TIP3   OH258620   3.325   4.475  16.752  0.6015  0.3013  0.1834
12402TIP3    H158621   3.305   4.568  16.749 -0.7505 -0.0040 -0.5751
12402TIP3    H258622   3.313   4.444  16.663  1.6177 -0.4927  0.3110
12403TIP3   OH258623   3.543   2.775  12.119  0.1945 -0.2958 -0.3369
12403TIP3    H158624   3.468   2.740  12.071 -0.1883  0.1080 -0.0490
12403TIP3    H258625   3.603   2.701  12.129 -0.4428 -0.7728 -0.0381
12404TIP3   OH258626   4.256   2.434   0.704 -0.0467 -0.5038  0.4929
12404TIP3    H158627   4.210   2.350   0.703 -1.0102  0.0217 -1.5917
12404TIP3    H258628   4.191   2.498   0.732  0.1388 -0.1537  0.1367
12405TIP3   OH258629   5.935   1.541  11.983  0.0903  0.1901  0.3993
12405TIP3    H158630   5.870   1.579  11.923  1.2164  1.2073 -0.2094
12405TIP3    H258631   5.934   1.447  11.963 -0.5614  0.3234 -0.2161
12406TIP3   OH258632   1.991   5.955   5.983  0.0167  0.3481 -0.0281
12406TIP3    H158633   1.957   6.044   5.974 -0.0993  0.7515  3.8270
12406TIP3    H258634   2.075   5.966   6.027  1.7613 -1.2396 -2.7973
12407TIP3   OH258635   1.750   1.991   0.271 -0.0023  0.6633  0.5235
12407TIP3    H158636   1.682   2.051   0.240 -0.7191 -0.1617  0.4702
12407TIP3    H258637   1.814   1.990   0.200 -0.5373  0.5129  0.0301
12408TIP3   OH258638   3.691   4.063   5.583 -0.5349  0.1684  0.0426
12408TIP3    H158639   3.713   3.985   5.635  0.4073  0.8021  0.5998
12408TIP3    H258640   3.766   4.075   5.526  0.2154  1.8347  1.3480
12409TIP3   OH258641   2.269   1.465  16.555 -0.4583 -0.2233 -0.8441
12409TIP3    H158642   2.308   1.378  16.557 -0.2805 -0.1267  0.3084
12409TIP3    H258643   2.329   1.520  16.606 -0.2143  0.7278 -2.1210
12410TIP3   OH258644   3.022   2.424   6.401 -0.6069  0.3279 -0.0346
12410TIP3    H158645   3.066   2.449   6.482 -1.1488  2.5863 -0.4068
12410TIP3    H258646   3.040   2.331   6.392  0.6233  0.3430  1.9570
12411TIP3   OH258647   6.753   0.513   5.579 -0.2454 -0.2283 -0.1505
12411TIP3    H158648   6.690   0.533   5.648 -0.3572 -0.3414 -0.2198
12411TIP3    H258649   6.822   0.463   5.622  0.6730  1.3714  0.2990
12412TIP3   OH258650   4.497   1.655   1.502 -0.3011  0.4563 -0.1784
12412TIP3    H158651   4.480   1.715   1.575 -0.6537  1.0887 -0.7814
12412TIP3    H258652   4.592   1.641   1.505 -0.1836  1.2465 -0.2031
12413TIP3   OH258653   1.197   4.962   3.234  0.7043  0.2155 -0.1301
12413TIP3    H158654   1.169   5.008   3.155 -0.1513 -3.3616 -2.0276
12413TIP3    H258655   1.121   4.966   3.291  0.0767 -0.2153 -0.9234
12414TIP3   OH258656   0.465   4.522  16.828  0.7456  0.0570  0.0503
12414TIP3    H158657   0.558   4.547  16.828  0.7473  0.0530 -0.6626
12414TIP3    H258658   0.466   4.428  16.808  0.4977  0.4372 -1.8778
12415TIP3   OH258659   1.272   1.650  11.290 -0.0981 -0.3155 -0.1504
12415TIP3    H158660   1.342   1.586  11.277  0.6535  0.2970  0.8336
12415TIP3    H258661   1.271   1.701  11.209  1.0339  0.0888  0.0828
12416TIP3   OH258662   6.075   5.938   4.555 -0.3992 -0.5315  0.2863
12416TIP3    H158663   5.979   5.938   4.563 -0.3259 -1.1014  1.2707
12416TIP3    H258664   6.093   5.995   4.480 -1.4535  0.6444  0.8991
12417TIP3   OH258665   1.874   3.853  16.755 -0.0033 -0.5292 -0.0456
12417TIP3    H158666   1.885   3.907  16.833  0.9733  1.3556 -1.4392
12417TIP3    H258667   1.791   3.882  16.717  0.3634 -0.2173 -0.6178
12418TIP3   OH258668   5.755   0.825  15.555 -0.4646  0.6355  0.4111
12418TIP3    H158669   5.795   0.748  15.595 -0.6894  1.2316  1.8081
12418TIP3    H258670   5.778   0.897  15.613  0.4212  1.7668 -1.3116
12419TIP3   OH258671   1.111   4.677  12.518 -0.5482 -0.6484 -0.2033
12419TIP3    H158672   1.146   4.733  12.448  2.6495  0.3712  2.1213
12419TIP3    H258673   1.038   4.726  12.554  1.0943  1.2332  0.6138
12420TIP3   OH258674   0.911   0.327  14.728  0.1761 -0.4683  0.0453
12420TIP3    H158675   0.975   0.345  14.796  0.5482 -0.8914 -0.1919
12420TIP3    H258676   0.855   0.259  14.764 -1.6599  1.5841  1.2133
12421TIP3   OH258677   4.946   5.869   5.594 -0.2866 -0.1837 -0.1870
12421TIP3    H158678   4.906   5.808   5.656 -0.2388 -0.6288 -0.5976
12421TIP3    H258679   4.988   5.814   5.528 -1.7660  0.2868 -1.5513
12422TIP3   OH258680   1.447   0.358  13.597  0.1184  0.1837 -0.0800
12422TIP3    H158681   1.452   0.296  13.524 -0.5210  0.0661 -0.0300
12422TIP3    H258682   1.354   0.380  13.604  0.4636  1.9333 -0.7380
12423TIP3   OH258683   3.602   5.325  14.301  0.2866 -0.5065 -0.2287
12423TIP3    H158684   3.585   5.243  14.255  0.7732 -0.2255 -0.9068
12423TIP3    H258685   3.679   5.362  14.259 -0.9837  1.2115 -1.1641
12424TIP3   OH258686   2.730   5.358  14.253  0.0457 -0.2195 -0.7227
12424TIP3    H158687   2.682   5.438  14.231 -0.5500 -0.3623  0.0161
12424TIP3    H258688   2.783   5.383  14.330 -0.9982 -0.8391  0.2089
12425TIP3   OH258689   4.261   4.430  12.320  0.1880  0.6249  0.4365
12425TIP3    H158690   4.320   4.354  12.323 -0.7640 -0.1208  0.6353
12425TIP3    H258691   4.261   4.463  12.410 -1.4401 -0.7583  0.9833
12426TIP3   OH258692   0.366   6.394   0.779  0.8049 -0.0794 -0.0462
12426TIP3    H158693   0.386   6.310   0.737  1.9650 -0.1806  0.7040
12426TIP3    H258694   0.422   6.458   0.735  0.3508  0.2162 -0.2084
12427TIP3   OH258695   4.206   5.976   2.627 -0.0186 -0.0035 -0.3125
12427TIP3    H158696   4.127   5.949   2.674  1.1083 -0.1450  1.5674
12427TIP3    H258697   4.271   5.910   2.650  1.1161  1.0410 -0.4614
12428TIP3   OH258698   0.386   3.015   2.182  0.3728 -0.4612  0.0083
12428TIP3    H158699   0.394   2.925   2.151  2.4314  0.3763 -2.0551
12428TIP3    H258700   0.367   3.066   2.103  1.1616  1.1682  0.8353
12429TIP3   OH258701   0.798   2.227  14.506  0.3823 -0.2891  0.0286
12429TIP3    H158702   0.836   2.166  14.569  2.2835  1.4601  0.6336
12429TIP3    H258703   0.724   2.266  14.552  1.1275  0.2061  0.8175
12430TIP3   OH258704   3.189   1.223  12.366  0.3406  0.4563 -0.3239
12430TIP3    H158705   3.202   1.162  12.293 -2.6514  0.0102 -0.5470
12430TIP3    H258706   3.176   1.308  12.324 -0.0935  0.4250 -0.2571
12431TIP3   OH258707   1.677   1.514  13.684 -0.5576  0.1319  0.2362
12431TIP3    H158708   1.681   1.433  13.632  0.6055  1.0567 -1.1402
12431TIP3    H258709   1.761   1.517  13.730  0.3422  1.6911 -1.4702
12432TIP3   OH258710   2.677   4.229  11.899 -0.3381 -0.2153  0.0494
12432TIP3    H158711   2.764   4.262  11.875  1.6263 -4.7057  0.5637
12432TIP3    H258712   2.660   4.159  11.837 -3.5811  0.4314  0.1177
12433TIP3   OH258713   3.387   3.856  11.944  0.1847  0.0337  0.0143
12433TIP3    H158714   3.459   3.804  11.907 -0.0880 -1.1521  1.1024
12433TIP3    H258715   3.308   3.810  11.916 -0.2294  1.9412 -2.0966
12434TIP3   OH258716   0.886   2.016   5.402  0.5555 -0.4264 -0.0918
12434TIP3    H158717   0.973   2.022   5.440  1.7255 -1.3134 -2.5407
12434TIP3    H258718   0.897   1.960   5.325 -2.9035 -3.7504  1.6421
12435TIP3   OH258719   0.014   2.155  13.598 -0.1940  0.0641  0.3349
12435TIP3    H158720   0.030   2.248  13.580 -1.7143  0.5033  1.1392
12435TIP3    H258721   0.081   2.130  13.661 -0.1199  0.7511  0.5250
12436TIP3   OH258722   2.893   4.601  11.798 -0.7355  0.6779  0.0372
12436TIP3    H158723   2.901   4.506  11.805  1.3375  0.8737  0.5272
12436TIP3    H258724   2.880   4.618  11.705 -0.9638 -0.0757 -0.0714
12437TIP3   OH258725   6.297   1.814  11.433  0.4213  0.5178 -0.1818
12437TIP3    H158726   6.268   1.896  11.473 -1.8684 -0.2048 -0.2980
12437TIP3    H258727   6.295   1.831  11.339  0.5535  0.5199 -0.1851
12438TIP3   OH258728   6.239   5.127   4.412  0.5995  0.4135  0.3039
12438TIP3    H158729   6.253   5.139   4.318  0.4788 -0.0792  0.2200
12438TIP3    H258730   6.204   5.038   4.419  0.7415  0.4015  0.8282
12439TIP3   OH258731   4.142   2.249   0.329  0.4664 -0.4374  0.0484
12439TIP3    H158732   4.050   2.222   0.321 -0.0458  1.2087  0.1592
12439TIP3    H258733   4.186   2.204   0.256 -1.5553  3.3651 -3.7421
12440TIP3   OH258734   5.004   3.436   4.961 -0.1263  0.7851  0.4612
12440TIP3    H158735   4.920   3.450   5.006  0.4247 -0.5369  1.9296
12440TIP3    H258736   4.988   3.361   4.904  0.4419 -0.3333  1.7611
12441TIP3   OH258737   0.140   5.251  14.888  0.3177 -0.0429  0.1095
12441TIP3    H158738   0.214   5.203  14.926  0.7540 -1.1544 -2.0722
12441TIP3    H258739   0.064   5.196  14.906  0.2606  0.3149  0.9537
12442TIP3   OH258740   5.218   3.303  13.980 -0.6143  0.1699 -0.4160
12442TIP3    H158741   5.254   3.215  13.971 -0.9516 -0.2088  1.7630
12442TIP3    H258742   5.165   3.315  13.901  0.0241 -1.2896 -1.0838
12443TIP3   OH258743   3.642   4.149   6.347  0.0241  0.2565 -0.2590
12443TIP3    H158744   3.706   4.165   6.416 -0.0645  0.7677 -0.2941
12443TIP3    H258745   3.611   4.060   6.363  0.0796  0.3378  0.2972
12444TIP3   OH258746   2.740   4.500   3.122  0.0266 -0.5568 -0.6418
12444TIP3    H158747   2.698   4.449   3.191 -1.6178  0.9148 -0.5232
12444TIP3    H258748   2.677   4.501   3.050 -0.4474  2.1086 -0.2760
12445TIP3   OH258749   0.875   0.585  14.325 -0.1656  0.0444  0.1065
12445TIP3    H158750   0.833   0.501  14.310 -1.5395  0.6979  0.1811
12445TIP3    H258751   0.912   0.578  14.413  1.5761 -1.2178 -0.7001
12446TIP3   OH258752   0.683   2.434  12.223  0.2278 -0.0655 -0.2869
12446TIP3    H158753   0.625   2.383  12.166 -1.1226  0.4146  0.6639
12446TIP3    H258754   0.628   2.463  12.295  1.6569  0.3582  0.6566
12447TIP3   OH258755   3.573   0.788  15.353 -0.6028 -0.2143 -0.1479
12447TIP3    H158756   3.652   0.780  15.298 -1.5583 -1.8370 -1.3249
12447TIP3    H258757   3.506   0.740  15.304 -1.7184 -0.8480  1.9859
12448TIP3   OH258758   2.844   6.447   5.055 -0.5978  0.6731 -0.0334
12448TIP3    H158759   2.918   6.390   5.076 -0.1174  1.7555  1.2980
12448TIP3    H258760   2.847   6.457   4.960  0.3641 -0.1135 -0.0879
12449TIP3   OH258761   4.655   2.149   4.656 -0.3119  0.6752  0.1250
12449TIP3    H158762   4.615   2.197   4.584  0.0966  3.1535  1.5235
12449TIP3    H258763   4.725   2.097   4.614 -2.0983 -0.3555 -1.6748
12450TIP3   OH258764   2.353   1.464   1.949 -0.4773  0.0838  0.3270
12450TIP3    H158765   2.293   1.520   1.901  1.2546  1.2199 -0.5490
12450TIP3    H258766   2.433   1.515   1.957  0.6655 -1.7192  0.7506
12451TIP3   OH258767   4.832   4.386  16.126  0.4955 -0.2769 -0.0236
12451TIP3    H158768   4.787   4.314  16.170  1.0427 -1.6847 -1.7113
12451TIP3    H258769   4.923   4.377  16.153  0.2660  0.8235  1.1177
12452TIP3   OH258770   3.693   3.195  13.478  0.2120  0.2184 -0.4397
12452TIP3    H158771   3.604   3.215  13.506  0.4456 -1.3976  1.5919
12452TIP3    H258772   3.709   3.107  13.513  2.0451 -0.1324 -2.1233
12453TIP3   OH258773   0.734   0.855  17.120 -0.3266 -0.1298 -0.5050
12453TIP3    H158774   0.758   0.897  17.202 -1.0631  1.0774 -0.8816
12453TIP3    H258775   0.641   0.836  17.129 -0.6519  0.9189 -1.4148
12454TIP3   OH258776   3.453   6.286   4.782 -0.1974 -0.2732 -0.1519
12454TIP3    H158777   3.388   6.356   4.779  1.1706  1.1132  1.2613
12454TIP3    H258778   3.502   6.302   4.863 -0.2870 -3.2793  0.5442
12455TIP3   OH258779   5.323   2.560  17.007  0.3865  0.7073  0.0217
12455TIP3    H158780   5.325   2.613  16.927  0.8802 -1.6455 -1.5901
12455TIP3    H258781   5.231   2.554  17.030  0.1149  0.2689 -1.1621
12456TIP3   OH258782   0.522   0.243  15.291 -0.0481 -0.4981  0.2024
12456TIP3    H158783   0.530   0.161  15.243  1.2828  0.1884 -0.7786
12456TIP3    H258784   0.485   0.306  15.228 -0.1706 -0.0994  0.6636
12457TIP3   OH258785   6.473   2.423   4.403 -0.2655 -0.3098 -0.3739
12457TIP3    H158786   6.541   2.465   4.351  0.6888 -2.2819 -0.7818
12457TIP3    H258787   6.520   2.379   4.474 -1.3097  0.0378  0.5591
12458TIP3   OH258788   3.435   4.155   0.873  0.7122  0.0731  0.8775
12458TIP3    H158789   3.472   4.082   0.923  3.5992 -0.2599 -1.5628
12458TIP3    H258790   3.511   4.210   0.853 -0.8538  1.7693 -0.5143
12459TIP3   OH258791   1.740   1.273  13.562  0.0046 -0.0619 -0.0261
12459TIP3    H158792   1.752   1.263  13.467  0.7649 -0.6595  0.1339
12459TIP3    H258793   1.715   1.187  13.593  1.8719 -0.3889  0.6303
12460TIP3   OH258794   2.141   6.292   0.092 -0.1268 -0.3695 -0.0664
12460TIP3    H158795   2.156   6.369   0.037  0.8342 -0.5620 -0.0796
12460TIP3    H258796   2.053   6.305   0.128  0.1145  0.8421  0.0984
12461TIP3   OH258797   6.581   3.813   3.240 -0.1961  0.5654  0.4014
12461TIP3    H158798   6.533   3.794   3.320 -1.0492  0.7145 -0.0688
12461TIP3    H258799   6.524   3.782   3.170  1.1469 -0.8119 -0.0918
12462TIP3   OH258800   6.034   5.793   0.324  0.1782 -0.0891  0.0752
12462TIP3    H158801   5.991   5.726   0.377 -1.4871  0.7387 -0.2105
12462TIP3    H258802   5.966   5.858   0.307  1.0584  0.3554 -1.9031
12463TIP3   OH258803   5.468   5.614  13.613  1.3176 -0.2936 -0.3559
12463TIP3    H158804   5.414   5.542  13.646  2.0686 -1.9457 -2.6218
12463TIP3    H258805   5.488   5.666  13.691  1.0425 -2.7289  1.4011
12464TIP3   OH258806   6.617   0.129  15.520  0.3851 -0.1728 -0.6138
12464TIP3    H158807   6.694   0.173  15.556 -0.3382  0.6284 -0.0131
12464TIP3    H258808   6.631   0.130  15.425  1.7259 -1.2055 -0.4360
12465TIP3   OH258809   4.547   4.975  15.652 -0.1960  0.1475  0.5151
12465TIP3    H158810   4.481   4.986  15.583 -1.0913 -2.1351  0.9529
12465TIP3    H258811   4.624   4.941  15.605 -0.7879 -1.3586  0.6237
12466TIP3   OH258812   6.401   3.878  13.847  0.0890 -0.3370  0.4167
12466TIP3    H158813   6.390   3.955  13.902 -0.7946  1.4767 -2.1890
12466TIP3    H258814   6.495   3.874  13.829  0.3096 -0.6402  1.5989
12467TIP3   OH258815   2.550   0.461   1.602  0.6157 -0.2531  0.2170
12467TIP3    H158816   2.530   0.410   1.523 -0.9022  1.4262 -0.4989
12467TIP3    H258817   2.566   0.549   1.570  0.1236  0.4185  1.7984
12468TIP3   OH258818   2.977   4.240   1.045 -0.4745 -0.0122 -0.0214
12468TIP3    H158819   2.941   4.193   1.120 -1.7085  0.0771 -0.5511
12468TIP3    H258820   2.936   4.200   0.969  2.4717 -1.6097 -0.8353
12469TIP3   OH258821   5.574   0.675   0.923 -0.1508  0.1995  0.2359
12469TIP3    H158822   5.549   0.589   0.958  3.8225 -0.9040  0.6084
12469TIP3    H258823   5.572   0.664   0.828 -1.8378  0.3841  0.2432
12470TIP3   OH258824   0.600   3.107  16.324  0.5821  0.4363 -0.2556
12470TIP3    H158825   0.615   3.200  16.305 -0.5974  0.4731 -1.0607
12470TIP3    H258826   0.573   3.070  16.240 -0.8016 -0.2360  0.4618
12471TIP3   OH258827   3.315   4.712  13.137  0.3154  0.1460 -0.3722
12471TIP3    H158828   3.388   4.732  13.195  0.8869 -1.3340 -0.5409
12471TIP3    H258829   3.354   4.714  13.049  0.4417 -1.7041 -0.3927
12472TIP3   OH258830   6.157   6.145   1.577  0.3429 -0.0454  0.1795
12472TIP3    H158831   6.157   6.073   1.640 -0.1466  0.4675  0.7853
12472TIP3    H258832   6.161   6.224   1.631  0.4809  0.3900 -0.4562
12473TIP3   OH258833   0.368   1.985   5.003  0.0646  0.6016  0.6859
12473TIP3    H158834   0.437   1.994   5.068  1.7826 -1.8747 -0.7213
12473TIP3    H258835   0.350   1.891   5.000 -1.0548  0.8533 -1.3142
12474TIP3   OH258836   5.540   4.157   2.701  0.2190  0.1666 -0.1452
12474TIP3    H158837   5.465   4.187   2.752 -0.8388  0.2887 -1.7329
12474TIP3    H258838   5.507   4.150   2.611  2.4689  1.6754 -1.1475
12475TIP3   OH258839   2.257   3.077  16.604  0.0254 -0.9906 -0.0706
12475TIP3    H158840   2.346   3.101  16.628  0.1003  0.0100 -1.3107
12475TIP3    H258841   2.218   3.157  16.570  0.2144 -2.4963 -4.1255
12476TIP3   OH258842   3.723   4.948  12.422  0.3267  0.5907 -0.0527
12476TIP3    H158843   3.637   4.916  12.396  0.3085 -0.4883  1.2420
12476TIP3    H258844   3.785   4.894  12.373  0.2742  0.1344  0.3779
12477TIP3   OH258845   4.512   5.045   4.198 -0.4210  0.2064  0.3547
12477TIP3    H158846   4.520   4.963   4.247 -0.6113  0.6920  1.1940
12477TIP3    H258847   4.602   5.066   4.174 -0.4935 -0.9768 -1.0859
12478TIP3   OH258848   0.593   2.570  12.448  0.1908 -0.9032 -0.4489
12478TIP3    H158849   0.506   2.583  12.486  0.5524  1.0083 -0.2431
12478TIP3    H258850   0.635   2.507  12.506 -0.2213 -0.0486  0.8008
12479TIP3   OH258851   0.896   1.111   6.470  0.7042  0.5946  0.4282
12479TIP3    H158852   0.953   1.047   6.513  0.7444  0.8662  0.7805
12479TIP3    H258853   0.925   1.196   6.505  3.0521  1.1499 -2.6402
12480TIP3   OH258854   3.722   5.560  11.296  0.5978 -0.2455 -0.0711
12480TIP3    H158855   3.696   5.540  11.206  3.2871 -0.4264 -0.8475
12480TIP3    H258856   3.647   5.533  11.349  0.0067 -2.6037 -2.0257
12481TIP3   OH258857   5.106   3.473  14.966 -0.0860  0.2969 -0.3421
12481TIP3    H158858   5.128   3.389  15.007 -0.4620 -1.2138 -3.1198
12481TIP3    H258859   5.184   3.527  14.979  1.3268 -1.5083 -1.0662
12482TIP3   OH258860   5.597   6.118   1.090  0.0456  0.0416  0.1426
12482TIP3    H158861   5.653   6.053   1.132 -0.3083  0.4302  1.2139
12482TIP3    H258862   5.645   6.143   1.011  0.8424 -0.4802  0.4565
12483TIP3   OH258863   0.552   3.889   2.256 -0.0807  0.1091 -0.4699
12483TIP3    H158864   0.534   3.830   2.329  1.1974 -2.0939 -1.8903
12483TIP3    H258865   0.476   3.879   2.198 -0.1705  0.3438 -0.3914
12484TIP3   OH258866   2.704   6.247  13.378 -0.5487 -0.3990  0.4241
12484TIP3    H158867   2.746   6.211  13.300 -1.2821 -0.0211 -0.1461
12484TIP3    H258868   2.617   6.273  13.349 -0.3571  0.9743  1.0674
12485TIP3   OH258869   5.911   2.823   2.535 -0.0648 -0.1063 -0.0222
12485TIP3    H158870   5.885   2.905   2.493  0.3462  0.4635  0.8108
12485TIP3    H258871   5.836   2.799   2.590 -0.8614 -1.1939 -1.5560
12486TIP3   OH258872   2.692   1.466   0.951  0.4150 -0.0387 -0.2544
12486TIP3    H158873   2.781   1.451   0.981  0.4910 -0.0683 -0.4900
12486TIP3    H258874   2.693   1.556   0.918  0.4976 -0.2188 -0.7503
12487TIP3   OH258875   4.346   0.897  11.794  0.4132 -0.0008 -0.3665
12487TIP3    H158876   4.434   0.917  11.761  1.3329  1.2956  2.6681
12487TIP3    H258877   4.295   0.976  11.776  0.6792  0.3651  0.4334
12488TIP3   OH258878   5.103   0.887   2.442 -0.6554  0.2218 -0.2781
12488TIP3    H158879   5.175   0.901   2.380  0.6879  0.2389  1.2586
12488TIP3    H258880   5.054   0.969   2.439  2.0005  1.9939  1.9828
12489TIP3   OH258881   0.343   5.250   0.912  0.2752  0.7813  0.2337
12489TIP3    H158882   0.334   5.312   0.984  0.0487  0.3080  0.6152
12489TIP3    H258883   0.269   5.268   0.855 -1.1217 -0.6847  1.5257
12490TIP3   OH258884   2.923   5.321   4.215  0.2033 -0.5753  0.3414
12490TIP3    H158885   2.983   5.393   4.237 -0.1318  0.9539 -3.3601
12490TIP3    H258886   2.975   5.242   4.229  2.7226  0.6686 -1.4521
12491TIP3   OH258887   3.807   6.749   6.263  0.1343  0.0534  0.8911
12491TIP3    H158888   3.845   6.805   6.331  0.3606  0.0961  0.7288
12491TIP3    H258889   3.721   6.787   6.246 -0.0748 -0.1697  1.4150
12492TIP3   OH258890   0.104   0.480  16.956 -0.2538 -0.6850  0.0175
12492TIP3    H158891   0.164   0.525  17.016 -0.3167 -0.3483 -0.1651
12492TIP3    H258892   0.060   0.552  16.910  0.4008 -0.9457 -1.0278
12493TIP3   OH258893   5.885   5.422  10.834  0.3032  0.7156  0.7904
12493TIP3    H158894   5.970   5.394  10.802 -0.1079  1.8136 -1.3162
12493TIP3    H258895   5.903   5.500  10.886  1.0440 -1.4241  3.8876
12494TIP3   OH258896   4.112   5.962  16.461 -0.3813  0.2473 -0.2043
12494TIP3    H158897   4.066   5.900  16.518 -1.5967  0.0964 -1.3062
12494TIP3    H258898   4.126   5.914  16.380  0.0945  0.9061 -0.5166
12495TIP3   OH258899   2.744   4.820  14.608  1.1949 -0.0108 -0.0699
12495TIP3    H158900   2.670   4.831  14.550  1.4345  1.5622 -0.0880
12495TIP3    H258901   2.790   4.743  14.574 -0.1056 -0.6669 -0.3776
12496TIP3   OH258902   0.986   6.386   4.715  0.0939 -0.0267 -0.0257
12496TIP3    H158903   0.963   6.478   4.702  1.0220  0.2614  0.2996
12496TIP3    H258904   0.952   6.364   4.802  0.8111  0.3234  0.3483
12497TIP3   OH258905   2.027   4.130   4.612 -0.3476  0.5242 -0.1446
12497TIP3    H158906   2.118   4.133   4.584 -0.5977 -1.3545 -1.2152
12497TIP3    H258907   2.032   4.126   4.708  0.7259 -0.7196 -0.2391
12498TIP3   OH258908   5.195   6.038  12.715  0.2008 -0.1697 -0.0070
12498TIP3    H158909   5.168   6.114  12.663  1.0669 -0.3371 -0.7002
12498TIP3    H258910   5.241   6.076  12.789 -2.0348  0.1308  1.2851
12499TIP3   OH258911   5.942   0.448  12.818  0.2867  0.0199 -0.7130
12499TIP3    H158912   5.888   0.495  12.882  2.4428  1.5753  0.0186
12499TIP3    H258913   5.970   0.369  12.865  1.9299  1.1944  0.3520
12500TIP3   OH258914   0.469   1.272  15.992  0.2868  0.0405  0.2241
12500TIP3    H158915   0.402   1.204  15.993  1.5379 -1.2070  0.5054
12500TIP3    H258916   0.425   1.349  15.955 -1.0406 -1.0147 -0.4186
12501TIP3   OH258917   2.212   4.577  12.342 -0.2366 -0.1237 -0.4167
12501TIP3    H158918   2.282   4.570  12.276 -0.2799  1.1475 -0.6220
12501TIP3    H258919   2.184   4.668  12.336  1.1012  0.5514  2.7563
12502TIP3   OH258920   4.851   4.763   4.244 -0.3444  0.5237  0.3037
12502TIP3    H158921   4.882   4.842   4.200 -2.1879  0.6842 -0.7447
12502TIP3    H258922   4.917   4.745   4.311  2.3663  0.4844 -2.2676
12503TIP3   OH258923   6.381   1.069  16.923 -0.1757  0.5013  0.5274
12503TIP3    H158924   6.319   1.072  16.996  0.7225 -0.8411  1.3705
12503TIP3    H258925   6.460   1.029  16.960 -0.8553 -3.4264 -1.9667
12504TIP3   OH258926   6.540   0.323   0.166  0.3483  0.4713 -0.2617
12504TIP3    H158927   6.559   0.346   0.257 -0.8246 -1.4002  0.4897
12504TIP3    H258928   6.603   0.254   0.145  0.3219  0.5825 -0.7217
12505TIP3   OH258929   5.185   0.327   0.053  0.6341  0.1345  0.1195
12505TIP3    H158930   5.104   0.348   0.098  0.7973  0.6897  0.1538
12505TIP3    H258931   5.254   0.355   0.113  0.8765  3.1143 -1.4646
12506TIP3   OH258932   4.284   3.008   0.699 -0.4184 -0.1365  0.3627
12506TIP3    H158933   4.266   2.969   0.785 -0.9598  2.2905  1.3726
12506TIP3    H258934   4.379   2.999   0.688 -0.6754 -2.9170 -0.0455
12507TIP3   OH258935   2.714   6.055   3.423  0.3724  0.1789 -0.1268
12507TIP3    H158936   2.646   6.027   3.483  1.0319 -0.0358  0.5359
12507TIP3    H258937   2.751   6.134   3.463  1.6984 -0.7047  0.4404
12508TIP3   OH258938   1.328   3.213   1.134  0.5316  0.2289  0.5600
12508TIP3    H158939   1.367   3.169   1.059 -0.6881 -0.3906  0.2715
12508TIP3    H258940   1.358   3.304   1.127 -1.6608  0.8113 -2.1654
12509TIP3   OH258941   6.270   0.693  14.945  0.2437  0.0003 -0.1600
12509TIP3    H158942   6.238   0.780  14.923  0.6725 -0.3901 -2.4325
12509TIP3    H258943   6.211   0.634  14.898  1.6890 -0.8415 -0.9493
12510TIP3   OH258944   4.242   3.001   1.821 -0.2883  0.1494  0.0204
12510TIP3    H158945   4.200   3.084   1.801 -1.3294 -0.7600 -1.7070
12510TIP3    H258946   4.246   2.998   1.916 -0.8090  1.8911  0.1067
12511TIP3   OH258947   0.338   3.636   2.318  0.4872 -0.1944 -0.0619
12511TIP3    H158948   0.330   3.565   2.254  0.8146 -0.0554 -0.2594
12511TIP3    H258949   0.249   3.665   2.334  0.3373 -0.7860  0.1653
12512TIP3   OH258950   0.744   1.204  13.449 -0.1912 -0.0584 -0.6958
12512TIP3    H158951   0.689   1.187  13.372  0.5132  1.1312 -1.4792
12512TIP3    H258952   0.803   1.274  13.421  1.9802 -1.5799  0.0344
12513TIP3   OH258953   2.011   0.664  12.422  0.0446 -0.2547  0.3103
12513TIP3    H158954   2.047   0.634  12.338 -1.0790  0.3037 -0.3800
12513TIP3    H258955   2.088   0.692  12.472  0.8860 -2.1728  0.1175
12514TIP3   OH258956   5.846   4.234  15.217  1.0531 -0.4867  0.0182
12514TIP3    H158957   5.845   4.178  15.139  0.2348  2.2119 -1.9966
12514TIP3    H258958   5.762   4.216  15.260  1.3739 -1.7547  0.1410
12515TIP3   OH258959   5.653   1.584  17.099  0.0826  0.4727  0.4794
12515TIP3    H158960   5.571   1.536  17.098 -0.1644  0.8889  0.6829
12515TIP3    H258961   5.644   1.647  17.171 -0.0336  1.5697 -0.4710
12516TIP3   OH258962   6.427   4.926  12.838  1.3177 -0.0543  0.4609
12516TIP3    H158963   6.459   4.837  12.823  1.0911  0.1957 -1.5767
12516TIP3    H258964   6.352   4.914  12.898  0.4979 -1.3726 -0.7917
12517TIP3   OH258965   5.694   1.990  14.755  0.1055 -0.0932  0.0808
12517TIP3    H158966   5.648   1.907  14.746 -1.8981  0.8887  0.7157
12517TIP3    H258967   5.625   2.056  14.744  0.9020  1.4124  3.4027
12518TIP3   OH258968   3.833   1.008  13.968  0.1606 -0.0862  0.0796
12518TIP3    H158969   3.815   1.085  14.022  0.1051 -0.0801  0.0514
12518TIP3    H258970   3.905   1.035  13.911 -0.1960  0.1091 -0.2771
12519TIP3   OH258971   2.489   2.672  16.144 -0.1458  0.4167 -0.4751
12519TIP3    H158972   2.572   2.691  16.187 -1.7628  3.8104  1.3785
12519TIP3    H258973   2.474   2.579  16.160  1.1924  0.7373  2.9857
12520TIP3   OH258974   2.157   2.687   3.661  0.2301 -0.0442 -0.1579
12520TIP3    H158975   2.173   2.777   3.689  0.5341  0.3801 -1.6513
12520TIP3    H258976   2.197   2.681   3.575 -1.1102 -1.1737 -0.7243
12521TIP3   OH258977   6.283   0.570   3.718 -0.9761  0.0448  0.0116
12521TIP3    H158978   6.208   0.631   3.713 -1.0567 -0.0231  0.3674
12521TIP3    H258979   6.297   0.558   3.812  1.5220  2.5711  0.0508
12522TIP3   OH258980   1.004   5.543  15.773 -0.0481 -0.0023  0.5120
12522TIP3    H158981   1.091   5.558  15.810  0.5836  1.9084 -1.6957
12522TIP3    H258982   0.949   5.613  15.810  0.0662  0.5934 -0.4426
12523TIP3   OH258983   4.602   1.135  15.604 -0.5058 -0.2122  0.5232
12523TIP3    H158984   4.512   1.120  15.575 -0.3993  1.1730 -0.5886
12523TIP3    H258985   4.594   1.150  15.698 -1.5440  0.6880  0.3018
12524TIP3   OH258986   2.882   2.579   5.395  0.3390  0.2562 -0.3509
12524TIP3    H158987   2.958   2.531   5.429 -0.6293 -1.6291 -0.7588
12524TIP3    H258988   2.888   2.569   5.300  0.7046  1.8914 -0.5211
12525TIP3   OH258989   3.005   3.490  11.727 -0.2060 -0.0266  0.4116
12525TIP3    H158990   2.920   3.518  11.693 -0.7884 -1.0841  0.9529
12525TIP3    H258991   3.057   3.469  11.650 -0.4084  0.7069  0.0753
12526TIP3   OH258992   0.036   0.407  11.642 -0.0313  0.0706 -0.0531
12526TIP3    H158993   0.013   0.327  11.689  0.2570 -0.1523 -0.2906
12526TIP3    H258994  -0.048   0.441  11.610 -0.1562 -0.1262  0.0644
12527TIP3   OH258995   5.674   2.677   5.445  0.0625  0.7063 -0.3391
12527TIP3    H158996   5.586   2.697   5.412 -0.8486 -0.9379  1.0412
12527TIP3    H258997   5.679   2.581   5.442  1.9339  0.7975 -0.6815
12528TIP3   OH258998   6.143   3.051  11.276  0.0162 -0.4273  0.7555
12528TIP3    H158999   6.117   3.092  11.359  1.5645 -1.2046  1.6494
12528TIP3    H259000   6.127   3.118  11.210 -2.2127 -0.1338  1.5202
12529TIP3   OH259001   2.311   4.339   5.557 -0.2004 -0.4372 -0.1135
12529TIP3    H159002   2.300   4.248   5.531 -1.2622 -1.1394  2.5536
12529TIP3    H259003   2.250   4.388   5.502  0.3393 -1.3293 -1.5218
12530TIP3   OH259004   3.283   0.101   3.148  0.0223 -0.3560 -0.9479
12530TIP3    H159005   3.368   0.114   3.105 -0.3515 -1.6399 -2.1060
12530TIP3    H259006   3.305   0.085   3.239  0.7728  3.5420 -0.3263
12531TIP3   OH259007   5.314   4.767   3.253  0.3534 -0.0207 -0.2258
12531TIP3    H159008   5.257   4.811   3.190 -0.0768 -0.5390 -0.2084
12531TIP3    H259009   5.285   4.676   3.252 -0.2734  0.1335  1.3767
12532TIP3   OH259010   4.251   0.487  15.364 -0.6138 -0.1081  0.1588
12532TIP3    H159011   4.219   0.431  15.293  1.1860 -0.0683 -0.7165
12532TIP3    H259012   4.312   0.431  15.412  0.8231  0.9343 -0.4291
12533TIP3   OH259013   6.531   1.373  10.808 -0.3682  0.0856  0.1815
12533TIP3    H159014   6.514   1.283  10.837  0.3366 -0.1292 -0.0725
12533TIP3    H259015   6.445   1.405  10.779 -0.2145 -1.2949 -1.9230
12534TIP3   OH259016   4.966   6.330  10.506  0.2620  0.4300 -0.0144
12534TIP3    H159017   5.054   6.361  10.525  0.7412 -2.1033  2.3304
12534TIP3    H259018   4.913   6.363  10.579 -0.3839  0.5572 -0.5381
12535TIP3   OH259019   6.325   0.094  15.199 -0.4967 -0.4924 -0.3633
12535TIP3    H159020   6.303   0.179  15.160 -1.5733 -0.2701  0.6811
12535TIP3    H259021   6.414   0.075  15.169  0.4257  1.8295  0.7654
12536TIP3   OH259022   0.193   1.589   1.185  0.9902 -0.0585 -0.3172
12536TIP3    H159023   0.210   1.681   1.164  1.0337 -0.0178 -0.1082
12536TIP3    H259024   0.108   1.590   1.231  0.4382 -0.2555 -1.3191
12537TIP3   OH259025   1.325   4.310  11.160  0.2495 -0.8411 -0.0491
12537TIP3    H159026   1.406   4.285  11.205 -0.6202 -1.0749  1.4109
12537TIP3    H259027   1.305   4.398  11.193  0.1895 -0.5636 -0.8133
12538TIP3   OH259028   4.381   3.347   6.178  0.6551  0.1905 -0.2726
12538TIP3    H159029   4.417   3.408   6.242 -1.1295  1.4460 -0.4208
12538TIP3    H259030   4.325   3.401   6.122 -1.6099 -1.6997  0.0801
12539TIP3   OH259031   2.113   0.875   2.842 -0.6174  0.3713  0.3485
12539TIP3    H159032   2.051   0.852   2.774 -0.7318  3.1769 -0.5323
12539TIP3    H259033   2.063   0.868   2.924 -1.1209 -0.6571 -0.0371
12540TIP3   OH259034   2.809   0.091  11.514 -0.2672 -0.6089 -0.1431
12540TIP3    H159035   2.855   0.173  11.534 -0.2088 -0.8097  0.5447
12540TIP3    H259036   2.861   0.023  11.558  0.1113 -1.1018 -1.3297
12541TIP3   OH259037   5.128   5.040  15.405  0.6069  0.4613 -0.2130
12541TIP3    H159038   5.157   4.963  15.453  0.4514  1.0170  0.7968
12541TIP3    H259039   5.151   5.022  15.314  1.5646 -0.3088  0.1672
12542TIP3   OH259040   1.589   3.254  15.013 -0.6094  0.2995 -0.2038
12542TIP3    H159041   1.626   3.329  14.967 -0.7227  0.4866  0.0100
12542TIP3    H259042   1.626   3.178  14.968  2.4559  0.4572  1.8802
12543TIP3   OH259043   2.639   1.858   3.052 -0.2988 -0.2048  0.0455
12543TIP3    H159044   2.660   1.828   2.964  0.7116  0.1469  0.1581
12543TIP3    H259045   2.544   1.849   3.059 -0.4600  0.3636 -1.2986
12544TIP3   OH259046   1.325   0.125   1.895 -0.2884 -0.0767  0.1156
12544TIP3    H159047   1.242   0.166   1.919  0.1860 -0.2808  2.2672
12544TIP3    H259048   1.304   0.032   1.888 -0.0765 -0.2536  1.6081
12545TIP3   OH259049   1.262   0.602  14.514  0.7910 -0.6116  0.0142
12545TIP3    H159050   1.268   0.668  14.445  1.3569 -1.4392 -0.7277
12545TIP3    H259051   1.275   0.651  14.595 -0.9383  0.5505 -0.3666
12546TIP3   OH259052   3.802   5.990   3.540 -0.5209 -0.1492 -0.6443
12546TIP3    H159053   3.812   5.961   3.449  2.6319 -0.2590 -0.3125
12546TIP3    H259054   3.824   5.913   3.592 -0.5799  0.4168  0.2297
12547TIP3   OH259055   6.599   0.139   4.662  0.2767  0.2737  0.0203
12547TIP3    H159056   6.602   0.195   4.740  0.9941 -1.1557  1.0303
12547TIP3    H259057   6.660   0.180   4.601  1.2706  0.2627  0.9899
12548TIP3   OH259058   2.373   6.438   5.079 -0.5195  0.2553  0.3381
12548TIP3    H159059   2.397   6.345   5.083  0.2435  0.4325  0.1221
12548TIP3    H259060   2.394   6.471   5.166  1.4869  0.7383 -0.2900
12549TIP3   OH259061   0.080   5.325   3.355  0.3118  0.3187 -0.1113
12549TIP3    H159062   0.040   5.258   3.410 -0.5233 -0.5186 -1.7062
12549TIP3    H259063   0.063   5.296   3.265  2.0153  1.4273 -0.8265
12550TIP3   OH259064   4.608   6.764   5.839  0.4366 -0.6748  0.2840
12550TIP3    H159065   4.557   6.817   5.901 -0.0816 -0.2760 -0.4811
12550TIP3    H259066   4.547   6.745   5.768  1.1216 -0.8845 -0.2456
12551TIP3   OH259067   4.853   4.002   1.132 -0.0367  0.1440  0.9775
12551TIP3    H159068   4.839   3.966   1.220 -0.4862  1.5188  1.4860
12551TIP3    H259069   4.828   4.095   1.140  2.0989  0.8319 -0.0377
12552TIP3   OH259070   4.112   6.129  15.259  0.1599  0.2017  0.2045
12552TIP3    H159071   4.191   6.152  15.309  0.2786 -0.7408  0.4512
12552TIP3    H259072   4.107   6.034  15.265  0.2385  0.0574 -1.6535
12553TIP3   OH259073   6.666   5.925   1.963 -0.3194 -0.7332 -0.4808
12553TIP3    H159074   6.605   5.851   1.963  0.8638 -1.7109 -1.4822
12553TIP3    H259075   6.678   5.946   1.871  0.4624 -0.2069 -0.2579
12554TIP3   OH259076   1.768   5.046  14.344  0.0414 -0.2224  0.0587
12554TIP3    H159077   1.679   5.063  14.312 -0.4532 -0.4743  1.2472
12554TIP3    H259078   1.759   4.966  14.396  1.1149 -0.6609 -0.4178
12555TIP3   OH259079   5.607   0.880   1.167 -0.4890  0.1094  0.2222
12555TIP3    H159080   5.520   0.910   1.193 -0.2383  2.9717 -1.9811
12555TIP3    H259081   5.592   0.794   1.126 -2.0984  0.0185  0.9774
12556TIP3   OH259082   6.196   6.649   1.178  0.6177 -0.8446  0.1726
12556TIP3    H159083   6.149   6.603   1.246  1.1995  1.0715  1.9353
12556TIP3    H259084   6.267   6.695   1.224  0.0250  1.8456 -1.4351
12557TIP3   OH259085   0.256   6.588  17.084 -0.0449 -0.1814  0.5579
12557TIP3    H159086   0.258   6.656  17.016  1.9389 -1.7144 -0.9810
12557TIP3    H259087   0.163   6.570  17.096 -0.4583  0.2779 -1.6194
12558TIP3   OH259088   2.273   1.317  16.851 -0.1326 -0.0804  0.5810
12558TIP3    H159089   2.251   1.334  16.942 -1.2192 -1.8518  0.6693
12558TIP3    H259090   2.193   1.340  16.803  0.5607  1.2165  0.0116
12559TIP3   OH259091   2.408   2.025  14.155  0.6747  0.0997 -0.0024
12559TIP3    H159092   2.352   2.016  14.232  1.2743  0.6304  0.5024
12559TIP3    H259093   2.496   2.004  14.187  0.9168  0.2435 -0.5607
12560TIP3   OH259094   2.543   3.197  14.760  0.2135 -0.0004 -0.0075
12560TIP3    H159095   2.502   3.176  14.676  1.2962 -1.3043 -0.2362
12560TIP3    H259096   2.556   3.292  14.758 -0.9064  0.1489 -0.7713
12561TIP3   OH259097   3.241   5.671  15.979  0.4084  0.0702  0.4816
12561TIP3    H159098   3.318   5.701  16.028 -0.7744  2.7034  0.7558
12561TIP3    H259099   3.259   5.696  15.889 -1.0391  2.6698  0.8674
12562TIP3   OH259100   0.134   6.254   0.888 -0.7769  0.0015  0.5301
12562TIP3    H159101   0.205   6.306   0.850 -0.5285 -0.2778  0.6012
12562TIP3    H259102   0.119   6.184   0.825  0.0074 -0.7754  1.1759
12563TIP3   OH259103   5.773   2.152  16.406 -0.3428 -0.3199  0.2965
12563TIP3    H159104   5.830   2.114  16.473 -1.3402 -0.1984  1.2252
12563TIP3    H259105   5.823   2.145  16.325  1.4378  0.8034  1.2849
12564TIP3   OH259106   3.556   6.484  13.832  0.1647  0.1818  1.1578
12564TIP3    H159107   3.479   6.469  13.778 -0.5860  2.2870  1.6086
12564TIP3    H259108   3.521   6.511  13.917  1.3842  1.2051  1.3524
12565TIP3   OH259109   0.988   5.676   2.018  0.3053 -0.2377  0.1767
12565TIP3    H159110   0.996   5.725   1.936 -1.6140 -0.7150 -0.3103
12565TIP3    H259111   0.894   5.663   2.030  0.6841 -2.3354  1.1793
12566TIP3   OH259112   3.618   6.003   5.207  0.1638 -0.1422  0.2409
12566TIP3    H159113   3.584   6.091   5.193  0.0211  0.0664  1.8233
12566TIP3    H259114   3.607   5.987   5.301  0.9488 -1.5240  0.1181
12567TIP3   OH259115   6.685   2.792  15.196 -0.2065  0.0381  0.7337
12567TIP3    H159116   6.669   2.878  15.156  1.0208 -0.6169 -1.2008
12567TIP3    H259117   6.776   2.796  15.226 -0.3316 -0.3799  1.1712
12568TIP3   OH259118   0.997   1.289   3.983 -0.5829  0.1825  0.1376
12568TIP3    H159119   0.990   1.345   4.060 -3.7524  0.6819 -0.4590
12568TIP3    H259120   1.083   1.249   3.991  0.6856  3.0779  1.9811
12569TIP3   OH259121   3.139   4.774  16.497  0.3313  0.8815 -0.0455
12569TIP3    H159122   3.067   4.833  16.477 -0.4456  0.3506  1.1448
12569TIP3    H259123   3.139   4.711  16.424 -0.5880  0.7202  0.0839
12570TIP3   OH259124   4.870   6.199   1.939  0.3048 -0.3993  0.0975
12570TIP3    H159125   4.829   6.225   1.857 -0.0668 -0.0901  0.3746
12570TIP3    H259126   4.961   6.227   1.931 -0.0471  0.8188  0.3109
12571TIP3   OH259127   5.775   1.997   2.750  0.0870 -0.1945 -0.1059
12571TIP3    H159128   5.826   2.026   2.826 -0.8953  0.6187  0.2498
12571TIP3    H259129   5.684   1.998   2.780 -0.2910 -0.0153 -1.2377
12572TIP3   OH259130   0.803   5.092  15.197  0.1922  0.1334  0.0270
12572TIP3    H159131   0.867   5.124  15.134  0.1058  0.5842  0.1667
12572TIP3    H259132   0.724   5.143  15.179 -0.0518 -0.2455  0.0187
12573TIP3   OH259133   0.979   1.845   1.107 -0.4464  1.1343 -0.7197
12573TIP3    H159134   0.935   1.761   1.109 -2.1637  1.9930 -1.5105
12573TIP3    H259135   1.023   1.847   1.022  1.3045  0.2110  0.1348
12574TIP3   OH259136   6.675   1.542   5.439  0.1863  0.0242  0.4477
12574TIP3    H159137   6.735   1.474   5.408  1.3390  0.0869  2.4358
12574TIP3    H259138   6.681   1.538   5.534  0.3836  2.9992  0.6209
12575TIP3   OH259139   3.349   4.999  15.199 -0.0304 -0.1186 -0.5140
12575TIP3    H159140   3.353   5.057  15.123 -1.0969 -1.1485 -1.3767
12575TIP3    H259141   3.314   4.917  15.165 -0.3524 -0.6560  1.0537
12576TIP3   OH259142   0.402   0.561   2.600  0.0516 -0.0330 -0.9221
12576TIP3    H159143   0.426   0.523   2.515 -0.5023 -0.7258 -0.7765
12576TIP3    H259144   0.462   0.634   2.612 -0.3386  0.5122 -2.2436
12577TIP3   OH259145   2.490   1.590  15.738 -0.3177  0.3937  0.1001
12577TIP3    H159146   2.550   1.618  15.669  0.6975 -1.2295  0.3036
12577TIP3    H259147   2.442   1.516  15.701  0.5113 -0.7422  1.2254
12578TIP3   OH259148   3.173   1.528  11.507  0.7425 -0.0141 -0.5199
12578TIP3    H159149   3.195   1.612  11.548  0.1159 -0.1750  0.1639
12578TIP3    H259150   3.078   1.524  11.509  0.8010 -1.6134  1.3170
12579TIP3   OH259151   1.809   3.343   1.223 -0.0082 -0.0555  0.9972
12579TIP3    H159152   1.776   3.285   1.154  3.1326 -0.5970 -0.1267
12579TIP3    H259153   1.823   3.285   1.298  0.4433 -0.2360  0.7765
12580TIP3   OH259154   5.662   2.989  15.846 -0.4487 -0.0496 -0.4247
12580TIP3    H159155   5.746   2.979  15.803 -1.2662  1.6094 -2.4842
12580TIP3    H259156   5.605   3.027  15.779 -2.7614 -0.8691  1.0110
12581TIP3   OH259157   1.659   1.769   5.734 -0.1433 -0.3020  0.0455
12581TIP3    H159158   1.710   1.694   5.703 -1.3196 -0.5825 -1.3000
12581TIP3    H259159   1.630   1.744   5.821 -1.1590 -1.7778 -0.6792
12582TIP3   OH259160   6.422   3.529  10.571  0.1020  0.2891 -0.1550
12582TIP3    H159161   6.480   3.587  10.522 -0.4590 -0.6561 -2.0052
12582TIP3    H259162   6.337   3.538  10.528 -0.8115  0.6596  1.6944
12583TIP3   OH259163   4.072   6.640   3.633 -0.5032  0.2615  0.2664
12583TIP3    H159164   3.980   6.615   3.627 -0.3905  0.2048 -1.3270
12583TIP3    H259165   4.111   6.573   3.690 -1.6970  1.0266  2.0127
12584TIP3   OH259166   1.571   4.987  12.904 -0.2997  0.0428 -0.2117
12584TIP3    H159167   1.582   4.949  12.991 -1.2166  3.4319  1.4515
12584TIP3    H259168   1.659   5.018  12.881  0.0958 -1.4964 -0.8488
12585TIP3   OH259169   3.459   2.934  14.116  0.0098 -0.3442  0.8263
12585TIP3    H159170   3.498   2.965  14.197 -0.4341  3.7260 -0.4222
12585TIP3    H259171   3.529   2.941  14.051 -0.5182 -0.6607  0.2152
12586TIP3   OH259172   2.013   3.323  12.755 -0.1194  0.3909 -0.1834
12586TIP3    H159173   1.970   3.368  12.682  2.1537  1.0991 -1.1061
12586TIP3    H259174   2.010   3.385  12.827  1.1866  1.2438 -0.8557
12587TIP3   OH259175   6.609   6.786  15.093 -0.1931  0.3286  0.2984
12587TIP3    H159176   6.621   6.711  15.035 -0.9099  1.6251 -1.5586
12587TIP3    H259177   6.685   6.783  15.151  0.1293 -1.4508 -0.1806
12588TIP3   OH259178   4.763   3.230  15.142 -0.8297 -0.8280  0.3162
12588TIP3    H159179   4.751   3.286  15.066 -1.3795 -0.3940  0.7121
12588TIP3    H259180   4.833   3.272  15.192 -2.4503  0.5304  1.5180
12589TIP3   OH259181   5.152   4.756   4.370 -0.0148 -0.2754 -0.2114
12589TIP3    H159182   5.098   4.677   4.363 -0.3592 -0.1430  0.8824
12589TIP3    H259183   5.173   4.762   4.464  3.1302 -1.1734 -0.7830
12590TIP3   OH259184   6.414   4.337  13.880  0.5408 -0.1086 -0.1440
12590TIP3    H159185   6.416   4.411  13.820 -0.8884  0.5113  0.5332
12590TIP3    H259186   6.477   4.360  13.949 -0.9411  1.1620  0.8130
12591TIP3   OH259187   4.574   2.525  12.670  0.0756 -0.5836  0.3778
12591TIP3    H159188   4.504   2.535  12.735 -0.0728  1.7611 -0.1019
12591TIP3    H259189   4.630   2.600  12.684  1.1413 -1.1299 -0.9118
12592TIP3   OH259190   4.272   3.746   3.938  0.0176  0.5067 -0.2341
12592TIP3    H159191   4.265   3.660   3.980  1.4555  0.7950  0.6428
12592TIP3    H259192   4.245   3.807   4.006 -0.9197  0.7653 -0.8318
12593TIP3   OH259193   3.366   3.888  13.656 -0.1442 -0.1286  0.1436
12593TIP3    H159194   3.460   3.874  13.648 -0.4207 -0.7356 -2.3484
12593TIP3    H259195   3.343   3.852  13.742  1.4077 -2.6714 -0.4894
12594TIP3   OH259196   2.058   5.763  12.841 -0.1401 -0.5996 -0.2220
12594TIP3    H159197   2.063   5.685  12.787 -3.0938 -1.2346  0.3769
12594TIP3    H259198   1.965   5.783  12.848  0.4448  2.0684  0.9486
12595TIP3   OH259199   4.349   3.812  13.017 -0.6257  0.1572 -0.0648
12595TIP3    H159200   4.396   3.760  13.082 -1.5169  1.2627  1.5124
12595TIP3    H259201   4.275   3.757  12.991  0.0559 -0.5202 -0.5790
12596TIP3   OH259202   2.062   2.728   1.652  0.3138  0.5112  0.6359
12596TIP3    H159203   2.075   2.638   1.621  0.0940  0.3472  1.0233
12596TIP3    H259204   2.091   2.783   1.579  0.6815  0.1271  0.4940
12597TIP3   OH259205   5.846   0.225  13.521  0.1992 -0.7328  0.5384
12597TIP3    H159206   5.777   0.290  13.530 -0.4019 -1.5165  1.7862
12597TIP3    H259207   5.921   0.274  13.489 -0.9710  0.1069 -1.0483
12598TIP3   OH259208   6.580   6.241   5.267  0.2182 -0.1570 -0.0160
12598TIP3    H159209   6.513   6.248   5.199 -0.2707  1.0213  0.5765
12598TIP3    H259210   6.615   6.330   5.276 -1.6523  0.3213  3.2055
12599TIP3   OH259211   2.200   1.596  10.405 -0.4003  0.0831  0.2824
12599TIP3    H159212   2.137   1.537  10.364  0.1735 -0.0148 -0.4790
12599TIP3    H259213   2.190   1.678  10.356  2.6796 -1.0231 -2.4209
12600TIP3   OH259214   1.909   4.640   1.482  0.4641 -0.1679  0.2083
12600TIP3    H159215   1.927   4.546   1.477 -0.5148 -0.3005 -1.0990
12600TIP3    H259216   1.953   4.677   1.406  1.5465  0.5613  1.1780
12601TIP3   OH259217   5.138   5.870  17.236 -0.3027 -0.1357 -0.0328
12601TIP3    H159218   5.107   5.873  17.146  0.9710  1.2281 -0.4515
12601TIP3    H259219   5.164   5.960  17.255  0.3865 -0.6190  1.3590
12602TIP3   OH259220   4.868   6.297  11.121 -0.1317 -0.2484  0.4540
12602TIP3    H159221   4.856   6.340  11.205  0.0158  1.7451 -0.5213
12602TIP3    H259222   4.781   6.265  11.098  0.0419 -1.8140  1.8706
12603TIP3   OH259223   0.489   1.145  15.344 -0.5679  0.0442 -0.3001
12603TIP3    H159224   0.452   1.231  15.360  0.6827  0.6209 -0.4543
12603TIP3    H259225   0.584   1.159  15.344 -0.3473 -1.3686 -0.0749
12604TIP3   OH259226   4.793   4.847   2.524 -0.3345 -0.4879 -0.3213
12604TIP3    H159227   4.861   4.873   2.462 -2.0493  0.0304 -2.0156
12604TIP3    H259228   4.841   4.801   2.593  1.6737 -0.6144 -1.7454
12605TIP3   OH259229   3.262   0.845   0.097  0.5364  0.4849 -0.5528
12605TIP3    H159230   3.199   0.883   0.159  1.0653  3.2574 -1.6524
12605TIP3    H259231   3.292   0.919   0.045  1.4048 -1.5230 -3.0062
12606TIP3   OH259232   6.720   4.899  11.284  0.4622 -0.4349  0.3179
12606TIP3    H159233   6.739   4.981  11.238 -2.3882  0.4333  0.6160
12606TIP3    H259234   6.806   4.864  11.308  1.8829  0.5807 -3.0626
12607TIP3   OH259235   0.645   4.423  14.290 -0.4482  0.4667 -0.8444
12607TIP3    H159236   0.695   4.367  14.349 -1.1254  0.6540 -0.0884
12607TIP3    H259237   0.701   4.500  14.278 -0.5568  0.6874  0.0160
12608TIP3   OH259238   2.033   3.291  15.654  0.4390 -0.4343 -0.7137
12608TIP3    H159239   2.102   3.250  15.602  1.3338  1.6067 -1.2128
12608TIP3    H259240   2.075   3.315  15.736  1.1559  3.2158 -2.0157
12609TIP3   OH259241   3.515   1.118   0.428  0.4608 -0.5025 -0.4102
12609TIP3    H159242   3.592   1.139   0.481 -0.6947  0.1704  1.0434
12609TIP3    H259243   3.472   1.047   0.476  1.0879 -2.1139 -2.1374
12610TIP3   OH259244   3.195   6.356   1.774  0.3200 -0.0452  0.0739
12610TIP3    H159245   3.221   6.367   1.866 -1.1491 -1.3032  0.6624
12610TIP3    H259246   3.277   6.360   1.726  1.0089  1.6384  1.3434
12611TIP3   OH259247   0.535   3.643  10.757  0.3331  0.6072 -0.4602
12611TIP3    H159248   0.470   3.714  10.756 -0.3877 -0.0301  0.3221
12611TIP3    H259249   0.611   3.680  10.713 -0.1086  1.8066 -0.2447
12612TIP3   OH259250   0.350   4.361   1.981  0.5103 -0.0862 -0.7914
12612TIP3    H159251   0.310   4.282   1.943  0.7622 -0.7916  0.3765
12612TIP3    H259252   0.373   4.335   2.070  1.0027  1.1859 -0.5423
12613TIP3   OH259253   0.598   4.659   1.465  0.0259  0.2895  0.2870
12613TIP3    H159254   0.535   4.610   1.411  1.7076 -0.0637 -1.3896
12613TIP3    H259255   0.669   4.598   1.481  0.2498  0.8912  1.6429
12614TIP3   OH259256   2.095   5.545   2.232  0.1710 -0.7133  0.3000
12614TIP3    H159257   2.040   5.542   2.154  2.2993 -1.6690 -1.1940
12614TIP3    H259258   2.131   5.634   2.233  2.0452 -1.4265 -1.1839
12615TIP3   OH259259   2.592   2.579  13.662  0.0616 -0.1015 -0.0565
12615TIP3    H159260   2.597   2.556  13.755  0.2148  0.3452  0.0467
12615TIP3    H259261   2.498   2.575  13.642 -0.2226  1.9437  0.6740
12616TIP3   OH259262   6.095   2.027   6.296  0.5463 -0.5631  0.5126
12616TIP3    H159263   6.002   2.049   6.287  0.4350 -1.4155 -0.5429
12616TIP3    H259264   6.096   1.956   6.359  0.3782 -1.2121 -0.2072
12617TIP3   OH259265   3.152   1.033  14.591  0.5515 -0.8310 -0.4553
12617TIP3    H159266   3.178   0.975  14.519  1.9163 -0.7532 -0.0524
12617TIP3    H259267   3.231   1.039  14.646  0.7943  2.2373 -1.0421
12618TIP3   OH259268   1.930   1.162  15.007  0.2636 -0.5196  0.0348
12618TIP3    H159269   1.932   1.202  14.920 -0.5812 -0.3446  0.0984
12618TIP3    H259270   1.932   1.237  15.068  0.3579 -0.6267  0.1631
12619TIP3   OH259271   4.108   0.767   4.099 -0.3764 -0.0979 -0.3690
12619TIP3    H159272   4.116   0.687   4.151  0.0073  0.2632  0.1340
12619TIP3    H259273   4.174   0.826   4.135 -1.1621  0.7226 -0.2328
12620TIP3   OH259274   3.780   6.543   4.574 -0.5434 -0.7742 -0.6110
12620TIP3    H159275   3.829   6.610   4.527  2.1739 -1.6331  0.9195
12620TIP3    H259276   3.724   6.592   4.635 -0.4640  0.1702 -1.2939
12621TIP3   OH259277   0.581   2.015  10.454  0.8934 -0.0776  0.7959
12621TIP3    H159278   0.563   2.007  10.548  0.4451  0.5488  0.7645
12621TIP3    H259279   0.632   2.096  10.446  1.0514 -0.2029  0.5099
12622TIP3   OH259280   3.853   6.655  16.695 -0.1562  0.2617 -0.0859
12622TIP3    H159281   3.805   6.652  16.778  1.4796  1.3876  0.9228
12622TIP3    H259282   3.929   6.599  16.710 -0.0545  0.1643 -0.9635
12623TIP3   OH259283   6.329   4.095  14.009  0.1546 -0.0408 -0.5021
12623TIP3    H159284   6.234   4.093  14.015  0.3176  0.2529  3.3321
12623TIP3    H259285   6.348   4.173  13.957 -1.6613  0.8348  0.1066
12624TIP3   OH259286   0.502   0.019  15.797  0.0136 -0.1166  0.0493
12624TIP3    H159287   0.476   0.084  15.862 -3.6098 -0.9466 -0.4589
12624TIP3    H259288   0.496  -0.065  15.844  2.5080 -0.3138  0.0769
12625TIP3   OH259289   2.561   6.689   1.815 -0.5915 -0.4393  0.3893
12625TIP3    H159290   2.606   6.624   1.869  0.9353 -1.1107 -1.6295
12625TIP3    H259291   2.628   6.719   1.753 -1.7818  1.7026  0.0894
12626TIP3   OH259292   4.246   3.970  15.265  0.1836  0.4429  0.3742
12626TIP3    H159293   4.205   3.886  15.287  1.2436 -0.0841  0.3534
12626TIP3    H259294   4.225   4.027  15.340 -2.4132  0.8546 -0.6044
12627TIP3   OH259295   5.665   3.801  12.590  0.4487  0.2147  0.9036
12627TIP3    H159296   5.710   3.873  12.546  0.0598 -0.6296 -0.9478
12627TIP3    H259297   5.683   3.814  12.683  1.8354  1.7004  0.4479
12628TIP3   OH259298   1.811   1.014  14.399  0.0436  0.0328 -0.7665
12628TIP3    H159299   1.769   1.057  14.473 -0.2275  0.3803 -1.1229
12628TIP3    H259300   1.886   0.969  14.438 -1.7048 -2.1442  0.1418
12629TIP3   OH259301   0.001   1.537   5.710 -0.5791  0.1337 -0.3561
12629TIP3    H159302  -0.014   1.601   5.780 -1.7860  0.3590 -0.8109
12629TIP3    H259303   0.095   1.544   5.691 -0.8931  2.5347 -1.1480
12630TIP3   OH259304   6.228   5.037  15.260 -0.4709 -0.0146 -0.5431
12630TIP3    H159305   6.200   4.954  15.299  1.8796 -0.5530  0.0998
12630TIP3    H259306   6.295   5.070  15.320  1.6466  0.2477 -2.9752
12631TIP3   OH259307   2.477   5.477  11.777  0.1097 -0.4933 -0.5927
12631TIP3    H159308   2.383   5.472  11.757  0.7605 -0.1318 -3.9182
12631TIP3    H259309   2.516   5.405  11.729  1.7676  0.4901 -0.7641
12632TIP3   OH259310   0.904   4.761  15.400  0.3624 -0.0877  0.5239
12632TIP3    H159311   0.973   4.778  15.464 -0.2186  1.2767  0.7910
12632TIP3    H259312   0.943   4.699  15.339  1.7851  0.5948  0.7330
12633TIP3   OH259313   3.754   6.388  11.786  0.1604  0.2850 -0.0576
12633TIP3    H159314   3.732   6.452  11.854  1.4398  1.6732 -0.8996
12633TIP3    H259315   3.691   6.405  11.717 -0.4378 -0.3707  0.3271
12634TIP3   OH259316   6.061   5.780  15.242  0.3942  0.1042  0.0050
12634TIP3    H159317   6.085   5.845  15.175  2.8126 -0.9708 -0.2287
12634TIP3    H259318   6.023   5.832  15.313  0.8883  1.6126 -0.8068
12635TIP3   OH259319   4.784   1.120  14.830  0.6980  0.6712 -0.1315
12635TIP3    H159320   4.839   1.048  14.799  0.6435 -0.1662  1.6515
12635TIP3    H259321   4.800   1.123  14.925  0.0207  2.4348 -0.0559
12636TIP3   OH259322   4.672   2.040   5.855 -0.2185 -0.4876 -0.1697
12636TIP3    H159323   4.706   2.129   5.864  1.3525 -1.0561 -0.2982
12636TIP3    H259324   4.595   2.037   5.912  2.2881 -0.3590  3.4048
12637TIP3   OH259325   5.938   1.964  11.978  0.3192 -0.1332 -0.6144
12637TIP3    H159326   5.907   1.911  12.051  0.1094  0.1536 -0.4972
12637TIP3    H259327   5.866   2.023  11.958  0.4339 -0.1047 -0.9553
12638TIP3   OH259328   2.589   3.055  12.275 -0.4751  0.0100 -0.1193
12638TIP3    H159329   2.522   3.030  12.212  0.6505 -1.8664 -0.6094
12638TIP3    H259330   2.586   3.151  12.277 -2.6784 -0.0218 -0.6331
12639TIP3   OH259331   2.131   6.322   0.614 -0.1161 -0.3195 -0.1836
12639TIP3    H159332   2.133   6.405   0.567  0.7407 -0.3248 -0.1748
12639TIP3    H259333   2.202   6.270   0.575 -0.8854 -1.1913 -0.4470
12640TIP3   OH259334   2.169   2.501  11.588  0.0981  0.3133  0.2378
12640TIP3    H159335   2.126   2.511  11.673  0.1292  0.3465  0.2497
12640TIP3    H259336   2.125   2.564  11.531  0.3895  0.6125  0.3472
12641TIP3   OH259337   2.518   5.197   2.853 -0.0196 -0.2678 -0.3415
12641TIP3    H159338   2.588   5.217   2.915  0.2986 -0.0117 -0.7807
12641TIP3    H259339   2.467   5.129   2.896  1.5352 -1.7420 -0.7776
12642TIP3   OH259340   6.423   4.409  11.831 -0.0487 -0.2417 -0.0600
12642TIP3    H159341   6.373   4.335  11.866 -2.1441  1.0782 -0.1616
12642TIP3    H259342   6.454   4.455  11.909 -0.1958 -0.2840  0.0242
12643TIP3   OH259343   4.694   1.000   3.088  0.0537 -0.1572 -0.3532
12643TIP3    H159344   4.635   0.926   3.078  0.5515 -0.4312 -1.3884
12643TIP3    H259345   4.646   1.075   3.053  0.7200 -0.5895 -2.2563
12644TIP3   OH259346   3.405   6.333   6.011  0.2084 -0.6052  0.1000
12644TIP3    H159347   3.372   6.330   6.101  0.2738 -0.8158  0.1174
12644TIP3    H259348   3.327   6.319   5.956  0.3263 -1.4979  0.1500
12645TIP3   OH259349   5.754   2.831   5.042 -0.0872  0.3221 -0.1822
12645TIP3    H159350   5.725   2.887   4.970 -0.5329  0.0613 -0.2071
12645TIP3    H259351   5.746   2.886   5.120  0.6028  0.6745 -0.3568
12646TIP3   OH259352   5.082   0.673   1.952 -0.3026  0.2511  0.2999
12646TIP3    H159353   5.019   0.707   1.888  1.4368  1.4695 -0.8040
12646TIP3    H259354   5.056   0.714   2.035  0.5229  2.7504 -0.6248
12647TIP3   OH259355   3.196   4.594   4.133  0.2686 -0.1757 -0.0184
12647TIP3    H159356   3.238   4.658   4.077 -1.8243  1.0037 -0.2997
12647TIP3    H259357   3.219   4.621   4.222 -0.3427  0.8022 -0.1457
12648TIP3   OH259358   2.458   0.105   2.745 -0.0821 -0.3290 -0.3789
12648TIP3    H159359   2.437   0.065   2.829 -1.8525  0.0771 -0.6029
12648TIP3    H259360   2.550   0.084   2.730 -0.0553 -1.3377  1.1343
12649TIP3   OH259361   6.647   1.034   3.770  0.4853 -0.5640 -0.0081
12649TIP3    H159362   6.558   1.010   3.795  0.4988  0.0654  0.6673
12649TIP3    H259363   6.690   0.950   3.750 -0.7080 -0.7409 -1.9320
12650TIP3   OH259364   3.969   5.566   4.049 -0.1586  0.0592 -0.5515
12650TIP3    H159365   3.993   5.561   4.141 -1.3133 -0.9093 -0.2853
12650TIP3    H259366   3.880   5.532   4.045 -0.7313  1.5956 -1.8023
12651TIP3   OH259367   4.102   4.206  14.751 -0.4507 -0.0901  0.0307
12651TIP3    H159368   4.046   4.133  14.777 -2.1185  0.5876 -1.5532
12651TIP3    H259369   4.045   4.283  14.755  0.4828  0.6864 -1.1808
12652TIP3   OH259370   4.617   1.374   1.113 -0.7198 -0.1407 -0.1886
12652TIP3    H159371   4.707   1.343   1.127  0.2762  0.9632 -3.5823
12652TIP3    H259372   4.579   1.312   1.051 -2.5928 -0.9977  1.7517
12653TIP3   OH259373   6.107   4.092  13.443 -0.3605 -0.1586 -0.2036
12653TIP3    H159374   6.119   4.044  13.525 -0.6586 -1.6325 -1.0142
12653TIP3    H259375   6.188   4.078  13.395 -0.7839 -0.5630 -0.8038
12654TIP3   OH259376   2.398   1.326  10.758  0.2015 -0.4559 -0.4985
12654TIP3    H159377   2.364   1.409  10.791  0.0575 -1.1576  1.1553
12654TIP3    H259378   2.399   1.337  10.663 -0.7136  1.0856 -0.3490
12655TIP3   OH259379   2.178   5.235   0.857 -0.0453 -0.1664 -0.2719
12655TIP3    H159380   2.268   5.206   0.865  0.0767 -0.0563 -1.1847
12655TIP3    H259381   2.142   5.183   0.785 -0.0748  1.3129 -1.3410
12656TIP3   OH259382   5.061   5.067   4.736 -0.2322  0.7982  0.6067
12656TIP3    H159383   4.998   4.995   4.739  0.3609  0.2524 -0.1627
12656TIP3    H259384   5.136   5.035   4.786  1.0351 -0.0816 -1.8203
12657TIP3   OH259385   2.321   1.986  15.898 -0.0783  0.2586  0.4938
12657TIP3    H159386   2.348   1.952  15.983  1.5418  1.1862  0.3830
12657TIP3    H259387   2.301   1.909  15.846  1.7525 -0.4475  0.8097
12658TIP3   OH259388   3.771   4.752   5.067 -0.7108 -0.1734 -0.1332
12658TIP3    H159389   3.718   4.678   5.038 -0.9768  0.1231 -0.4061
12658TIP3    H259390   3.754   4.821   5.003 -2.2969  0.9224  1.3893
12659TIP3   OH259391   4.879   2.605  14.438 -0.3978  0.3169  0.3922
12659TIP3    H159392   4.834   2.604  14.354  0.9362 -0.5959 -0.3310
12659TIP3    H259393   4.810   2.620  14.502 -1.7607 -1.1886 -0.6716
12660TIP3   OH259394   6.500   2.919   2.068 -0.1583  0.1717 -0.4123
12660TIP3    H159395   6.458   2.849   2.020 -1.7025  0.9974 -0.2957
12660TIP3    H259396   6.514   2.883   2.156 -0.9820  0.0074 -0.3426
12661TIP3   OH259397   0.724   5.468   0.222  0.2914 -0.3600 -0.4165
12661TIP3    H159398   0.775   5.478   0.303  1.1566 -1.3658 -0.8265
12661TIP3    H259399   0.768   5.398   0.174 -1.3233 -1.0835 -0.8991
12662TIP3   OH259400   4.383   3.714   4.302 -0.1685 -0.2172 -0.0448
12662TIP3    H159401   4.325   3.788   4.283 -0.5684 -0.3123  0.7696
12662TIP3    H259402   4.366   3.651   4.231  0.9682  0.9080 -1.3523
12663TIP3   OH259403   4.496   3.877  12.418  0.4295 -0.2945 -0.6840
12663TIP3    H159404   4.525   3.802  12.367  0.2612  0.7599 -2.3443
12663TIP3    H259405   4.401   3.867  12.424  0.6951 -1.8757  1.7957
12664TIP3   OH259406   5.994   1.618   4.423 -0.3229 -0.1484  0.1392
12664TIP3    H159407   5.949   1.565   4.358 -0.7436 -0.7119  0.8850
12664TIP3    H259408   5.929   1.631   4.493 -0.3117  1.5703 -0.1617
12665TIP3   OH259409   3.590   4.998  15.831  0.0276  0.1085 -0.7156
12665TIP3    H159410   3.637   5.081  15.824  1.5493 -0.4905  1.7755
12665TIP3    H259411   3.505   5.022  15.869 -0.0934  0.6733 -1.3196
12666TIP3   OH259412   3.620   3.323   6.988  0.6122 -0.3563  0.2445
12666TIP3    H159413   3.586   3.249   6.937  0.2950 -0.2130  0.2463
12666TIP3    H259414   3.698   3.289   7.031 -0.1056 -0.9855  1.0563
12667TIP3   OH259415   1.794   6.235  12.740  0.3105 -0.5649 -0.0480
12667TIP3    H159416   1.842   6.242  12.823  2.1813 -1.0458 -1.0624
12667TIP3    H259417   1.732   6.163  12.755 -1.1804  1.0563  1.7836
12668TIP3   OH259418   2.710   0.946   0.880  0.3100 -0.0450 -0.2155
12668TIP3    H159419   2.716   0.986   0.793 -0.2695  0.8941  0.1592
12668TIP3    H259420   2.674   1.016   0.935  0.4697 -0.7023  0.7293
12669TIP3   OH259421   6.310   3.798  10.714  0.2187 -0.0174  0.8748
12669TIP3    H159422   6.387   3.741  10.718  0.8408  0.6831 -0.8580
12669TIP3    H259423   6.344   3.885  10.736  0.3986  0.7237 -2.1588
12670TIP3   OH259424   5.988   6.609   5.229  0.5045  0.0896  0.3791
12670TIP3    H159425   6.051   6.679   5.212  0.5859 -0.0681  0.0138
12670TIP3    H259426   5.916   6.652   5.275  1.5811 -0.0263  2.2426
12671TIP3   OH259427   2.261   1.282  11.311  0.2455  0.2652 -0.0592
12671TIP3    H159428   2.310   1.305  11.390  0.7124 -2.8240  0.6088
12671TIP3    H259429   2.301   1.200  11.281 -1.0489  0.5100 -2.5363
12672TIP3   OH259430   6.437   1.611  12.983 -0.6519 -0.0363 -0.1341
12672TIP3    H159431   6.468   1.531  12.941 -1.1250  0.8094 -2.1525
12672TIP3    H259432   6.517   1.656  13.011 -0.3437 -0.7935  0.2055
12673TIP3   OH259433   0.109   3.571  13.944  0.0476  0.2251  0.0055
12673TIP3    H159434   0.071   3.614  14.020 -2.2111 -1.9192  0.1142
12673TIP3    H259435   0.172   3.509  13.980 -1.0286 -0.7963  0.1507
12674TIP3   OH259436   0.691   0.032  15.604 -0.3779  0.2553 -0.4216
12674TIP3    H159437   0.661   0.119  15.576 -1.6379 -0.7814 -2.3965
12674TIP3    H259438   0.627   0.004  15.669  0.5408  1.1644  0.8997
12675TIP3   OH259439   6.148   0.568   2.578  0.2106 -0.4762  0.2583
12675TIP3    H159440   6.120   0.644   2.629 -0.1364 -1.2060  1.1912
12675TIP3    H259441   6.077   0.553   2.516  0.6207  0.3999 -0.4383
12676TIP3   OH259442   4.000   6.247   2.751 -0.4122 -0.2767  0.2755
12676TIP3    H159443   3.919   6.261   2.702 -0.8581 -0.1421  1.0573
12676TIP3    H259444   4.000   6.154   2.772  0.5799 -0.6790 -1.3880
12677TIP3   OH259445   3.866   4.928  12.906 -0.0666 -0.1837 -0.0605
12677TIP3    H159446   3.932   4.992  12.932  0.7190 -1.2422  0.6148
12677TIP3    H259447   3.851   4.876  12.986 -2.0056  0.3024 -0.0911
12678TIP3   OH259448   1.107   3.365  16.349  0.3226  0.0266  0.9381
12678TIP3    H159449   1.193   3.338  16.383  0.7423 -0.3548 -0.3833
12678TIP3    H259450   1.123   3.450  16.309 -0.4321  1.0346  2.7631
12679TIP3   OH259451   3.447   1.963   1.318 -0.0341  0.5182 -0.3906
12679TIP3    H159452   3.496   1.991   1.396 -0.4637  1.1646 -0.3500
12679TIP3    H259453   3.499   1.891   1.282 -0.8890 -1.1639  1.6455
12680TIP3   OH259454   3.403   1.836   5.437  0.1276  0.1805  0.4363
12680TIP3    H159455   3.438   1.919   5.404  0.4864  0.5289  1.6571
12680TIP3    H259456   3.391   1.782   5.359  1.3233  0.8390 -0.2104
12681TIP3   OH259457   4.773   4.744  11.563 -0.0916 -0.1020  0.2864
12681TIP3    H159458   4.695   4.788  11.531 -0.1998  0.2314  0.9939
12681TIP3    H259459   4.742   4.658  11.591 -0.2712  0.1592  0.8931
12682TIP3   OH259460   0.602   1.125  14.161  0.5587  0.2154  0.5365
12682TIP3    H159461   0.693   1.098  14.143  1.1475  1.6926  1.2287
12682TIP3    H259462   0.562   1.047  14.199  1.4112 -0.6025 -0.2044
12683TIP3   OH259463   0.610   4.824   3.529 -0.1419  0.3164  0.4784
12683TIP3    H159464   0.609   4.900   3.587  0.0349  1.0777 -0.5195
12683TIP3    H259465   0.600   4.860   3.441 -0.7182 -0.8585  0.0516
12684TIP3   OH259466   4.231   5.613   1.356  0.6792  0.6195  0.3300
12684TIP3    H159467   4.254   5.553   1.285  2.8484  0.8928  0.7624
12684TIP3    H259468   4.279   5.579   1.432 -0.6394  1.0344  1.3655
12685TIP3   OH259469   2.895   3.139  14.862  0.2060 -0.4470 -0.2249
12685TIP3    H159470   2.947   3.145  14.781  1.2914 -1.8819  0.3486
12685TIP3    H259471   2.844   3.058  14.851  0.4056 -0.6765  0.5615
12686TIP3   OH259472   0.178   3.711  16.575 -0.3115  0.4762  0.2728
12686TIP3    H159473   0.144   3.753  16.496 -0.5125 -0.7679 -0.3053
12686TIP3    H259474   0.108   3.653  16.604  0.1679  0.1379  0.7678
12687TIP3   OH259475   6.000   4.693  16.571 -0.0109 -0.0981  1.2193
12687TIP3    H159476   5.918   4.735  16.598 -0.8257 -0.5600 -0.5122
12687TIP3    H259477   6.068   4.753  16.603 -1.1370  2.3959 -0.8400
12688TIP3   OH259478   3.331   0.967   4.804 -0.0706 -0.0639  0.3682
12688TIP3    H159479   3.328   0.927   4.717 -0.7713 -1.6563  1.1006
12688TIP3    H259480   3.246   0.947   4.842 -0.0468  1.2668  1.1575
12689TIP3   OH259481   6.258   3.235   1.906 -0.3494  0.7464 -0.1687
12689TIP3    H159482   6.334   3.260   1.853 -0.4746 -0.7995 -1.0871
12689TIP3    H259483   6.292   3.231   1.995  0.7266 -0.2126 -0.6048
12690TIP3   OH259484   4.804   4.770  14.024  0.0792 -0.7220  0.2389
12690TIP3    H159485   4.874   4.795  14.084  0.0481 -0.4949  0.1820
12690TIP3    H259486   4.848   4.717  13.957 -0.0578 -1.8541  1.0232
12691TIP3   OH259487   5.355   5.368   5.446  0.3302  0.1604 -0.1325
12691TIP3    H159488   5.337   5.290   5.500 -0.0680 -1.1635 -2.1132
12691TIP3    H259489   5.394   5.431   5.507 -0.6468 -1.0702  1.8207
12692TIP3   OH259490   4.612   3.992  17.201 -0.8209  0.5965 -0.1181
12692TIP3    H159491   4.614   3.908  17.247  1.1496  0.4891 -0.3713
12692TIP3    H259492   4.570   3.973  17.117 -0.7598 -0.0626  0.0003
12693TIP3   OH259493   5.867   2.242  11.914  0.0807  0.4061 -0.2923
12693TIP3    H159494   5.956   2.205  11.909 -0.0228  0.1639 -0.3654
12693TIP3    H259495   5.877   2.322  11.965  0.1241 -0.3212  0.8615
12694TIP3   OH259496   6.695   1.369  12.207 -0.1984  0.6543 -0.1904
12694TIP3    H159497   6.688   1.421  12.287  0.4280 -0.2971  0.4914
12694TIP3    H259498   6.624   1.305  12.213  2.3327 -2.0868  1.6108
12695TIP3   OH259499   6.218   0.417  16.665 -0.0300 -0.4412 -0.2343
12695TIP3    H159500   6.234   0.410  16.571 -0.7238 -1.7757 -0.2668
12695TIP3    H259501   6.197   0.328  16.693  3.1057 -0.6656  1.7447
12696TIP3   OH259502   5.418   3.205  11.463 -0.5114  0.4408  0.1974
12696TIP3    H159503   5.449   3.256  11.538  0.8611 -1.8009  1.1983
12696TIP3    H259504   5.349   3.149  11.499  0.9009 -1.4378  0.0722
12697TIP3   OH259505   3.463   3.021   0.220 -0.1129  0.3127  0.2696
12697TIP3    H159506   3.382   3.059   0.185  0.0594 -0.0023 -0.4925
12697TIP3    H259507   3.491   3.082   0.288 -1.6401 -0.2039  1.3781
12698TIP3   OH259508   1.800   2.488   1.585 -0.0937 -0.4276 -0.1862
12698TIP3    H159509   1.746   2.425   1.536  0.4069 -1.5489  0.6784
12698TIP3    H259510   1.887   2.448   1.586  0.3183  0.4774  0.0450
12699TIP3   OH259511   5.112   5.498   4.255 -0.0064 -0.0873  0.1407
12699TIP3    H159512   5.163   5.420   4.278  0.5823 -0.8659 -3.4836
12699TIP3    H259513   5.175   5.569   4.254  0.9400 -0.8791 -3.3840
12700TIP3   OH259514   4.369   0.067  14.783 -0.4238 -0.5314  0.0658
12700TIP3    H159515   4.425   0.094  14.856 -1.6876 -2.4588  1.8194
12700TIP3    H259516   4.409  -0.013  14.751 -1.1748 -0.9522  0.1734
12701TIP3   OH259517   0.740   0.670  12.780 -0.7187  0.0136 -0.8384
12701TIP3    H159518   0.718   0.626  12.862  1.2242 -0.9198 -0.7963
12701TIP3    H259519   0.721   0.605  12.713 -2.3729  0.8007 -1.1749
12702TIP3   OH259520   2.356   1.200  13.974 -0.0398  0.1424 -0.7656
12702TIP3    H159521   2.396   1.115  13.995 -0.6432 -0.1790 -0.8980
12702TIP3    H259522   2.411   1.235  13.903  1.3297  0.7229  0.5495
12703TIP3   OH259523   3.256   3.146   0.069 -0.2585 -0.0728 -0.1528
12703TIP3    H159524   3.283   3.080   0.005  0.8378  0.1151  0.1156
12703TIP3    H259525   3.172   3.179   0.035 -1.3950 -2.4071  0.3059
12704TIP3   OH259526   2.629   4.820  16.827  0.1714  0.1032 -0.0687
12704TIP3    H159527   2.596   4.816  16.917 -0.2386  1.0635 -0.1711
12704TIP3    H259528   2.568   4.767  16.776  1.0028 -1.3303  0.3824
12705TIP3   OH259529   5.481   5.528  14.265  0.5696 -0.3808 -0.1843
12705TIP3    H159530   5.543   5.601  14.256  0.8061 -0.2834  2.1163
12705TIP3    H259531   5.533   5.450  14.248  0.9934 -0.2068  0.3023
12706TIP3   OH259532   1.547   3.310   4.230 -0.8090 -0.0173  0.1879
12706TIP3    H159533   1.564   3.400   4.260 -2.0637 -0.0511  0.9812
12706TIP3    H259534   1.564   3.255   4.306 -1.3018 -0.3502  0.0569
12707TIP3   OH259535   6.075   5.519   3.180 -0.2242 -0.3620 -0.1784
12707TIP3    H159536   6.163   5.535   3.147 -0.1169  0.1812  0.3543
12707TIP3    H259537   6.020   5.518   3.102  0.3052 -1.0885 -0.5470
12708TIP3   OH259538   4.182   3.073  15.681  0.1583  0.3097 -0.0575
12708TIP3    H159539   4.248   3.104  15.742 -0.2893  0.7006  0.2291
12708TIP3    H259540   4.144   3.153  15.644 -2.1978  0.1877  1.9545
12709TIP3   OH259541   0.118   1.096   2.144 -0.0328 -0.0846 -0.0124
12709TIP3    H159542   0.155   1.102   2.056  1.0385 -0.7900  0.3867
12709TIP3    H259543   0.142   1.178   2.187 -0.9429  0.4535 -0.5215
12710TIP3   OH259544   1.736   1.937  15.856  0.0815  0.0387  0.3492
12710TIP3    H159545   1.717   2.027  15.884 -1.3840 -0.2028  0.1807
12710TIP3    H259546   1.650   1.897  15.847  0.5865 -0.4741 -2.5684
12711TIP3   OH259547   4.486   1.596   5.058  0.0859  0.0722  0.1705
12711TIP3    H159548   4.527   1.610   5.143 -0.1262 -1.8239  0.5960
12711TIP3    H259549   4.554   1.555   5.004 -1.0835 -2.6994  0.7530
12712TIP3   OH259550   2.548   5.414   1.317 -0.0509 -0.3336  0.9076
12712TIP3    H159551   2.615   5.367   1.267  0.0283 -0.6668  1.3214
12712TIP3    H259552   2.480   5.348   1.332 -1.8316  0.7236 -1.9878
12713TIP3   OH259553   2.726   3.848  13.820 -0.4549  0.4466 -0.2023
12713TIP3    H159554   2.812   3.869  13.784 -0.2117 -0.9237 -0.4369
12713TIP3    H259555   2.693   3.777  13.765 -1.3162  0.2911  0.5010
12714TIP3   OH259556   5.769   0.184   1.139 -0.7065 -0.7179 -0.2476
12714TIP3    H159557   5.731   0.269   1.116 -0.6157 -1.0698 -1.7543
12714TIP3    H259558   5.815   0.156   1.059  0.3884 -1.5648  0.6717
12715TIP3   OH259559   3.237   5.577  12.089  0.0180 -0.3697 -0.1695
12715TIP3    H159560   3.202   5.560  12.002  1.5464  4.0083 -1.7285
12715TIP3    H259561   3.160   5.581  12.146 -1.2489  0.0532 -1.8926
12716TIP3   OH259562   3.739   0.953   5.310 -0.1585 -0.1281  0.0623
12716TIP3    H159563   3.779   1.040   5.298 -0.2816 -0.2462 -1.3443
12716TIP3    H259564   3.811   0.899   5.343  0.9084 -0.3376 -2.4501
12717TIP3   OH259565   1.212   1.786   5.338 -0.8910  0.1691 -0.6527
12717TIP3    H159566   1.276   1.795   5.409 -1.0429  1.9427 -0.7299
12717TIP3    H259567   1.160   1.710   5.363  0.9638 -1.0382 -0.3715
12718TIP3   OH259568   3.990   6.378   2.996  0.3166  0.3938  0.9117
12718TIP3    H159569   3.902   6.394   3.029 -0.7740 -1.0098 -1.1535
12718TIP3    H259570   3.976   6.327   2.916  2.9597  1.0193  0.0017
12719TIP3   OH259571   2.023   4.240   5.221 -0.2964  0.5640  0.4635
12719TIP3    H159572   1.976   4.320   5.200 -1.3361 -0.3124 -0.6846
12719TIP3    H259573   2.104   4.245   5.169 -1.4167 -0.1517 -1.3939
12720TIP3   OH259574   6.200   3.651   4.355  0.3322 -0.2462 -0.0409
12720TIP3    H159575   6.235   3.696   4.278 -2.0330  0.4929 -0.7221
12720TIP3    H259576   6.261   3.579   4.370  1.5104  0.3236 -1.8486
12721TIP3   OH259577   3.517   6.303   0.273 -0.3605  0.6703  0.2873
12721TIP3    H159578   3.524   6.229   0.212 -0.0559  2.1870 -1.5875
12721TIP3    H259579   3.437   6.348   0.246 -0.2260  1.3625  1.0317
12722TIP3   OH259580   2.126   5.804   0.113 -0.2248  0.8113  0.0263
12722TIP3    H159581   2.161   5.716   0.126 -1.9682 -0.0257 -0.8477
12722TIP3    H259582   2.174   5.838   0.037 -0.0318  0.3440 -0.0625
12723TIP3   OH259583   5.011   4.971  12.186  0.5170  0.1052 -0.1162
12723TIP3    H159584   4.964   4.959  12.104  1.2478 -0.9761 -0.3946
12723TIP3    H259585   4.946   5.005  12.247 -0.0763  0.7346 -1.0941
12724TIP3   OH259586   6.355   5.928   2.245  0.1184 -0.1499  0.7789
12724TIP3    H159587   6.446   5.903   2.256  0.1364 -0.8183 -0.7966
12724TIP3    H259588   6.359   6.009   2.194 -0.2406 -1.2518 -1.0038
12725TIP3   OH259589   6.114   6.542  13.402 -0.1012 -0.2385 -0.1260
12725TIP3    H159590   6.110   6.456  13.444 -2.4608 -0.5625 -0.9995
12725TIP3    H259591   6.068   6.600  13.463 -0.8703 -0.1247 -0.8125
12726TIP3   OH259592   4.473   1.060   0.420 -0.0851  0.3690  0.2024
12726TIP3    H159593   4.434   1.083   0.504 -0.4145  2.3486 -0.4568
12726TIP3    H259594   4.435   0.975   0.398  0.9362 -0.7410  2.6015
12727TIP3   OH259595   5.737   3.186   3.932 -0.1827  0.1281  0.1917
12727TIP3    H159596   5.832   3.182   3.946 -0.2434  1.4154  1.1210
12727TIP3    H259597   5.726   3.251   3.863 -0.3266 -0.8788 -0.7393
12728TIP3   OH259598   1.263   3.931   5.694 -0.2705 -0.0655 -0.4662
12728TIP3    H159599   1.256   3.957   5.786  0.8491 -1.2843 -0.0117
12728TIP3    H259600   1.187   3.874   5.680 -1.6947  1.9251 -0.9481
12729TIP3   OH259601   1.233   1.606  12.869  0.0741  0.3493 -0.8936
12729TIP3    H159602   1.221   1.511  12.866 -1.2020  0.3795  1.4931
12729TIP3    H259603   1.313   1.622  12.820  0.2918 -1.9622 -1.3625
12730TIP3   OH259604   2.699   1.303  13.965  0.2415  0.3366 -0.2480
12730TIP3    H159605   2.649   1.355  14.029 -0.2412 -0.9370  0.4282
12730TIP3    H259606   2.634   1.274  13.902 -0.3310 -3.0661  1.7728
12731TIP3   OH259607   4.324   0.818   0.376 -0.6948 -0.5261  0.4850
12731TIP3    H159608   4.278   0.821   0.292 -0.9123  0.1579  0.6278
12731TIP3    H259609   4.400   0.763   0.359 -0.0325  0.6671 -0.5103
12732TIP3   OH259610   0.320   3.289   2.026 -0.2970 -0.1906 -0.0278
12732TIP3    H159611   0.267   3.356   2.069 -1.2713 -0.5706 -0.5985
12732TIP3    H259612   0.269   3.265   1.949  1.7112  0.9277 -1.7397
12733TIP3   OH259613   5.565   6.629  16.775  0.5436  0.2981 -0.4194
12733TIP3    H159614   5.583   6.626  16.869 -0.8033 -1.6089 -0.1926
12733TIP3    H259615   5.531   6.717  16.759 -1.6271 -0.1868  1.3503
12734TIP3   OH259616   1.646   6.079   2.929  1.0337 -0.4270 -0.0025
12734TIP3    H159617   1.734   6.116   2.927  1.4899 -1.5211 -1.2414
12734TIP3    H259618   1.629   6.062   3.021  2.0181  0.0346  0.2701
12735TIP3   OH259619   5.215   1.024  13.388  0.3018  0.1208  0.0880
12735TIP3    H159620   5.229   0.949  13.330 -0.4233 -0.1496  0.2626
12735TIP3    H259621   5.292   1.026  13.444 -0.0236 -0.9265  0.5651
12736TIP3   OH259622   3.601   1.948   4.430  0.1802 -0.6464 -0.1448
12736TIP3    H159623   3.517   1.970   4.390  0.0258  1.4463  1.2306
12736TIP3    H259624   3.661   2.017   4.399  0.9729 -1.1547  0.2403
12737TIP3   OH259625   2.468   1.296   3.364  0.1404 -0.4188  0.0520
12737TIP3    H159626   2.540   1.347   3.326 -0.9248  0.2655 -1.0822
12737TIP3    H259627   2.390   1.349   3.349 -0.7874 -1.7094  0.1648
12738TIP3   OH259628   0.054   3.035  10.507  0.4879 -0.5605  0.0927
12738TIP3    H159629   0.063   2.964  10.444 -0.8613  0.4959 -1.3106
12738TIP3    H259630   0.143   3.070  10.516  0.5939 -0.3279 -1.6965
12739TIP3   OH259631   3.410   4.701   3.193 -0.4187  0.1544  0.0567
12739TIP3    H159632   3.455   4.759   3.133 -3.7264 -0.5477 -3.2511
12739TIP3    H259633   3.343   4.755   3.234 -2.0789 -0.7829 -1.3936
12740TIP3   OH259634   0.608   5.460   2.239  0.3337  0.3775 -0.1267
12740TIP3    H159635   0.517   5.442   2.263  0.4627 -4.0017 -2.4576
12740TIP3    H259636   0.658   5.392   2.283  2.1488  1.0581 -1.1025
12741TIP3   OH259637   6.449   3.295   1.694 -0.3326  0.3534 -0.1798
12741TIP3    H159638   6.530   3.285   1.744 -0.1675  1.8490 -0.1069
12741TIP3    H259639   6.459   3.236   1.619  0.8355  0.5419 -0.1812
12742TIP3   OH259640   3.905   2.416   3.193 -0.5814 -0.8286  0.0257
12742TIP3    H159641   3.974   2.453   3.137 -0.7305 -0.2720  0.2040
12742TIP3    H259642   3.912   2.321   3.181  0.9401 -0.8408  0.8814
12743TIP3   OH259643   6.376   0.225  15.638  0.1400 -1.0358  0.2121
12743TIP3    H159644   6.447   0.197  15.580 -0.5190 -0.6614 -0.7826
12743TIP3    H259645   6.413   0.299  15.687  0.7017 -1.3568  0.2734
12744TIP3   OH259646   0.573   3.130  16.816  0.5388 -0.0432  0.9049
12744TIP3    H159647   0.579   3.044  16.857  1.7725  0.2619  1.3683
12744TIP3    H259648   0.553   3.191  16.887  2.0360  0.3932  0.9629
12745TIP3   OH259649   2.674   1.725   4.466  0.4492 -0.2806 -0.3971
12745TIP3    H159650   2.701   1.721   4.558 -1.4843  1.6213  0.2918
12745TIP3    H259651   2.702   1.811   4.436 -1.8396  0.4244 -0.6067
12746TIP3   OH259652   5.405   2.582   0.280 -0.5759 -0.3769  0.4568
12746TIP3    H159653   5.413   2.522   0.206 -2.7328  0.3186 -0.3881
12746TIP3    H259654   5.439   2.532   0.355 -1.9596 -2.5310 -0.2894
12747TIP3   OH259655   4.676   3.471   2.990 -0.2310  0.0640  0.0705
12747TIP3    H159656   4.670   3.459   3.085  0.0380 -0.0499  0.0714
12747TIP3    H259657   4.765   3.446   2.968 -0.5760 -0.8114 -0.3398
12748TIP3   OH259658   3.092   2.419   5.131  0.5631 -0.1125  0.1213
12748TIP3    H159659   3.019   2.356   5.123 -1.0421  1.8080 -0.8153
12748TIP3    H259660   3.116   2.416   5.224 -2.3646  0.9610  0.9706
12749TIP3   OH259661   1.559   1.816   4.002 -0.1323 -0.1628 -0.0434
12749TIP3    H159662   1.492   1.768   3.953  0.6096 -1.6808  0.3955
12749TIP3    H259663   1.565   1.900   3.957 -1.2657 -0.5766 -1.0077
12750TIP3   OH259664   6.403   4.190   1.340 -0.1760  0.0783 -0.1323
12750TIP3    H159665   6.315   4.181   1.302  0.3422  0.8885 -1.5863
12750TIP3    H259666   6.459   4.141   1.280  0.5811  0.8810 -0.0839
12751TIP3   OH259667   5.587   0.740  16.406  0.1535  0.2060 -0.2899
12751TIP3    H159668   5.623   0.707  16.323 -1.3010  1.0701 -1.2831
12751TIP3    H259669   5.602   0.834  16.402 -0.5416  0.3320  0.1344
12752TIP3   OH259670   5.078   1.234  14.646 -0.0689 -0.1128 -0.1282
12752TIP3    H159671   5.171   1.236  14.621  1.3544  0.2963  4.8166
12752TIP3    H259672   5.046   1.321  14.623  0.6471 -0.3374 -2.1114
12753TIP3   OH259673   3.733   1.623  11.075 -0.3977  0.0119 -0.3008
12753TIP3    H159674   3.727   1.554  11.009 -1.1131 -0.6183  0.4088
12753TIP3    H259675   3.827   1.639  11.084 -0.0998 -2.0864  0.7603
12754TIP3   OH259676   2.021   2.851  14.619 -0.3259 -0.7929 -0.1669
12754TIP3    H159677   2.081   2.788  14.659 -1.3035 -2.0365 -0.5982
12754TIP3    H259678   2.044   2.851  14.526 -0.0530 -0.1880 -0.1032
12755TIP3   OH259679   0.108   2.100  16.100 -0.3350  0.1515  0.0450
12755TIP3    H159680   0.074   2.185  16.125 -1.5881  0.0038 -1.0785
12755TIP3    H259681   0.126   2.108  16.006 -0.8032 -0.9141 -0.1485
12756TIP3   OH259682   2.703   3.498  12.531 -0.2834 -0.6321 -1.1161
12756TIP3    H159683   2.669   3.483  12.619  1.0304 -1.7786 -0.7853
12756TIP3    H259684   2.628   3.530  12.481 -0.7100  1.3905  0.7641
12757TIP3   OH259685   4.322   0.639   3.862  0.2367 -0.4491 -0.0609
12757TIP3    H159686   4.390   0.659   3.927 -0.5049 -0.4005  0.7074
12757TIP3    H259687   4.282   0.724   3.843 -1.6616 -0.8754  1.8028
12758TIP3   OH259688   2.291   4.238  13.778 -0.5964  0.0360  0.7580
12758TIP3    H159689   2.362   4.193  13.733 -0.4012  0.3034  0.7944
12758TIP3    H259690   2.325   4.326  13.794 -1.7436  0.8589 -1.1723
12759TIP3   OH259691   0.420   6.113   4.957 -0.2688  0.0540  0.1420
12759TIP3    H159692   0.436   6.201   4.991 -0.7275 -0.3364  1.3870
12759TIP3    H259693   0.327   6.097   4.973 -0.3706 -0.3637 -0.7867
12760TIP3   OH259694   5.982   4.263  13.051 -0.1310 -0.0316 -0.1395
12760TIP3    H159695   5.963   4.178  13.091  2.4941 -0.2015  0.8199
12760TIP3    H259696   5.918   4.323  13.090 -0.2311 -1.0247  1.2480
12761TIP3   OH259697   1.505   1.687  14.191 -0.3219 -0.7391 -0.0581
12761TIP3    H159698   1.482   1.709  14.281 -2.9676 -1.3312 -0.5494
12761TIP3    H259699   1.431   1.717  14.139  1.2599 -0.2260 -2.0960
12762TIP3   OH259700   1.667   5.268  16.167 -0.2949  0.2881  0.6535
12762TIP3    H159701   1.753   5.233  16.145 -0.5779 -0.4242  0.6678
12762TIP3    H259702   1.683   5.326  16.242  0.1641  0.1163  0.6879
12763TIP3   OH259703   5.003   5.469  14.770 -0.2241 -0.1104  0.1436
12763TIP3    H159704   5.077   5.494  14.825 -0.7127  0.1678  0.6907
12763TIP3    H259705   5.015   5.375  14.753 -0.2397 -0.2743  1.0083
12764TIP3   OH259706   5.520   2.464   1.303  0.4559  0.1533  0.4597
12764TIP3    H159707   5.497   2.526   1.373 -0.5108 -0.3637  0.6026
12764TIP3    H259708   5.517   2.378   1.345 -0.3990 -0.1823 -0.2796
12765TIP3   OH259709   0.104   2.132   5.522 -0.2532 -0.4426  0.1713
12765TIP3    H159710   0.093   2.217   5.480  1.1910 -0.4238 -0.1840
12765TIP3    H259711   0.048   2.073   5.472  1.5750 -0.4615 -1.9513
12766TIP3   OH259712   5.428   5.524   6.193 -0.4522 -0.1438  0.0103
12766TIP3    H159713   5.399   5.433   6.186 -0.3695 -0.2657  1.2734
12766TIP3    H259714   5.370   5.563   6.258 -0.4054  0.6761 -0.4341
12767TIP3   OH259715   4.903   0.462  15.487  0.5184  0.0820 -1.0073
12767TIP3    H159716   4.973   0.455  15.552 -0.4178 -1.5705 -0.1489
12767TIP3    H259717   4.949   0.472  15.403  1.7425  3.8521  0.0212
12768TIP3   OH259718   0.753   0.327  14.335 -0.3904  1.1110  0.2072
12768TIP3    H159719   0.763   0.236  14.362 -2.5859  1.2714  1.7460
12768TIP3    H259720   0.722   0.322  14.245 -2.8202  0.2271  1.0462
12769TIP3   OH259721   0.787   5.329  14.126 -0.3431  0.3325 -0.3809
12769TIP3    H159722   0.791   5.233  14.133 -3.3585  0.0944 -1.2838
12769TIP3    H259723   0.727   5.345  14.054 -0.4024  2.9466  0.2073
12770TIP3   OH259724   3.541   3.707  17.101 -0.1471  0.0248  0.4120
12770TIP3    H159725   3.625   3.667  17.125 -1.0570 -2.0127  0.3198
12770TIP3    H259726   3.557   3.748  17.016  1.2358  1.2675  1.2446
12771TIP3   OH259727   4.972   6.298  11.952  0.1799 -0.2397  0.4550
12771TIP3    H159728   4.964   6.210  11.913  1.8845  0.3589 -1.3329
12771TIP3    H259729   4.897   6.346  11.917  0.2761 -0.4580 -0.0664
12772TIP3   OH259730   1.879   2.400  11.847 -0.0931 -0.0418  0.3935
12772TIP3    H159731   1.843   2.460  11.912  1.1806 -0.9443  1.9884
12772TIP3    H259732   1.881   2.315  11.892 -1.1320 -1.1187 -1.5548
12773TIP3   OH259733   0.179   6.764   5.565  0.3695  0.3064  0.5929
12773TIP3    H159734   0.274   6.769   5.572  0.4668 -0.1119 -0.4591
12773TIP3    H259735   0.151   6.724   5.648  1.2017 -0.6409  0.4279
12774TIP3   OH259736   5.121   4.251  12.857 -0.6163 -0.6352 -0.7638
12774TIP3    H159737   5.101   4.196  12.781  0.1920  1.0605 -2.2559
12774TIP3    H259738   5.102   4.340  12.827  3.3907  0.4833 -0.3109
12775TIP3   OH259739   3.474   3.550   4.704  0.3123 -0.2348  0.1696
12775TIP3    H159740   3.511   3.502   4.779 -0.2168  1.0416  1.2691
12775TIP3    H259741   3.504   3.640   4.716 -1.2861  0.3584 -0.1566
12776TIP3   OH259742   0.400   1.680   5.034 -0.1020  0.1594 -0.2832
12776TIP3    H159743   0.491   1.708   5.042  0.0776  0.1313 -2.0956
12776TIP3    H259744   0.359   1.710   5.115  1.2034  1.3634 -0.0432
12777TIP3   OH259745   6.768   2.312   3.577  0.0569  0.2931 -0.1546
12777TIP3    H159746   6.709   2.240   3.599 -0.0965  0.3310 -0.4412
12777TIP3    H259747   6.848   2.268   3.547  0.1015  0.2420  0.0361
12778TIP3   OH259748   0.644   0.355   5.625  0.0896  0.3788 -0.2433
12778TIP3    H159749   0.706   0.365   5.553 -1.2759 -1.8869 -1.7956
12778TIP3    H259750   0.562   0.391   5.591  0.2023  2.1847  1.3345
12779TIP3   OH259751   6.668   6.614   2.469  0.0785  0.1306  0.0504
12779TIP3    H159752   6.654   6.697   2.422 -0.3713 -0.8051 -1.4900
12779TIP3    H259753   6.674   6.640   2.561 -2.4306  1.6381 -0.1581
12780TIP3   OH259754   0.585   3.810   1.713  1.1558  0.2190 -0.2822
12780TIP3    H159755   0.624   3.825   1.627  2.2937 -0.0745  0.1717
12780TIP3    H259756   0.657   3.778   1.766  0.2047 -0.6586  0.4900
12781TIP3   OH259757   2.556   0.307  12.040 -0.1699 -0.2896 -0.2038
12781TIP3    H159758   2.495   0.233  12.031 -0.2556  0.0569 -2.5656
12781TIP3    H259759   2.622   0.293  11.973  1.8554 -0.1008  1.6675
12782TIP3   OH259760   3.915   0.932   0.918  0.8579 -0.1100 -0.5550
12782TIP3    H159761   3.917   0.853   0.973 -1.4138 -0.8022 -1.3991
12782TIP3    H259762   3.950   1.001   0.973  2.9841 -1.7020  0.1857
12783TIP3   OH259763   6.317   0.066   3.735  0.3453 -0.3110  0.8616
12783TIP3    H159764   6.386   0.131   3.749  1.4251 -0.2891 -3.6381
12783TIP3    H259765   6.245   0.115   3.697 -1.0544 -0.8461  2.7843
12784TIP3   OH259766   5.988   3.991   0.840 -0.0169 -0.5032  0.7630
12784TIP3    H159767   6.031   3.998   0.754 -0.5584 -0.0612  0.5230
12784TIP3    H259768   6.060   3.982   0.902  0.5194  1.9889  0.5379
12785TIP3   OH259769   2.381   6.021  11.839  0.0750 -0.1066 -0.0673
12785TIP3    H159770   2.439   5.947  11.856  0.5480  1.0031  3.4875
12785TIP3    H259771   2.439   6.093  11.816  0.0891  0.7447  2.5236
12786TIP3   OH259772   2.804   3.733   1.865  0.7178 -0.2151 -0.2438
12786TIP3    H159773   2.804   3.704   1.956 -0.7636 -1.2845 -0.5650
12786TIP3    H259774   2.864   3.807   1.864  0.3261  0.1630  1.7148
12787TIP3   OH259775   4.331   1.600   2.747  0.9690 -0.3284 -0.2081
12787TIP3    H159776   4.252   1.571   2.794  2.2623 -1.5287  1.2705
12787TIP3    H259777   4.403   1.564   2.798  2.5170  1.6747 -0.9364
12788TIP3   OH259778   2.319   1.379   6.242 -0.1359 -0.3535 -0.4780
12788TIP3    H159779   2.244   1.366   6.299 -0.2809  0.0566 -0.5692
12788TIP3    H259780   2.333   1.474   6.242  0.3317 -0.4202 -0.5218
12789TIP3   OH259781   6.630   3.537  16.380  0.6084  0.1770  0.4159
12789TIP3    H159782   6.716   3.495  16.382  0.0241 -1.1228 -0.9354
12789TIP3    H259783   6.571   3.468  16.352 -1.0136  0.8527  2.1149
12790TIP3   OH259784   5.540   0.590  13.945  0.3429 -0.7588  0.1521
12790TIP3    H159785   5.634   0.607  13.949  0.5068 -1.5070 -0.4796
12790TIP3    H259786   5.509   0.606  14.034  0.4925  2.7635 -0.3613
12791TIP3   OH259787   4.729   6.115  17.142 -0.4879  0.0835 -0.3733
12791TIP3    H159788   4.807   6.152  17.100 -0.7087 -0.3648 -1.1733
12791TIP3    H259789   4.729   6.155  17.230  0.4286  0.3782 -0.4948
12792TIP3   OH259790   4.450   6.761  10.901  0.3731 -0.6496 -0.6057
12792TIP3    H159791   4.375   6.815  10.876  0.4945  0.9739  2.4038
12792TIP3    H259792   4.525   6.805  10.861  0.0991 -0.5222 -0.9890
12793TIP3   OH259793   5.961   2.455  12.122  0.2726 -0.2766 -0.2647
12793TIP3    H159794   6.047   2.494  12.110  0.1229  0.4028  0.7934
12793TIP3    H259795   5.963   2.417  12.210 -0.7433  0.3989  0.0650
12794TIP3   OH259796   4.466   3.236   0.622 -0.4514  0.1797  0.2308
12794TIP3    H159797   4.394   3.209   0.679 -1.6513  2.4708 -0.1274
12794TIP3    H259798   4.498   3.318   0.660  1.4805 -0.4019 -0.0595
12795TIP3   OH259799   5.138   1.478  13.501  0.2195  0.4285  0.3763
12795TIP3    H159800   5.074   1.543  13.529  0.1741  1.2783 -1.6679
12795TIP3    H259801   5.118   1.401  13.555 -1.1214  1.3861  1.2823
12796TIP3   OH259802   0.327   0.219  14.774 -0.7233 -0.4520 -1.3114
12796TIP3    H159803   0.239   0.202  14.741 -0.5426  0.6334 -2.4124
12796TIP3    H259804   0.327   0.313  14.795 -0.3049 -0.7672  0.1989
12797TIP3   OH259805   5.003   0.828  10.591 -0.0028 -0.1658 -0.0140
12797TIP3    H159806   4.936   0.883  10.550  0.1404 -0.4222 -0.5928
12797TIP3    H259807   5.009   0.752  10.534  0.0863 -0.5979  0.5739
12798TIP3   OH259808   6.114   4.409   0.214 -0.3555  0.0023 -0.0834
12798TIP3    H159809   6.081   4.496   0.190 -0.2433 -0.2483 -1.1850
12798TIP3    H259810   6.176   4.388   0.145 -4.4728 -3.3104 -3.0250
12799TIP3   OH259811   0.982   0.758   0.887  0.1480 -0.1523  0.4290
12799TIP3    H159812   0.986   0.679   0.833 -1.5544  0.3041 -0.4136
12799TIP3    H259813   1.045   0.818   0.848 -1.0241  0.1476 -1.0597
12800TIP3   OH259814   3.849   3.109   3.940 -0.4127  0.9363 -0.2222
12800TIP3    H159815   3.907   3.048   3.986 -2.3153 -0.0511  0.9167
12800TIP3    H259816   3.803   3.155   4.010 -0.4452  2.2635 -1.1054
12801TIP3   OH259817   0.170   2.422  13.612  0.4104 -0.5155  0.7629
12801TIP3    H159818   0.259   2.410  13.643 -0.0059 -0.2163  2.1171
12801TIP3    H259819   0.179   2.468  13.528  1.4573  0.9972  1.6968
12802TIP3   OH259820   4.276   1.893   0.749 -0.2456 -0.4753  0.8048
12802TIP3    H159821   4.308   1.820   0.696 -0.5926  1.3089 -1.9567
12802TIP3    H259822   4.356   1.934   0.783  0.1089 -0.4219 -0.0533
12803TIP3   OH259823   3.419   3.130   2.909  0.2238 -0.2852 -0.0541
12803TIP3    H159824   3.471   3.065   2.863  1.4046  1.5648 -1.4226
12803TIP3    H259825   3.340   3.139   2.856 -0.1416 -0.9432  0.3844
12804TIP3   OH259826   2.117   0.166   2.371 -0.0567  0.1289 -0.0790
12804TIP3    H159827   2.184   0.114   2.415 -0.9349 -0.6536  0.3699
12804TIP3    H259828   2.146   0.172   2.280 -0.0697 -1.4009 -0.2001
12805TIP3   OH259829   1.065   0.944  12.509 -0.1423  0.3994 -0.0774
12805TIP3    H159830   1.035   0.854  12.522 -1.1573  0.5079 -1.4686
12805TIP3    H259831   1.150   0.936  12.466 -0.3347  0.0956 -0.4030
12806TIP3   OH259832   0.519   6.673   3.889  0.4457  0.4160  0.3282
12806TIP3    H159833   0.567   6.750   3.861  1.1462 -0.7123 -1.7214
12806TIP3    H259834   0.526   6.612   3.815 -2.1745 -0.6673  0.8880
12807TIP3   OH259835   0.045   5.473  11.443 -0.2333 -0.2339 -0.2328
12807TIP3    H159836   0.019   5.560  11.472 -0.1058 -0.8327  1.7571
12807TIP3    H259837   0.115   5.489  11.379  0.0969  1.1079  0.4372
12808TIP3   OH259838   3.142   0.297  15.339 -0.0136 -0.2360 -0.2054
12808TIP3    H159839   3.122   0.307  15.432  2.0087  1.6547  0.0503
12808TIP3    H259840   3.190   0.214  15.334  0.0602 -0.2337  0.4603
12809TIP3   OH259841   3.521   4.293   3.684  0.1422 -0.0761 -0.0048
12809TIP3    H159842   3.456   4.361   3.701  0.7211  0.2960  0.7164
12809TIP3    H259843   3.469   4.217   3.657 -0.7486 -0.4272  2.5913
12810TIP3   OH259844   3.560   0.463  12.621 -0.6498 -0.2328 -0.3034
12810TIP3    H159845   3.571   0.410  12.543 -2.8735 -0.1978 -0.6720
12810TIP3    H259846   3.645   0.458  12.666 -0.1522 -2.2811 -1.4246
12811TIP3   OH259847   2.038   5.567  15.415  0.2112 -0.5405  0.0239
12811TIP3    H159848   2.082   5.482  15.425 -1.3272 -1.1255  2.1083
12811TIP3    H259849   2.044   5.608  15.501  1.6076  1.8384 -1.1642
12812TIP3   OH259850   6.102   2.104  13.467  0.1231 -0.0685 -0.6094
12812TIP3    H159851   6.069   2.096  13.557  1.9998  0.1130  0.1036
12812TIP3    H259852   6.050   2.040  13.417  0.5212 -1.6894  0.9956
12813TIP3   OH259853   2.542   0.200   3.936  0.0120  0.1039 -0.1329
12813TIP3    H159854   2.516   0.108   3.935  0.1323  0.0817 -1.3303
12813TIP3    H259855   2.515   0.234   3.851  0.4914  1.0285  0.0758
12814TIP3   OH259856   0.055   4.076   1.560 -0.2074  0.2528 -0.3329
12814TIP3    H159857   0.019   3.987   1.563 -0.6865  0.4719  0.5423
12814TIP3    H259858   0.150   4.064   1.559 -0.2774 -0.3029 -1.7533
12815TIP3   OH259859   2.137   0.474  15.164 -0.4223 -0.4379 -0.2863
12815TIP3    H159860   2.162   0.535  15.094 -1.0297  0.5397  0.3330
12815TIP3    H259861   2.141   0.527  15.243  0.0533 -1.4894  0.4010
12816TIP3   OH259862   3.414   5.143  15.414 -0.1361  0.7107  0.7004
12816TIP3    H159863   3.384   5.095  15.337 -0.7392  0.2146  1.2317
12816TIP3    H259864   3.334   5.172  15.457  0.1513 -0.2335  1.8965
12817TIP3   OH259865   4.051   2.059   0.071 -0.8105  0.2921  0.6319
12817TIP3    H159866   4.123   2.001   0.048  0.0756  1.5744  0.0630
12817TIP3    H259867   3.971   2.011   0.048 -0.1020 -0.8114  0.4920
12818TIP3   OH259868   3.698   3.071   0.052  0.8635 -0.1149 -0.4879
12818TIP3    H159869   3.618   3.053   0.101  0.1984 -3.2691 -2.5480
12818TIP3    H259870   3.669   3.127  -0.020  0.5137 -1.0875 -1.1169
12819TIP3   OH259871   1.330   5.500   5.887 -0.3496 -0.0048  0.0710
12819TIP3    H159872   1.360   5.504   5.978 -0.8298  0.4076  0.2153
12819TIP3    H259873   1.290   5.414   5.879 -0.6644  0.1101  0.3682
12820TIP3   OH259874   4.435   6.151  14.392  0.3019 -0.2616 -0.3294
12820TIP3    H159875   4.393   6.118  14.471 -1.1829 -0.5024 -1.2050
12820TIP3    H259876   4.420   6.246  14.394  5.5091  0.7077  2.7555
12821TIP3   OH259877   0.600   4.389  16.463 -0.0479  0.5820  0.0563
12821TIP3    H159878   0.645   4.361  16.384 -0.1955 -0.7008  0.4123
12821TIP3    H259879   0.651   4.350  16.535 -0.8443  0.3648  0.5166
12822TIP3   OH259880   4.803   6.240   3.443 -0.0197  0.1054 -0.3638
12822TIP3    H159881   4.788   6.153   3.408  0.8918  0.0032 -0.5217
12822TIP3    H259882   4.790   6.299   3.369 -1.5290  0.1806 -0.0408
12823TIP3   OH259883   1.568   4.235   5.599 -0.0911  0.1664 -0.3218
12823TIP3    H159884   1.660   4.225   5.623 -0.0206 -0.3299 -0.7808
12823TIP3    H259885   1.534   4.145   5.597 -0.1613  0.1983 -1.7488
12824TIP3   OH259886   0.149   4.216   3.457  0.5093 -0.0804 -0.6459
12824TIP3    H159887   0.126   4.286   3.396  0.6087 -1.2319 -2.0173
12824TIP3    H259888   0.118   4.136   3.415 -0.2155 -0.7938  1.2333
12825TIP3   OH259889   5.541   5.612  15.631  0.0723 -0.4437 -0.4888
12825TIP3    H159890   5.586   5.667  15.566 -1.4060  0.2804 -0.9157
12825TIP3    H259891   5.557   5.522  15.602  0.0692 -0.1469 -1.4172
12826TIP3   OH259892   0.002   4.652   0.150  0.7527  0.4601 -0.6617
12826TIP3    H159893   0.002   4.652   0.054  1.5616 -0.1826 -0.6703
12826TIP3    H259894   0.070   4.588   0.173 -0.2154 -0.2090  0.3402
12827TIP3   OH259895   5.672   2.285  14.388 -0.4866 -0.4287 -0.1739
12827TIP3    H159896   5.733   2.345  14.345 -0.2361  0.7639  1.7638
12827TIP3    H259897   5.726   2.210  14.414 -0.3167 -0.4251 -0.5194
12828TIP3   OH259898   4.605   3.279   7.085 -0.3054 -0.3821  0.3557
12828TIP3    H159899   4.598   3.328   7.003  2.0139 -0.2531  0.2051
12828TIP3    H259900   4.615   3.188   7.058  2.5698 -0.1176  0.3830
12829TIP3   OH259901   1.612   1.425   5.302 -0.1515  0.3208  0.1948
12829TIP3    H159902   1.553   1.477   5.356 -0.5926 -0.1510  0.1731
12829TIP3    H259903   1.616   1.339   5.345  1.7216  0.8064  1.0451
12830TIP3   OH259904   4.236   4.646  11.610  0.4402  0.2816 -0.4546
12830TIP3    H159905   4.269   4.599  11.686  1.1013  0.5170 -0.5855
12830TIP3    H259906   4.282   4.606  11.536 -0.0949  0.1471 -0.7186
12831TIP3   OH259907   2.961   4.474   2.596  0.2436 -0.2881 -0.1513
12831TIP3    H159908   2.936   4.520   2.676 -0.9529 -0.1138 -0.6307
12831TIP3    H259909   3.040   4.519   2.566  0.6783 -0.3396  0.9166
12832TIP3   OH259910   1.559   1.781   0.352 -0.3138  0.2756  0.2807
12832TIP3    H159911   1.480   1.811   0.306 -1.1231  2.0243  2.6866
12832TIP3    H259912   1.631   1.807   0.295 -1.4322 -0.3892 -1.4623
12833TIP3   OH259913   3.241   2.298   0.065  0.0717 -0.1935  0.1271
12833TIP3    H159914   3.226   2.208   0.092 -0.6265 -0.1700 -0.1818
12833TIP3    H259915   3.331   2.317   0.092  0.3249 -1.0861 -0.0901
12834TIP3   OH259916   4.253   4.893   1.766 -0.0398  0.0493 -0.3723
12834TIP3    H159917   4.340   4.915   1.801 -0.1551 -0.4051  0.2202
12834TIP3    H259918   4.267   4.883   1.672  0.8913 -1.6552 -0.0665
12835TIP3   OH259919   0.356   0.493  11.214 -0.8056  0.3764 -0.0203
12835TIP3    H159920   0.385   0.579  11.182 -1.7527  1.3700  1.6847
12835TIP3    H259921   0.294   0.462  11.148 -1.6635  1.7457  0.1211
12836TIP3   OH259922   5.318   6.164   1.465 -0.2585 -0.5021  0.7021
12836TIP3    H159923   5.362   6.249   1.469 -0.1657 -0.5738  1.2324
12836TIP3    H259924   5.318   6.141   1.372 -0.0989 -0.0175  0.5837
12837TIP3   OH259925   6.582   5.095   3.954  0.4692  0.1403 -0.4353
12837TIP3    H159926   6.512   5.047   3.910 -0.4910  2.7101 -1.8216
12837TIP3    H259927   6.612   5.158   3.889  1.5996  1.5197  1.3720
12838TIP3   OH259928   1.176   3.090  13.448 -0.1036  0.4343  0.1087
12838TIP3    H159929   1.150   3.092  13.355  0.1289  1.5841  0.0666
12838TIP3    H259930   1.177   2.997  13.470  1.0326  0.0797 -1.3769
12839TIP3   OH259931   4.638   1.138  17.200 -0.5488  0.5627  0.0136
12839TIP3    H159932   4.722   1.113  17.236 -0.3551  1.9751  0.5654
12839TIP3    H259933   4.652   1.141  17.105  0.1111  1.0827  0.1250
12840TIP3   OH259934   1.898   0.982   0.153 -0.2340  0.2364  0.0644
12840TIP3    H159935   1.810   0.958   0.183 -0.6306 -0.1314 -1.4007
12840TIP3    H259936   1.883   1.043   0.081  0.7259  0.8479  0.3783
12841TIP3   OH259937   6.610   4.522  11.231 -0.3454 -0.7748 -0.2871
12841TIP3    H159938   6.579   4.553  11.146 -0.7489  2.0146  0.8241
12841TIP3    H259939   6.696   4.561  11.242  0.5207 -2.6239 -0.1735
12842TIP3   OH259940   0.247   3.957  13.918 -0.1622 -0.2728  0.0614
12842TIP3    H159941   0.193   3.897  13.866 -0.3886 -0.3238  0.3570
12842TIP3    H259942   0.284   4.017  13.853  1.2855 -1.6553 -0.4280
12843TIP3   OH259943   6.666   5.329  15.784 -0.8992  0.2171  0.3850
12843TIP3    H159944   6.725   5.382  15.838  0.6100  0.0125 -1.0365
12843TIP3    H259945   6.689   5.238  15.805  0.9848  0.1199 -1.9265
12844TIP3   OH259946   5.905   3.230   5.999 -0.1298 -0.0768  0.2173
12844TIP3    H159947   5.914   3.175   5.922  1.6581  0.5868 -0.0692
12844TIP3    H259948   5.966   3.193   6.062  0.6072  1.1789  0.2553
12845TIP3   OH259949   5.812   1.630   3.211  0.1057 -0.1184 -0.0132
12845TIP3    H159950   5.725   1.591   3.205 -0.6421  1.6374 -0.8508
12845TIP3    H259951   5.849   1.593   3.291 -1.5667 -0.5831  0.5656
12846TIP3   OH259952   4.988   3.928  13.045  0.4471 -0.2688  0.1307
12846TIP3    H159953   5.007   4.013  13.085 -0.0970 -1.4107  2.9244
12846TIP3    H259954   4.916   3.946  12.983 -0.7222  1.0446  1.8170
12847TIP3   OH259955   4.285   6.259  16.478 -0.1016 -0.0988 -0.1789
12847TIP3    H159956   4.311   6.167  16.486  1.9954  0.4344 -0.5732
12847TIP3    H259957   4.216   6.258  16.412 -1.1835 -1.5602  0.9167
12848TIP3   OH259958   1.027   4.398  17.226  0.1897  0.0047 -0.2318
12848TIP3    H159959   0.982   4.364  17.304 -0.0462  1.1243  0.1460
12848TIP3    H259960   1.120   4.397  17.250  0.1356  0.1529 -0.0065
12849TIP3   OH259961   3.237   5.497  13.908 -0.0769 -0.6312 -0.3542
12849TIP3    H159962   3.304   5.434  13.933  1.6417  1.8679  1.5745
12849TIP3    H259963   3.178   5.501  13.983 -0.2379  0.0070 -0.5130
12850TIP3   OH259964   1.868   4.976   1.115  0.1820 -0.3722  0.1783
12850TIP3    H159965   1.879   5.071   1.120 -2.8201  0.1201 -1.2282
12850TIP3    H259966   1.892   4.955   1.025  2.6689 -1.2613  1.0202
12851TIP3   OH259967   3.516   5.678   5.459  0.3114 -0.2662  0.0295
12851TIP3    H159968   3.496   5.678   5.553  2.7743  0.3226  0.5895
12851TIP3    H259969   3.436   5.645   5.418 -0.0506 -2.6059  2.4926
12852TIP3   OH259970   1.924   1.707  13.465  0.4342 -0.3606  0.1253
12852TIP3    H159971   1.850   1.716  13.406 -0.6919 -0.7178  1.4401
12852TIP3    H259972   1.888   1.729  13.551  2.4051  1.7303  0.4675
12853TIP3   OH259973   6.675   1.505   3.902  0.0839  0.1171  0.4903
12853TIP3    H159974   6.675   1.468   3.814  1.6415  0.0283  0.5111
12853TIP3    H259975   6.728   1.444   3.953 -0.0924  0.6300  1.2892
12854TIP3   OH259976   0.783   1.221   1.337 -0.0165  0.2295  0.4968
12854TIP3    H159977   0.778   1.128   1.361  0.5719 -0.4919 -2.0037
12854TIP3    H259978   0.697   1.241   1.302  0.3856  0.1474 -0.5546
12855TIP3   OH259979   6.165   0.143   5.623  0.0756  0.5755 -0.1620
12855TIP3    H159980   6.162   0.228   5.665 -0.6645 -0.5599  2.1735
12855TIP3    H259981   6.258   0.117   5.626  0.1670  0.9162 -0.0713
12856TIP3   OH259982   1.436   6.517   1.029  0.0596 -0.7847  0.4739
12856TIP3    H159983   1.476   6.433   1.007  2.1081  0.0394  0.9486
12856TIP3    H259984   1.467   6.536   1.118 -0.5767  0.3547  0.4601
12857TIP3   OH259985   0.723   5.898  17.096  0.8749  0.0102  0.3007
12857TIP3    H159986   0.797   5.844  17.124  1.7711  0.9360 -0.2662
12857TIP3    H259987   0.752   5.988  17.108  0.3962  0.3985 -1.3098
12858TIP3   OH259988   3.011   0.829   5.264 -0.2371 -0.7418 -0.0811
12858TIP3    H159989   2.932   0.776   5.264 -0.2230 -0.7629 -0.1282
12858TIP3    H259990   3.074   0.779   5.211 -0.6896  0.0132 -1.3725
12859TIP3   OH259991   1.732   3.425   3.072  0.3874 -0.4828 -0.2846
12859TIP3    H159992   1.793   3.497   3.059  0.4785 -0.8433 -1.9210
12859TIP3    H259993   1.653   3.452   3.024 -0.7164 -0.1041  1.6405
12860TIP3   OH259994   6.484   3.515   2.621 -0.2512  0.5722  0.3124
12860TIP3    H159995   6.518   3.605   2.620  2.5025 -0.4130  0.3128
12860TIP3    H259996   6.445   3.503   2.534  1.6015  0.9951 -0.6126
12861TIP3   OH259997   5.283   2.371   2.279  0.4848  0.0807 -0.0679
12861TIP3    H159998   5.192   2.379   2.253  1.2563  1.6492 -2.4478
12861TIP3    H259999   5.319   2.301   2.225  1.3672  1.3626 -1.1773
12862TIP3   OH260000   2.231   3.821   5.729 -0.5698 -0.4872  0.3719
12862TIP3    H160001   2.323   3.803   5.746 -0.4491  0.0890  0.3334
12862TIP3    H260002   2.187   3.737   5.743  0.1327 -1.0818 -0.9217
12863TIP3   OH260003   1.623   2.361   1.123  0.1651  0.2706  0.1447
12863TIP3    H160004   1.674   2.280   1.123 -0.4226 -0.1112 -1.0724
12863TIP3    H260005   1.539   2.337   1.161  0.1900  0.4371  0.3058
12864TIP3   OH260006   0.306   2.728   4.900  1.0198 -0.3029  0.1736
12864TIP3    H160007   0.254   2.716   4.820  0.6631  0.0345  0.3490
12864TIP3    H260008   0.260   2.798   4.947 -0.4486 -2.4501  2.0418
12865TIP3   OH260009   0.546   4.625  11.671 -0.1260 -0.0058  0.3424
12865TIP3    H160010   0.585   4.542  11.646  0.6402  0.9566 -1.8571
12865TIP3    H260011   0.620   4.685  11.678 -0.9399  1.3498 -1.8336
12866TIP3   OH260012   4.003   0.860   3.452 -0.0042 -0.4985  0.7627
12866TIP3    H160013   3.955   0.933   3.490  1.7787  0.6501  0.8793
12866TIP3    H260014   4.095   0.885   3.461  0.5664 -1.9265 -0.8797
12867TIP3   OH260015   6.018   1.632   0.397 -0.0477 -0.8324  0.1303
12867TIP3    H160016   6.109   1.620   0.424 -0.1542 -0.5616  0.6106
12867TIP3    H260017   5.988   1.708   0.447 -0.6001 -1.0547  0.1359
12868TIP3   OH260018   2.001   0.410  16.068  0.2709 -0.2792  0.4998
12868TIP3    H160019   2.081   0.366  16.097 -0.7570 -0.5782  3.0579
12868TIP3    H260020   1.931   0.367  16.118 -1.1606  1.7956  0.3310
12869TIP3   OH260021   0.560   2.606   4.936  0.3382 -0.1421  0.0173
12869TIP3    H160022   0.608   2.617   4.854  0.3338  1.2121  0.1749
12869TIP3    H260023   0.470   2.632   4.915  0.4518  0.7188  0.5670
12870TIP3   OH260024   1.938   1.334  14.427  0.3523 -0.5103  0.0978
12870TIP3    H160025   1.939   1.393  14.352 -0.3304 -1.2483 -0.5051
12870TIP3    H260026   2.029   1.308  14.439  0.6914  0.9007  0.5586
12871TIP3   OH260027   1.174   2.731  11.766 -0.1953  0.2155  0.3095
12871TIP3    H160028   1.223   2.770  11.839  0.5478 -1.9218  0.9843
12871TIP3    H260029   1.114   2.669  11.807  0.5248 -1.3213 -0.8893
12872TIP3   OH260030   5.258   1.608   6.709 -0.2249 -0.1395  0.1459
12872TIP3    H160031   5.351   1.599   6.729  0.1712  0.3791 -1.4352
12872TIP3    H260032   5.237   1.698   6.735 -0.8654 -0.9782  2.7036
12873TIP3   OH260033   2.538   3.913  11.391 -0.1595 -0.0269 -0.5509
12873TIP3    H160034   2.486   3.964  11.329 -0.4753 -1.0282 -1.1173
12873TIP3    H260035   2.536   3.965  11.472  0.3982  1.3796 -1.4111
12874TIP3   OH260036   2.816   6.252   5.654  0.3509 -0.2101 -0.0857
12874TIP3    H160037   2.896   6.242   5.603  0.6767  0.0000  0.3855
12874TIP3    H260038   2.846   6.275   5.742 -0.2843  1.7972 -0.3743
12875TIP3   OH260039   5.398   6.674   0.404  0.2239 -0.1401 -0.0012
12875TIP3    H160040   5.367   6.739   0.340 -0.9827  0.6626  1.3553
12875TIP3    H260041   5.478   6.712   0.439 -0.7492  0.9068  1.1593
12876TIP3   OH260042   3.015   4.420  14.934 -0.7998 -0.1121  0.4071
12876TIP3    H160043   2.929   4.402  14.896 -0.1607  1.8109 -2.0596
12876TIP3    H260044   3.064   4.339  14.920 -1.3544 -0.2723 -0.6243
12877TIP3   OH260045   1.872   5.421  11.953  0.1348  0.0942  0.4741
12877TIP3    H160046   1.868   5.385  11.864 -0.6640 -0.8442  0.8745
12877TIP3    H260047   1.797   5.480  11.958 -0.3328 -0.5259  0.8053
12878TIP3   OH260048   5.343   2.680   3.983 -0.1277  0.3858  0.3883
12878TIP3    H160049   5.421   2.733   3.966 -0.0120  0.5957  1.5403
12878TIP3    H260050   5.362   2.636   4.066 -1.8297  1.5510  1.4152
12879TIP3   OH260051   4.342   0.509   6.316  0.4841 -0.1110  0.5877
12879TIP3    H160052   4.398   0.474   6.386  1.2509  1.4659  0.7681
12879TIP3    H260053   4.390   0.490   6.236 -0.1344 -1.4231  0.5135
12880TIP3   OH260054   3.949   4.627  15.861  0.2667 -0.2628 -0.6915
12880TIP3    H160055   3.951   4.567  15.936 -1.0029  0.1202 -0.3424
12880TIP3    H260056   3.865   4.672  15.868  0.6753  0.6761 -1.6530
12881TIP3   OH260057   6.437   4.785   5.091  0.3271  0.0466 -0.6736
12881TIP3    H160058   6.344   4.765   5.076  0.3339 -1.5114  1.1112
12881TIP3    H260059   6.441   4.880   5.091 -1.5520  0.1650  0.6576
12882TIP3   OH260060   6.473   5.516  15.950 -0.2187 -0.1290  0.0636
12882TIP3    H160061   6.517   5.472  15.877  0.3039 -2.6299  1.8316
12882TIP3    H260062   6.394   5.554  15.911 -0.1656 -1.7712 -1.7177
12883TIP3   OH260063   0.224   0.844  13.593  0.2546 -0.3231 -0.3400
12883TIP3    H160064   0.224   0.764  13.539  1.1802 -1.1358  0.8405
12883TIP3    H260065   0.244   0.813  13.681 -0.0065  1.1540  0.2496
12884TIP3   OH260066   1.509   6.264  13.754 -0.2027  0.9039  0.1436
12884TIP3    H160067   1.555   6.183  13.775 -1.9766 -0.1368  0.1312
12884TIP3    H260068   1.518   6.318  13.832  1.6712  1.0185 -0.1445
12885TIP3   OH260069   4.804   6.006   0.213 -0.8942 -0.0028  0.0760
12885TIP3    H160070   4.724   5.998   0.163 -0.6856 -1.7652  0.0122
12885TIP3    H260071   4.862   5.938   0.179  0.2209  0.5213  0.8716
12886TIP3   OH260072   2.985   4.746   3.787  0.2812 -0.9434 -0.0836
12886TIP3    H160073   3.028   4.825   3.754 -1.4543  0.6421  1.3578
12886TIP3    H260074   2.925   4.721   3.717  0.8526 -0.9912 -0.5576
12887TIP3   OH260075   6.321   1.414  11.970  0.2293 -0.3731  0.1199
12887TIP3    H160076   6.303   1.345  12.033 -0.4276 -1.4848 -1.2480
12887TIP3    H260077   6.329   1.368  11.886 -1.4873  1.3271 -1.0217
12888TIP3   OH260078   4.247   4.607   0.720 -0.1393  0.0524  0.2408
12888TIP3    H160079   4.232   4.658   0.640 -0.9615  1.8358  1.4773
12888TIP3    H260080   4.317   4.654   0.765 -0.4758 -0.2707  1.1129
12889TIP3   OH260081   3.592   6.421  17.053  0.3982  0.3485  0.2385
12889TIP3    H160082   3.643   6.341  17.040  0.4779  0.6460 -1.4019
12889TIP3    H260083   3.515   6.393  17.102  0.4691 -0.7105 -0.2512
12890TIP3   OH260084   1.857   4.697  12.567 -0.3233 -0.1860  0.5518
12890TIP3    H160085   1.891   4.612  12.542  0.6240  0.5319 -0.6664
12890TIP3    H260086   1.897   4.715  12.653 -0.8830 -1.1514  1.0153
12891TIP3   OH260087   0.350   2.538   4.335  0.5430 -0.2079 -0.3834
12891TIP3    H160088   0.368   2.613   4.277  1.7818  0.6271  1.0382
12891TIP3    H260089   0.391   2.464   4.292 -0.7973 -0.0989 -1.8752
12892TIP3   OH260090   0.067   1.109   0.773 -0.4846 -0.2205 -0.4482
12892TIP3    H160091   0.158   1.079   0.776 -0.5083 -0.2478 -0.0706
12892TIP3    H260092   0.062   1.158   0.691  0.0488  0.3548 -0.1442
12893TIP3   OH260093   4.565   5.453  15.741  0.3279 -0.5965 -0.0532
12893TIP3    H160094   4.525   5.408  15.667  1.9078 -2.0198 -0.0807
12893TIP3    H260095   4.637   5.504  15.703 -0.3845  0.6427  0.2046
12894TIP3   OH260096   6.689   5.443  10.795  0.1799 -0.4443 -0.1771
12894TIP3    H160097   6.782   5.424  10.786  0.1083  0.3117 -2.9069
12894TIP3    H260098   6.657   5.380  10.859  2.2670 -1.7233 -0.3724
12895TIP3   OH260099   5.119   3.635  13.298  0.0579 -0.5210  0.2347
12895TIP3    H160100   5.052   3.670  13.239 -0.5608  1.1364  1.8659
12895TIP3    H260101   5.193   3.694  13.288  0.6129 -1.2785 -0.1837
12896TIP3   OH260102   4.672   6.452  13.111  0.3916  0.1115  0.1670
12896TIP3    H160103   4.611   6.402  13.056  1.5175  0.2839 -1.2801
12896TIP3    H260104   4.688   6.532  13.062  0.5676  0.7671  1.2856
12897TIP3   OH260105   5.780   4.346   6.122  0.5505  0.3405 -0.8983
12897TIP3    H160106   5.778   4.252   6.139 -1.1701  0.3594 -0.9086
12897TIP3    H260107   5.872   4.370   6.132  0.8302 -1.1321  0.2595
12898TIP3   OH260108   3.140   0.742  14.851  0.2467 -0.2584  0.6734
12898TIP3    H160109   3.059   0.760  14.805  1.0355  2.0198  0.1384
12898TIP3    H260110   3.113   0.724  14.941 -0.8707  0.0218  0.4010
12899TIP3   OH260111   5.784   5.712   1.033 -0.4742  0.7090  0.5707
12899TIP3    H160112   5.711   5.717   0.971 -1.8732  0.4168  2.1286
12899TIP3    H260113   5.742   5.689   1.116  1.6604 -1.7989  1.0092
12900TIP3   OH260114   4.410   0.732  15.339  0.3157  0.5169 -0.4506
12900TIP3    H160115   4.500   0.722  15.371 -0.2054 -0.3553  0.7440
12900TIP3    H260116   4.365   0.652  15.367 -0.9678  1.1755 -0.6051
12901TIP3   OH260117   4.321   4.639   3.056 -0.1011 -0.0826 -0.3109
12901TIP3    H160118   4.394   4.608   3.003  0.4669 -0.3121  0.5888
12901TIP3    H260119   4.247   4.642   2.995  0.0005 -2.5301 -0.6092
12902TIP3   OH260120   5.019   5.348  11.523  0.2045 -0.3750 -0.8610
12902TIP3    H160121   4.933   5.335  11.564  0.6685 -0.0277  0.2310
12902TIP3    H260122   5.037   5.265  11.479  1.3651 -2.1733  2.7774
12903TIP3   OH260123   6.148   2.872  13.282  0.0076  0.2508  0.2349
12903TIP3    H160124   6.148   2.776  13.285  1.2499  0.2817  1.6365
12903TIP3    H260125   6.077   2.894  13.221  0.6043 -1.5895 -1.1902
12904TIP3   OH260126   0.993   2.736  14.531 -0.0447 -0.2454 -0.6368
12904TIP3    H160127   0.932   2.664  14.549  1.9177 -2.3636 -2.1963
12904TIP3    H260128   0.957   2.780  14.454 -0.9498  0.1345 -0.0131
12905TIP3   OH260129   2.630   3.658  14.623  0.2102 -0.0146  0.0615
12905TIP3    H160130   2.664   3.619  14.704 -1.9145  0.6620  1.3024
12905TIP3    H260131   2.597   3.584  14.573  0.7503 -0.3365  0.1729
12906TIP3   OH260132   0.315   2.294   0.400 -0.4269 -0.0544  0.1063
12906TIP3    H160133   0.272   2.312   0.317 -0.8101  1.0894  0.5357
12906TIP3    H260134   0.407   2.284   0.378 -0.6687 -0.7317 -0.5853
12907TIP3   OH260135   1.261   6.000   0.621  0.3022 -0.1627 -0.2984
12907TIP3    H160136   1.185   5.948   0.647  0.5470  0.0180  0.7796
12907TIP3    H260137   1.327   5.935   0.597  0.6103 -0.3668  1.0560
12908TIP3   OH260138   4.283   5.702   3.165 -0.1930 -0.1215  0.1566
12908TIP3    H160139   4.293   5.623   3.219  0.9177 -0.6049 -0.7407
12908TIP3    H260140   4.278   5.669   3.075  1.3325  0.9049 -0.3143
12909TIP3   OH260141   2.057   1.086  12.302  0.8585  0.0851 -0.0797
12909TIP3    H160142   2.144   1.046  12.306  0.7633 -0.2928 -1.5625
12909TIP3    H260143   2.057   1.136  12.221  0.3015  1.5529  0.8021
12910TIP3   OH260144   4.442   6.417  12.224 -0.3903  0.1485  0.1943
12910TIP3    H160145   4.381   6.353  12.186 -0.0713  0.0477 -0.1513
12910TIP3    H260146   4.528   6.391  12.191 -0.3617  1.2985 -0.6946
12911TIP3   OH260147   2.749   1.810  11.510  0.1562 -0.5113  0.4648
12911TIP3    H160148   2.688   1.821  11.583  1.2336  0.5532  1.2205
12911TIP3    H260149   2.735   1.888  11.455  0.2149 -0.7064  0.1717
12912TIP3   OH260150   2.334   1.021  14.828 -0.0709  0.3714 -0.0502
12912TIP3    H160151   2.306   0.964  14.757  1.7341  0.8610 -1.2063
12912TIP3    H260152   2.299   0.981  14.907  1.5815 -2.6382 -0.7895
12913TIP3   OH260153   4.508   0.361   2.207  0.2277 -0.0226  0.1220
12913TIP3    H160154   4.431   0.335   2.156  1.0075  0.3936 -1.3147
12913TIP3    H260155   4.516   0.294   2.274 -0.7195 -0.7040 -0.4245
12914TIP3   OH260156   5.556   0.070   2.078 -0.0702 -0.1700  0.1229
12914TIP3    H160157   5.488   0.110   2.024 -1.1173  0.6376  2.0191
12914TIP3    H260158   5.508   0.018   2.143  1.2053 -2.2844 -0.5570
12915TIP3   OH260159   4.962   5.462  15.541  0.5513 -0.0076  0.3819
12915TIP3    H160160   4.872   5.474  15.569  0.0672 -1.6421 -0.3669
12915TIP3    H260161   4.984   5.541  15.492 -0.1204  0.8467  1.4706
12916TIP3   OH260162   3.800   6.428   0.293  0.1592  0.0126 -0.1355
12916TIP3    H160163   3.706   6.409   0.302  0.1647 -0.8442 -1.6621
12916TIP3    H260164   3.832   6.361   0.233  1.5694  0.8701 -0.3619
12917TIP3   OH260165   1.811   0.971   3.479  0.3616 -0.4596  0.2863
12917TIP3    H160166   1.726   0.989   3.518 -0.2337 -2.1961 -0.1639
12917TIP3    H260167   1.871   1.030   3.525 -1.3113  1.9272 -0.5006
12918TIP3   OH260168   0.567   3.401   6.496  0.2283  0.8356 -0.2027
12918TIP3    H160169   0.478   3.389   6.465 -0.5152  1.5830  1.5903
12918TIP3    H260170   0.563   3.383   6.590  2.0224  0.5915 -0.1571
12919TIP3   OH260171   2.632   4.394   3.350 -0.4992  0.7724 -0.4730
12919TIP3    H160172   2.702   4.350   3.398 -1.6487  0.8549  1.3708
12919TIP3    H260173   2.552   4.346   3.374 -1.0912  0.6948 -2.5036
12920TIP3   OH260174   3.397   6.731  11.488  0.4071  0.0008  0.2727
12920TIP3    H160175   3.437   6.750  11.403 -0.0609  0.3738  0.1302
12920TIP3    H260176   3.323   6.792  11.493 -0.4008 -0.9799  0.3350
12921TIP3   OH260177   5.535   5.435  13.006  0.1512 -0.9430  0.1389
12921TIP3    H160178   5.625   5.468  13.008  0.3030 -1.3314 -0.1639
12921TIP3    H260179   5.487   5.493  13.065  0.4084 -0.1698 -0.4007
12922TIP3   OH260180   0.933   0.751  11.257 -0.7504  0.3595  0.0743
12922TIP3    H160181   0.858   0.712  11.210  1.7490 -1.6770 -2.3961
12922TIP3    H260182   0.893   0.814  11.316 -4.3627  0.3172 -2.1335
12923TIP3   OH260183   0.195   3.239   3.509  0.2718 -0.4049  0.5497
12923TIP3    H160184   0.144   3.286   3.575  2.2268  1.5929  0.7101
12923TIP3    H260185   0.196   3.297   3.433 -0.0966 -1.7041 -0.4731
12924TIP3   OH260186   3.503   0.660   2.956 -0.3339 -0.0403  0.5965
12924TIP3    H160187   3.427   0.635   2.903 -0.3502  0.9627  0.1214
12924TIP3    H260188   3.562   0.703   2.894  0.1101  0.2099  1.1868
12925TIP3   OH260189   0.198   5.141   1.999  0.6529  0.3746 -0.3575
12925TIP3    H160190   0.284   5.182   2.009  0.5427  0.9196 -1.6362
12925TIP3    H260191   0.198   5.105   1.911 -0.8732  1.4349 -0.8111
12926TIP3   OH260192   6.683   2.285  12.162 -0.0068 -0.0258 -0.0472
12926TIP3    H160193   6.652   2.263  12.074 -1.3327  1.4003  0.0440
12926TIP3    H260194   6.777   2.301  12.151  0.1202 -1.2666 -0.9274
12927TIP3   OH260195   6.615   1.100   0.886  0.0999  0.9385  0.1941
12927TIP3    H160196   6.571   1.163   0.829  0.5411  1.3906  0.3565
12927TIP3    H260197   6.697   1.080   0.841  0.6933  1.7026  0.9325
12928TIP3   OH260198   2.586   3.023  12.551  0.6641  0.4768 -0.1789
12928TIP3    H160199   2.505   3.068  12.576  0.6051  1.1386 -1.5197
12928TIP3    H260200   2.578   3.010  12.456  1.2462 -1.2263 -0.0172
12929TIP3   OH260201   4.710   1.272  15.399  0.8189 -0.1073  0.1894
12929TIP3    H160202   4.654   1.278  15.322  0.2726 -1.6383  0.4427
12929TIP3    H260203   4.650   1.246  15.470  1.4465  0.5042  0.9499
12930TIP3   OH260204   2.391   1.917   1.071 -0.9016 -0.3885 -0.4452
12930TIP3    H160205   2.449   1.845   1.097 -0.5293 -0.4008 -1.2828
12930TIP3    H260206   2.305   1.893   1.104 -0.3816 -0.2473  1.0525
12931TIP3   OH260207   1.097   1.491   1.124  0.0156  0.2916  0.0856
12931TIP3    H160208   1.002   1.484   1.114  0.2006 -1.8621 -0.3705
12931TIP3    H260209   1.127   1.539   1.047 -0.5376 -0.3517 -0.5284
12932TIP3   OH260210   2.515   5.248  11.614  0.1620  0.3114 -0.0870
12932TIP3    H160211   2.589   5.191  11.639 -0.6643 -1.8744 -2.3739
12932TIP3    H260212   2.533   5.273  11.524 -1.0985  1.0785 -0.1386
12933TIP3   OH260213   2.659   0.727   2.266  0.0007 -0.2271 -0.0919
12933TIP3    H160214   2.681   0.793   2.331 -1.3674  0.4275 -0.2694
12933TIP3    H260215   2.568   0.704   2.285 -0.0841 -0.7935 -1.1156
12934TIP3   OH260216   6.181   1.310  11.267  0.0291  0.0919  0.3753
12934TIP3    H160217   6.276   1.312  11.278  0.0767 -0.5211  0.1214
12934TIP3    H260218   6.167   1.337  11.176 -0.0862  0.8325  0.6078
12935TIP3   OH260219   1.979   3.593   1.768  0.2683 -0.2238 -0.5266
12935TIP3    H160220   2.054   3.646   1.738  0.5306  1.4110  2.7636
12935TIP3    H260221   1.930   3.652   1.826 -0.3252 -3.0970  1.9886
12936TIP3   OH260222   6.278   1.765  12.653 -0.6547  0.7464 -0.5692
12936TIP3    H160223   6.242   1.682  12.687 -2.3206  1.3750 -0.7273
12936TIP3    H260224   6.324   1.740  12.574 -3.4643  0.2693 -2.1383
12937TIP3   OH260225   1.009   4.681  16.179 -0.6921  0.1424  0.5384
12937TIP3    H160226   0.929   4.653  16.137  0.7148 -1.8217 -0.9104
12937TIP3    H260227   1.071   4.693  16.107  0.5830  0.7580  1.7096
12938TIP3   OH260228   1.846   1.742   1.376 -0.0761  0.3733  0.4573
12938TIP3    H160229   1.803   1.723   1.459 -1.1927  0.3688 -0.1006
12938TIP3    H260230   1.774   1.752   1.314  0.7677 -0.2908 -0.6489
12939TIP3   OH260231   2.436   6.540  16.529  1.2624  0.6410  0.3398
12939TIP3    H160232   2.438   6.495  16.613  0.1525 -1.1291 -0.5484
12939TIP3    H260233   2.422   6.632  16.550  1.0277  0.2073  2.0851
12940TIP3   OH260234   1.844   5.917  10.387  0.1644 -0.2331  0.0705
12940TIP3    H160235   1.813   5.984  10.448 -2.6527  1.0175 -2.5999
12940TIP3    H260236   1.920   5.957  10.344 -0.1855  0.3915  0.0265
12941TIP3   OH260237   3.439   1.893  11.901 -0.2154  0.0475 -0.4630
12941TIP3    H160238   3.499   1.964  11.925 -2.9168  3.0320 -2.1217
12941TIP3    H260239   3.357   1.916  11.945 -0.6972 -3.0315  0.3670
12942TIP3   OH260240   6.053   1.781  14.894 -0.2823  0.3971 -0.1781
12942TIP3    H160241   5.978   1.814  14.944  0.9419  0.6062  1.5755
12942TIP3    H260242   6.095   1.860  14.861  0.4413  0.4125  0.7566
12943TIP3   OH260243   4.607   4.963   5.767 -0.0957  0.7736 -0.4744
12943TIP3    H160244   4.567   4.880   5.795  0.9282  1.0031  1.7984
12943TIP3    H260245   4.612   5.015   5.847  4.0001  1.0461 -0.8132
12944TIP3   OH260246   2.689   1.709  16.035 -0.1103  0.3444  0.5712
12944TIP3    H160247   2.775   1.669  16.048  0.0022  0.4999  0.3159
12944TIP3    H260248   2.637   1.641  15.993  0.1918  0.5895 -0.2032
12945TIP3   OH260249   1.748   5.473   3.920  0.4128  1.2443 -0.4003
12945TIP3    H160250   1.828   5.488   3.969  0.3211  3.2081 -0.8138
12945TIP3    H260251   1.775   5.421   3.844  0.5109 -2.0797  1.7880
12946TIP3   OH260252   0.477   4.171  16.962 -0.3758  0.2755  0.3699
12946TIP3    H160253   0.448   4.134  16.879 -1.2770 -1.1979  1.3118
12946TIP3    H260254   0.573   4.170  16.957 -0.4185 -0.2280 -0.4592
12947TIP3   OH260255   3.796   0.232   3.375  0.1990  0.2821 -0.3567
12947TIP3    H160256   3.870   0.228   3.314  2.0965  0.6567  1.8846
12947TIP3    H260257   3.766   0.323   3.370  0.5694  0.3981 -0.4672
12948TIP3   OH260258   3.894   3.069  15.803 -0.4706  0.1931  0.3562
12948TIP3    H160259   3.812   3.021  15.813 -0.0030 -0.9149 -0.9457
12948TIP3    H260260   3.952   3.008  15.757  1.0439  1.0021  1.1446
12949TIP3   OH260261   0.199   5.473  11.869 -0.3245  0.5239  0.2134
12949TIP3    H160262   0.135   5.462  11.939  0.0650  2.5273  0.9197
12949TIP3    H260263   0.279   5.500  11.914  0.8314 -1.2529 -0.7168
12950TIP3   OH260264   5.154   2.602  13.520 -0.1356  0.2769  0.1393
12950TIP3    H160265   5.236   2.560  13.497 -0.6592 -1.6481  1.6447
12950TIP3    H260266   5.109   2.615  13.436  1.2958  0.5125 -0.5972
12951TIP3   OH260267   0.446   5.424   6.141  0.4021 -0.5859  0.2024
12951TIP3    H160268   0.360   5.462   6.160  0.8391 -0.0346  1.1378
12951TIP3    H260269   0.493   5.428   6.225  0.9890 -1.7948 -0.0614
12952TIP3   OH260270   4.574   0.691   6.284  0.1905  0.1474  0.8244
12952TIP3    H160271   4.590   0.780   6.253 -1.9829  0.4277  0.4314
12952TIP3    H260272   4.505   0.700   6.350  0.6882 -1.1384  1.5517
12953TIP3   OH260273   1.610   4.968   3.495  0.0930  0.4815  0.4240
12953TIP3    H160274   1.671   5.029   3.537  0.2254  0.9106 -0.3596
12953TIP3    H260275   1.530   5.019   3.481  0.1080  0.4023  0.0185
12954TIP3   OH260276   6.344   1.037   1.999  0.6501 -1.0545  0.8875
12954TIP3    H160277   6.363   1.118   1.951  1.9599 -2.2575 -0.6602
12954TIP3    H260278   6.250   1.041   2.015  0.3569 -0.1270 -0.8852
12955TIP3   OH260279   5.161   4.798   4.688  0.4920 -0.0843 -0.0040
12955TIP3    H160280   5.123   4.758   4.766  0.3923  0.2252  0.1085
12955TIP3    H260281   5.218   4.868   4.722  0.8290 -0.2681 -0.1904
12956TIP3   OH260282   3.487   5.344   4.036 -0.0815 -0.2135  0.1825
12956TIP3    H160283   3.430   5.353   3.959 -0.2050  0.7129  0.3797
12956TIP3    H260284   3.438   5.287   4.095 -0.8462  0.6378  0.3799
12957TIP3   OH260285   1.426   1.415  12.229  0.0421  0.1706  0.3662
12957TIP3    H160286   1.457   1.495  12.273  0.0078  0.1769  0.3784
12957TIP3    H260287   1.443   1.345  12.292  1.2516 -0.0138 -0.1465
12958TIP3   OH260288   2.757   1.764  13.769 -0.5338 -0.0311 -0.0531
12958TIP3    H160289   2.831   1.747  13.711 -1.3673 -1.6456 -0.6724
12958TIP3    H260290   2.690   1.802  13.712 -0.5774  0.4218  0.2930
12959TIP3   OH260291   0.870   3.085  12.611 -0.4939  0.0731  0.7682
12959TIP3    H160292   0.782   3.112  12.587 -1.1237 -0.5246  2.3120
12959TIP3    H260293   0.858   3.026  12.686  1.0156 -2.2819 -0.7749
12960TIP3   OH260294   1.523   5.330   1.430 -0.5680 -0.3814  0.1405
12960TIP3    H160295   1.466   5.392   1.476 -0.8852 -0.6514  0.1157
12960TIP3    H260296   1.562   5.382   1.359  0.4419  0.2041  1.1192
12961TIP3   OH260297   5.100   0.552  13.684 -0.2234 -0.1072 -0.4139
12961TIP3    H160298   5.194   0.541  13.696 -0.1064  0.3092 -0.8987
12961TIP3    H260299   5.088   0.551  13.589 -0.7355 -0.3675 -0.3488
12962TIP3   OH260300   3.710   0.485   3.303  0.2923  0.1401 -0.0069
12962TIP3    H160301   3.675   0.475   3.215 -0.9071  0.9104  0.3531
12962TIP3    H260302   3.783   0.546   3.293  0.0921  0.3109 -0.4540
12963TIP3   OH260303   3.897   4.821   6.438  0.1698  0.3871 -0.4485
12963TIP3    H160304   3.814   4.773   6.439  0.7515 -0.6433 -1.3409
12963TIP3    H260305   3.870   4.913   6.429 -0.8779  0.0795 -0.5836
12964TIP3   OH260306   0.158   6.450   0.169  0.2824  0.0009  0.6846
12964TIP3    H160307   0.217   6.397   0.117  0.3488 -1.5040  2.2790
12964TIP3    H260308   0.107   6.388   0.220 -1.2458  1.3620  0.8847
12965TIP3   OH260309   5.575   2.291  13.224 -0.1984  0.3800  0.1342
12965TIP3    H160310   5.542   2.374  13.259 -1.4633  0.0635 -0.3000
12965TIP3    H260311   5.613   2.315  13.139 -3.1289  0.0698 -1.3044
12966TIP3   OH260312   6.344   5.819  11.210  0.3819  0.5791 -0.5313
12966TIP3    H160313   6.397   5.897  11.191  1.0167 -0.0562 -1.4335
12966TIP3    H260314   6.408   5.748  11.214 -0.2586  0.0179 -0.2483
12967TIP3   OH260315   2.081   4.973  11.596 -0.1027 -0.9166 -0.1216
12967TIP3    H160316   2.174   4.986  11.613 -0.2397 -0.3081  0.1922
12967TIP3    H260317   2.068   5.001  11.506 -0.3585  0.9952  0.4866
12968TIP3   OH260318   2.945   3.885   0.941 -0.7830  0.6017 -0.3259
12968TIP3    H160319   2.903   3.806   0.907 -0.0283  0.0690 -0.0238
12968TIP3    H260320   3.039   3.867   0.935 -0.6286  0.3943  2.2842
12969TIP3   OH260321   1.891   3.644   1.274 -0.7320  0.3218 -0.2884
12969TIP3    H160322   1.893   3.555   1.309 -0.5948 -0.1755 -1.5407
12969TIP3    H260323   1.798   3.663   1.260 -0.6848 -0.0866 -1.1728
12970TIP3   OH260324   4.829   1.037  12.312  0.1440 -0.3541 -0.2537
12970TIP3    H160325   4.889   1.087  12.367 -0.4183  0.6447 -0.5336
12970TIP3    H260326   4.766   1.102  12.280 -0.4108 -1.1873 -0.8770
12971TIP3   OH260327   4.388   3.759  15.662  0.0829  0.6050 -0.2894
12971TIP3    H160328   4.413   3.698  15.731  0.6827  1.3696  0.1852
12971TIP3    H260329   4.325   3.711  15.608 -0.9216  0.2367  1.1951
12972TIP3   OH260330   0.309   0.712  14.730  0.3645 -0.5951 -0.2692
12972TIP3    H160331   0.214   0.713  14.743  0.3627  1.3399 -0.3110
12972TIP3    H260332   0.327   0.790  14.677  2.2729  0.6105  2.0387
12973TIP3   OH260333   3.738   0.583  11.520  0.1578  0.0578 -0.7955
12973TIP3    H160334   3.794   0.508  11.542  0.3737  0.5847  0.4694
12973TIP3    H260335   3.792   0.636  11.461  0.6928  0.1504 -0.2290
12974TIP3   OH260336   4.427   2.735  11.594  0.3877 -0.4026 -0.0521
12974TIP3    H160337   4.456   2.822  11.622 -2.3409  0.9230 -1.1028
12974TIP3    H260338   4.507   2.690  11.567  1.8913  1.6609  0.8267
12975TIP3   OH260339   4.623   1.261   0.610 -0.6138  0.3317 -0.1349
12975TIP3    H160340   4.623   1.215   0.694  1.3160 -0.8879 -0.7722
12975TIP3    H260341   4.531   1.286   0.596 -0.8237  1.2188  2.6713
12976TIP3   OH260342   3.307   0.385  11.711  0.2304 -0.5282  0.6718
12976TIP3    H160343   3.227   0.372  11.661  1.7078 -1.1701 -1.6061
12976TIP3    H260344   3.307   0.315  11.776 -0.4646 -1.2757 -0.1223
12977TIP3   OH260345   1.864   4.231  15.642  0.2744  0.2367 -0.0480
12977TIP3    H160346   1.814   4.212  15.721  0.1852  0.4026 -0.0643
12977TIP3    H260347   1.798   4.236  15.573  0.5555 -2.1306 -0.5395
12978TIP3   OH260348   3.000   2.148   5.142 -0.1772 -0.2431 -0.6923
12978TIP3    H160349   3.042   2.083   5.199  0.9511 -0.0931 -1.3340
12978TIP3    H260350   2.926   2.180   5.193  1.2354  0.4257  0.9935
12979TIP3   OH260351   2.415   5.683   1.746 -0.0146 -0.2431  0.2053
12979TIP3    H160352   2.496   5.661   1.699 -0.6165 -1.1572 -0.4134
12979TIP3    H260353   2.374   5.599   1.765 -1.0898  0.2399  0.0512
12980TIP3   OH260354   0.654   3.061  15.162  0.6359 -0.9471 -0.1942
12980TIP3    H160355   0.589   3.120  15.200  1.6746 -0.5358  0.9666
12980TIP3    H260356   0.687   3.011  15.237 -0.4344 -3.2329 -1.1785
12981TIP3   OH260357   2.568   0.199   1.915 -0.3752  0.1367 -0.2571
12981TIP3    H160358   2.605   0.112   1.933 -1.0966 -0.1170  0.0372
12981TIP3    H260359   2.474   0.183   1.906 -0.6049  0.9896  0.5309
12982TIP3   OH260360   3.760   5.769   4.812  0.2835  0.3176  0.0491
12982TIP3    H160361   3.820   5.840   4.792 -0.7224  1.6184  1.5587
12982TIP3    H260362   3.720   5.747   4.728  1.0454  1.1263 -0.5313
12983TIP3   OH260363   5.186   2.873  15.437  0.2617 -0.6365  0.3540
12983TIP3    H160364   5.168   2.963  15.410 -0.4955 -0.4250  1.5358
12983TIP3    H260365   5.230   2.834  15.361 -0.6228  0.3233 -0.6736
12984TIP3   OH260366   4.183   0.239  16.446 -0.4071 -0.6905 -0.3971
12984TIP3    H160367   4.241   0.234  16.522 -0.2435 -0.6485 -0.5204
12984TIP3    H260368   4.143   0.152  16.441 -0.2124 -0.7783 -0.4264
12985TIP3   OH260369   3.600   3.370   1.663 -0.0928  0.3531  0.0035
12985TIP3    H160370   3.604   3.407   1.751  0.7673  1.7669 -0.6013
12985TIP3    H260371   3.683   3.397   1.622 -0.3188 -0.6048 -1.1167
12986TIP3   OH260372   2.938   3.075   0.017  0.1459 -0.3159  0.0861
12986TIP3    H160373   2.881   3.146  -0.013  0.0079 -0.5768 -0.2829
12986TIP3    H260374   3.013   3.079  -0.043  0.6262  0.1734  0.7101
12987TIP3   OH260375   6.690   1.931   2.564 -0.5474  0.2198 -0.4634
12987TIP3    H160376   6.618   1.897   2.617 -0.8012  3.0374  1.1252
12987TIP3    H260377   6.764   1.938   2.625 -0.2680  1.6261 -0.9357
12988TIP3   OH260378   3.180   1.226  16.182 -0.4629 -0.3124  0.0372
12988TIP3    H160379   3.110   1.163  16.199  0.4368 -1.7161 -1.3889
12988TIP3    H260380   3.134   1.310  16.172 -1.8788 -1.1075 -0.3080
12989TIP3   OH260381   3.311   3.481   0.935 -0.0754  0.5361 -0.0884
12989TIP3    H160382   3.279   3.571   0.942  0.1972  0.6483 -0.2622
12989TIP3    H260383   3.313   3.464   0.841 -1.4881 -0.1505 -0.0074
12990TIP3   OH260384   2.954   6.204  16.814 -0.3339  0.0388 -0.0074
12990TIP3    H160385   2.864   6.212  16.781 -0.6750 -1.1029  0.6148
12990TIP3    H260386   3.009   6.216  16.737 -0.9957  1.4060 -0.2835
12991TIP3   OH260387   5.776   0.391  11.591 -0.2781  0.3541  0.3717
12991TIP3    H160388   5.758   0.382  11.497  0.4821  0.0547  0.2581
12991TIP3    H260389   5.695   0.428  11.626 -1.5746 -2.0490  0.0399
12992TIP3   OH260390   5.310   5.013  13.012 -0.0452 -0.1139  0.4433
12992TIP3    H160391   5.353   4.957  13.076 -1.8736  0.3824  2.1441
12992TIP3    H260392   5.237   4.961  12.979  0.1330  0.1053 -0.3168
12993TIP3   OH260393   0.156   6.320  11.420 -0.1699 -0.0897  0.0292
12993TIP3    H160394   0.215   6.339  11.494  0.5279  0.3778 -0.6447
12993TIP3    H260395   0.202   6.353  11.343 -0.8770 -0.6205 -0.6301
12994TIP3   OH260396   5.934   3.360   0.579  0.1455  0.2320  0.7605
12994TIP3    H160397   5.904   3.445   0.611 -2.9703  0.0258 -1.3741
12994TIP3    H260398   6.024   3.375   0.552 -0.2442  2.8043  0.7410
12995TIP3   OH260399   5.239   2.960   2.960  0.4287 -0.0947 -0.1155
12995TIP3    H160400   5.265   2.871   2.934 -1.1735 -0.2193 -1.2831
12995TIP3    H260401   5.321   2.999   2.992  1.0949 -2.0929  0.7557
12996TIP3   OH260402   3.728   5.880   2.552  0.8138  0.3423  0.3224
12996TIP3    H160403   3.650   5.874   2.607 -0.1824 -2.2150 -1.2940
12996TIP3    H260404   3.694   5.898   2.464  1.8371 -2.7471 -0.7691
12997TIP3   OH260405   4.555   1.689  13.707  0.6815  0.8675 -0.6813
12997TIP3    H160406   4.617   1.758  13.729  1.3630  0.2053 -0.5397
12997TIP3    H260407   4.476   1.711  13.757  1.7483  0.1534  1.3508
12998TIP3   OH260408   1.723   2.688  17.114 -0.2855  0.0299  0.1636
12998TIP3    H160409   1.745   2.600  17.145  1.0551 -0.3633 -1.8221
12998TIP3    H260410   1.787   2.745  17.157  0.9606 -0.3983 -1.0778
12999TIP3   OH260411   0.297   3.506  15.587 -0.3956  0.5617 -0.7364
12999TIP3    H160412   0.258   3.509  15.674 -3.4036  1.7185 -2.0402
12999TIP3    H260413   0.370   3.445  15.595 -0.9280  0.2861  2.4645
13000TIP3   OH260414   0.024   3.705   1.975  0.7423 -0.4021  0.7065
13000TIP3    H160415  -0.000   3.764   2.047 -0.1082  2.4830 -1.8163
13000TIP3    H260416  -0.057   3.659   1.952  0.0811  1.3948 -0.7367
13001TIP3   OH260417   5.893   2.077   0.243 -0.3265  0.0398  0.2586
13001TIP3    H160418   5.961   2.123   0.292 -0.6902  0.9097 -0.0429
13001TIP3    H260419   5.914   2.095   0.151  0.1042 -1.2262  0.1031
13002TIP3   OH260420   3.390   1.461  15.732 -0.2938 -0.4926  0.1523
13002TIP3    H160421   3.373   1.541  15.783  0.2540 -1.3221  1.6631
13002TIP3    H260422   3.330   1.468  15.658 -0.5496  1.1309  0.4718
13003TIP3   OH260423   3.813   5.512  13.306 -0.0652  0.0707 -0.0496
13003TIP3    H160424   3.900   5.533  13.341  0.0306  0.0281 -0.2584
13003TIP3    H260425   3.765   5.478  13.381  0.8394 -2.1232 -0.4063
13004TIP3   OH260426   6.621   4.789   3.599  0.3752  0.0748  0.5825
13004TIP3    H160427   6.689   4.760   3.539 -1.2992 -2.6982 -0.0781
13004TIP3    H260428   6.556   4.833   3.544  0.1855  0.0485  0.7810
13005TIP3   OH260429   1.902   2.590  16.132  0.7595 -0.5535  0.2735
13005TIP3    H160430   1.989   2.549  16.134  0.2378 -1.6708  0.2616
13005TIP3    H260431   1.874   2.590  16.224  0.5910 -0.5898  0.2222
13006TIP3   OH260432   0.125   2.136  14.662 -0.0597  0.3159  0.5577
13006TIP3    H160433   0.115   2.082  14.584  0.8418  0.3182  0.4397
13006TIP3    H260434   0.218   2.132  14.683 -0.4107 -0.2422  2.0382
13007TIP3   OH260435   1.335   1.370  16.692 -0.6653  0.0353  0.6452
13007TIP3    H160436   1.413   1.315  16.691 -0.5708  0.1656 -1.3819
13007TIP3    H260437   1.358   1.443  16.750  1.5909  1.2409 -1.6127
13008TIP3   OH260438   1.760   4.128  15.068 -0.0226 -0.1157 -0.2080
13008TIP3    H160439   1.815   4.204  15.049  0.4856  0.0911  1.9849
13008TIP3    H260440   1.771   4.113  15.162 -2.4975 -1.0224 -0.0133
13009TIP3   OH260441   3.847   4.176  16.977 -0.6418 -0.8128 -0.1893
13009TIP3    H160442   3.915   4.162  16.910 -0.2162  1.1210 -0.1792
13009TIP3    H260443   3.879   4.129  17.054  0.1895 -0.7699 -0.5064
13010TIP3   OH260444   5.308   4.646   4.130  0.3183 -0.6448 -0.0579
13010TIP3    H160445   5.372   4.575   4.135  0.2905 -0.8185 -1.8063
13010TIP3    H260446   5.228   4.608   4.166  1.0611 -0.5836  1.6659
13011TIP3   OH260447   6.162   1.042  16.614  0.2906  0.2048  0.5523
13011TIP3    H160448   6.227   1.074  16.552 -0.2975 -0.0760 -0.2181
13011TIP3    H260449   6.181   0.949  16.623 -0.8902 -0.1765 -0.7768
13012TIP3   OH260450   2.463   4.684   0.817  0.0747 -0.4729 -0.3525
13012TIP3    H160451   2.451   4.593   0.846 -1.6632 -0.0346  0.4235
13012TIP3    H260452   2.411   4.691   0.737  1.1557 -0.4713 -1.0538
13013TIP3   OH260453   4.129   5.460  16.243 -0.2183 -0.1811  0.5715
13013TIP3    H160454   4.169   5.492  16.324 -0.2186 -1.6223  1.1569
13013TIP3    H260455   4.049   5.512  16.234  1.9841  3.1140 -0.8917
13014TIP3   OH260456   2.960   2.191  14.026 -0.1050  0.1227 -0.9165
13014TIP3    H160457   3.047   2.158  14.045 -0.5278  0.0526  1.0106
13014TIP3    H260458   2.909   2.114  14.003  0.6824  0.3360 -3.4804
13015TIP3   OH260459   1.386   0.875  14.687  0.1247 -0.1173  0.4038
13015TIP3    H160460   1.381   0.867  14.592 -0.5904 -2.3476  0.5987
13015TIP3    H260461   1.297   0.901  14.713  0.4438  0.9526  0.4202
13016TIP3   OH260462   5.544   5.961   3.993 -0.2700  0.3605 -0.4560
13016TIP3    H160463   5.587   6.046   3.996 -1.9696  1.2429  0.0776
13016TIP3    H260464   5.511   5.948   4.082 -1.4070 -0.1031 -0.9329
13017TIP3   OH260465   0.223   6.768  15.007 -0.3676 -0.3771 -0.0710
13017TIP3    H160466   0.198   6.859  14.994 -1.1757 -0.6490 -0.4451
13017TIP3    H260467   0.199   6.724  14.925  0.2642 -0.8771  0.0017
13018TIP3   OH260468   0.331   5.586   5.234  0.3955  0.4913  0.0193
13018TIP3    H160469   0.413   5.635   5.238  0.4989  0.2065  1.9987
13018TIP3    H260470   0.358   5.495   5.223  0.3375  0.4188  0.4831
13019TIP3   OH260471   1.240   1.858   4.376  0.0468 -0.1848 -0.5481
13019TIP3    H160472   1.199   1.787   4.326 -0.5976 -1.0062  1.1178
13019TIP3    H260473   1.312   1.888   4.320 -1.2381 -0.4323 -2.3936
13020TIP3   OH260474   5.621   4.378  12.934 -0.8824  0.5622  0.2221
13020TIP3    H160475   5.661   4.417  13.012  1.1577 -0.1318 -0.4361
13020TIP3    H260476   5.571   4.304  12.968  1.4202 -0.8037  0.7402
13021TIP3   OH260477   2.724   3.838  16.202 -0.1975 -0.1267 -0.9828
13021TIP3    H160478   2.806   3.790  16.216 -1.3618 -1.8465  0.1742
13021TIP3    H260479   2.742   3.925  16.236  1.0336 -0.6196 -0.3132
13022TIP3   OH260480   0.471   2.112   4.119 -0.2237 -0.0300 -0.1566
13022TIP3    H160481   0.464   2.069   4.034 -1.0363 -0.2847  0.0353
13022TIP3    H260482   0.469   2.041   4.183  1.4054  0.0773  0.0563
13023TIP3   OH260483   1.011   6.198  14.362  0.4836  0.4971  0.4823
13023TIP3    H160484   0.991   6.105  14.376 -2.1370  1.0314  0.6625
13023TIP3    H260485   1.105   6.205  14.375  0.4720 -1.8430  2.2116
13024TIP3   OH260486   5.369   4.564  16.951  0.5833  0.2711 -0.1341
13024TIP3    H160487   5.454   4.582  16.992  1.3565  2.2956 -2.4780
13024TIP3    H260488   5.306   4.609  17.007  1.2825  0.5269  0.4596
13025TIP3   OH260489   6.525   6.082  12.785  0.1086  0.0957 -0.4512
13025TIP3    H160490   6.558   6.014  12.726 -1.8832 -1.4578  0.1542
13025TIP3    H260491   6.441   6.109  12.747 -1.1833 -0.8909  1.5837
13026TIP3   OH260492   0.953   4.334   4.135 -0.2668  0.2610 -0.3702
13026TIP3    H160493   0.950   4.287   4.218 -0.0022 -0.8806 -0.9988
13026TIP3    H260494   0.932   4.424   4.158  1.4236  0.3008  1.2078
13027TIP3   OH260495   5.844   5.017  13.550  0.2473 -0.6052  0.1264
13027TIP3    H160496   5.830   4.971  13.467  1.8469  0.0916 -0.5469
13027TIP3    H260497   5.864   4.947  13.612 -1.1861 -1.1512 -0.0146
13028TIP3   OH260498   1.869   5.080   5.898  0.0354  0.2213  0.2389
13028TIP3    H160499   1.826   5.075   5.813 -0.4072  0.7845  0.4184
13028TIP3    H260500   1.867   4.991   5.932  1.0122 -0.1676 -0.7198
13029TIP3   OH260501   1.050   2.982  15.141 -0.4031 -0.2051 -0.3942
13029TIP3    H160502   1.131   3.021  15.174 -1.3222  2.1333 -0.7837
13029TIP3    H260503   1.079   2.919  15.075  1.1109  0.9364 -0.8498
13030TIP3   OH260504   6.525   4.919   2.813 -0.0034 -0.9706  0.1382
13030TIP3    H160505   6.531   4.841   2.868  0.3450 -1.7146 -0.9333
13030TIP3    H260506   6.500   4.886   2.726 -1.6793  0.2953  0.1075
13031TIP3   OH260507   3.298   2.874   0.614 -0.2956  0.6776 -0.3645
13031TIP3    H160508   3.317   2.967   0.613 -0.2377  0.6756  0.4967
13031TIP3    H260509   3.372   2.834   0.568 -1.1665  1.1972 -2.2951
13032TIP3   OH260510   4.751   2.662  12.482 -0.1418 -0.2217  0.0032
13032TIP3    H160511   4.726   2.681  12.392 -1.4386 -0.7364  0.2415
13032TIP3    H260512   4.790   2.575  12.478 -0.8250 -0.5337  0.0370
13033TIP3   OH260513   2.349   6.724   6.180  0.1278  0.4030  0.2388
13033TIP3    H160514   2.356   6.789   6.110  1.2744 -0.3439 -0.3609
13033TIP3    H260515   2.386   6.768   6.257 -0.6790  1.0520  0.2596
13034TIP3   OH260516   5.909   3.880  13.890 -0.0271  0.7326  0.0563
13034TIP3    H160517   5.975   3.884  13.820  0.9227  1.4693  0.9702
13034TIP3    H260518   5.880   3.789  13.890  2.1129  0.0188  0.6238
13035TIP3   OH260519   3.147   1.173  15.776  0.1152  0.0432 -0.0748
13035TIP3    H160520   3.066   1.179  15.827  0.5396  1.6004  0.4440
13035TIP3    H260521   3.117   1.153  15.687 -0.8379  0.4424  0.1422
13036TIP3   OH260522   2.708   1.748   4.740 -0.1303  0.2862 -0.0314
13036TIP3    H160523   2.769   1.801   4.792 -0.5886  1.4942 -0.6967
13036TIP3    H260524   2.623   1.760   4.783 -0.2924  0.3421 -0.3625
13037TIP3   OH260525   5.336   0.412  15.974  0.0445 -0.0705  0.0491
13037TIP3    H160526   5.391   0.362  15.912 -0.2902  0.8250 -0.9909
13037TIP3    H260527   5.284   0.345  16.018  1.8628 -0.9275  0.9604
13038TIP3   OH260528   3.087   6.255   6.496  0.5518  0.0447  0.5128
13038TIP3    H160529   3.084   6.345   6.528  1.1984  1.5771 -3.4855
13038TIP3    H260530   3.175   6.224   6.520  0.8716  0.9779  0.5653
13039TIP3   OH260531   4.811   0.480  14.647 -0.1726 -0.5046  0.9524
13039TIP3    H160532   4.855   0.512  14.726 -0.0609 -1.9361  1.4771
13039TIP3    H260533   4.822   0.385  14.650  0.8586 -0.5025 -1.3853
13040TIP3   OH260534   0.240   0.771   5.618 -0.4871  0.2133 -0.8629
13040TIP3    H160535   0.180   0.776   5.692  1.6167 -2.3738  1.0819
13040TIP3    H260536   0.322   0.807   5.651  0.3542 -0.5513 -2.0945
13041TIP3   OH260537   4.362   2.655   5.154  0.2031  0.2990 -0.6531
13041TIP3    H160538   4.319   2.735   5.124  0.3834 -0.1611 -2.1470
13041TIP3    H260539   4.296   2.612   5.208 -0.1845  1.0421 -0.5193
13042TIP3   OH260540   4.678   1.220  11.661 -0.2688 -0.1317 -0.7749
13042TIP3    H160541   4.759   1.206  11.711  0.7669  0.7740 -2.1573
13042TIP3    H260542   4.632   1.137  11.667  0.0764 -0.2214  1.2196
13043TIP3   OH260543   3.911   4.464  11.058 -0.0370 -0.2131 -0.0502
13043TIP3    H160544   3.972   4.428  10.993 -1.6196  0.5165 -1.9937
13043TIP3    H260545   3.928   4.558  11.057  1.2473 -0.3918  2.0249
13044TIP3   OH260546   5.544   0.979  17.029 -0.1050 -0.3053  0.0719
13044TIP3    H160547   5.623   0.932  17.004 -0.2590  0.3024 -1.6031
13044TIP3    H260548   5.576   1.065  17.059 -0.1579  0.2145 -1.3060
13045TIP3   OH260549   5.764   0.489  16.539  0.4184  0.1061 -0.1429
13045TIP3    H160550   5.770   0.415  16.479 -1.1752  0.3090 -0.5591
13045TIP3    H260551   5.698   0.546  16.501  0.3504  0.8919  1.1139
13046TIP3   OH260552   0.880   5.701  14.452  0.0213  0.0317  0.1311
13046TIP3    H160553   0.832   5.708  14.534 -0.0626 -1.1867  0.2005
13046TIP3    H260554   0.816   5.663  14.391  0.8638 -1.5554  0.2107
13047TIP3   OH260555   4.046   4.804  11.248 -0.1166  0.4126  0.1334
13047TIP3    H160556   4.129   4.759  11.234 -0.9195 -0.8796 -0.6513
13047TIP3    H260557   3.981   4.734  11.250 -1.1842  1.4024  0.7948
13048TIP3   OH260558   1.763   0.685   5.416 -0.0758 -0.0160 -0.2272
13048TIP3    H160559   1.820   0.609   5.414 -0.9173 -0.6440 -0.9856
13048TIP3    H260560   1.712   0.675   5.496  0.7403  0.4490  0.3546
13049TIP3   OH260561   5.022   5.706  13.493  0.3227  0.4612 -0.2596
13049TIP3    H160562   5.096   5.737  13.441  1.3040  0.5264  1.1564
13049TIP3    H260563   5.051   5.622  13.529 -0.5505  0.1582 -0.2429
13050TIP3   OH260564   6.269   0.546   0.861  0.4304 -0.5579 -0.7158
13050TIP3    H160565   6.298   0.593   0.783 -0.2677  1.6978  0.3364
13050TIP3    H260566   6.180   0.578   0.877  1.0567  0.0257  1.7742
13051TIP3   OH260567   3.735   5.384  17.024 -0.1784  0.3360  0.0245
13051TIP3    H160568   3.678   5.424  17.089 -2.2747 -0.5205 -1.1985
13051TIP3    H260569   3.760   5.300  17.062 -2.1008 -0.5467 -0.5633
13052TIP3   OH260570   4.915   4.176   4.864 -0.1182  0.3739 -0.4220
13052TIP3    H160571   4.904   4.090   4.823  1.0060 -0.0143  0.0620
13052TIP3    H260572   4.903   4.239   4.792  1.1163 -0.2713 -1.2250
13053TIP3   OH260573   0.019   3.936  15.855  0.2405 -0.1491  0.6200
13053TIP3    H160574   0.012   3.852  15.811 -0.9211  0.9624 -1.4250
13053TIP3    H260575   0.111   3.960  15.848  0.1683 -0.2498 -0.7314
13054TIP3   OH260576   4.266   6.574  16.402  0.4178  0.0426 -0.5324
13054TIP3    H160577   4.317   6.541  16.477 -0.0120  1.0774  0.2320
13054TIP3    H260578   4.329   6.624  16.351  0.2981  0.8399  0.1025
13055TIP3   OH260579   3.612   2.433  15.620  0.1289  0.1541  0.2928
13055TIP3    H160580   3.519   2.455  15.625 -0.2244 -1.0976 -0.6370
13055TIP3    H260581   3.624   2.365  15.687  0.1949 -0.2994 -0.1831
13056TIP3   OH260582   6.021   0.903  12.853 -0.0941 -0.7614  0.3717
13056TIP3    H160583   5.968   0.979  12.829  0.0461 -0.2406  1.6549
13056TIP3    H260584   5.988   0.832  12.799  0.2327  0.3676 -1.3626
13057TIP3   OH260585   6.090   5.802  11.100  0.0971  0.3016 -0.9139
13057TIP3    H160586   6.185   5.812  11.106 -0.1966  2.2410  0.9263
13057TIP3    H260587   6.075   5.773  11.010  2.2834  1.6759 -1.7637
13058TIP3   OH260588   2.250   1.304  13.571 -0.7584  0.1060  0.2767
13058TIP3    H160589   2.207   1.318  13.486  0.1852 -0.0974 -0.2451
13058TIP3    H260590   2.179   1.311  13.635 -1.3521  1.0611 -0.4584
13059TIP3   OH260591   5.912   5.957  14.140  0.1255 -0.0484 -0.1559
13059TIP3    H160592   5.829   5.969  14.095 -0.1031 -1.2116 -0.0683
13059TIP3    H260593   5.959   5.893  14.085  0.6323  0.0079  0.2152
13060TIP3   OH260594   5.906   6.622   4.914 -0.1430 -0.2012  0.0403
13060TIP3    H160595   5.928   6.593   5.002  0.1015  0.1748  0.1031
13060TIP3    H260596   5.983   6.670   4.884  0.5622 -2.0016 -1.1363
13061TIP3   OH260597   4.664   3.665   4.354  0.0280  0.1485  0.1783
13061TIP3    H160598   4.588   3.707   4.314 -0.6266  0.5751  1.8012
13061TIP3    H260599   4.632   3.635   4.440  2.1364  1.9714  1.6633
13062TIP3   OH260600   6.073   5.111   2.946  0.2071 -0.2743  0.2039
13062TIP3    H160601   6.052   5.023   2.914  1.2905 -0.5766  0.2925
13062TIP3    H260602   6.163   5.103   2.980  0.4481  0.9533 -0.1219
13063TIP3   OH260603   1.147   2.732   1.309 -0.4718  0.0163 -0.2963
13063TIP3    H160604   1.129   2.785   1.387  0.3564 -3.3574  2.2808
13063TIP3    H260605   1.243   2.733   1.302 -0.4615 -1.0207 -0.3082
13064TIP3   OH260606   0.838   4.425  13.260 -0.2781  0.1045 -0.3651
13064TIP3    H160607   0.796   4.399  13.342  0.0037  0.3173 -0.1527
13064TIP3    H260608   0.821   4.352  13.200 -1.7995  0.6170 -0.5819
13065TIP3   OH260609   4.853   6.753  17.207  0.0807  0.1398 -0.3608
13065TIP3    H160610   4.765   6.725  17.235  0.7143 -1.9786 -0.3772
13065TIP3    H260611   4.912   6.703  17.263  1.2939  0.0443 -1.6977
13066TIP3   OH260612   1.050   5.736  13.205  0.2320  0.1748 -0.2811
13066TIP3    H160613   1.010   5.686  13.133  3.1196 -0.0109 -1.8142
13066TIP3    H260614   1.125   5.684  13.232  0.3569  1.2576  1.5546
13067TIP3   OH260615   5.416   2.856  15.656 -0.3161  0.3850 -0.2353
13067TIP3    H160616   5.330   2.895  15.641  0.3693  2.0566  0.0462
13067TIP3    H260617   5.427   2.859  15.751  0.5054  1.1735 -0.3570
13068TIP3   OH260618   3.519   0.498  15.532  0.0722 -0.4536  0.1719
13068TIP3    H160619   3.612   0.475  15.525  0.1782 -0.1226  0.4929
13068TIP3    H260620   3.510   0.537  15.619  0.1348  1.9432 -0.8630
13069TIP3   OH260621   0.943   2.424  10.512  0.2761 -0.1769  0.0628
13069TIP3    H160622   0.855   2.391  10.527  0.2338 -0.2240 -0.2747
13069TIP3    H260623   0.971   2.457  10.597  0.3864 -1.2363  0.4406
13070TIP3   OH260624   2.022   5.246   1.078  0.0239 -0.2720 -0.3258
13070TIP3    H160625   2.023   5.330   1.122 -0.7824 -0.1342 -0.5543
13070TIP3    H260626   2.090   5.253   1.011 -1.1509  0.8097 -1.4352
13071TIP3   OH260627   1.217   0.557  13.565  0.1931  0.4528  0.0832
13071TIP3    H160628   1.146   0.495  13.578 -0.0595 -0.0591 -3.2859
13071TIP3    H260629   1.177   0.628  13.514  1.3135  1.7195  0.9490
13072TIP3   OH260630   3.916   0.649   3.301  0.3108 -0.3930 -0.3028
13072TIP3    H160631   3.927   0.738   3.334 -0.8175  0.7338 -2.8596
13072TIP3    H260632   3.962   0.594   3.364  1.9718  2.1052  0.7206
13073TIP3   OH260633   2.530   4.868  14.112 -0.2667 -0.1785 -0.0641
13073TIP3    H160634   2.499   4.877  14.202 -0.9586 -0.2552 -0.2906
13073TIP3    H260635   2.477   4.931  14.062  0.8697  0.6418 -0.2399
13074TIP3   OH260636   4.969   2.844  12.891 -0.0329 -0.2438 -0.1787
13074TIP3    H160637   5.029   2.772  12.910  0.6137  0.7068  1.4200
13074TIP3    H260638   5.026   2.921  12.886 -1.0045  0.5079  0.3771
13075TIP3   OH260639   5.303   3.793   1.566  0.1554  0.2423 -0.2173
13075TIP3    H160640   5.322   3.711   1.522 -0.8051 -0.3638  0.4684
13075TIP3    H260641   5.340   3.861   1.509  0.6999 -0.6408 -0.9234
13076TIP3   OH260642   1.664   4.587   1.262  0.6835 -0.4589  0.1697
13076TIP3    H160643   1.663   4.508   1.317 -1.1514 -0.2137  0.5327
13076TIP3    H260644   1.743   4.578   1.208  0.3948 -2.6515  0.0682
13077TIP3   OH260645   0.518   0.841  15.011  0.2132 -0.1870  0.2899
13077TIP3    H160646   0.460   0.827  15.086 -1.2488 -0.6021 -0.8831
13077TIP3    H260647   0.584   0.773  15.018 -0.5045 -0.8514  0.6613
13078TIP3   OH260648   4.393   5.305   1.684  0.1297 -0.4511 -0.4959
13078TIP3    H160649   4.305   5.270   1.673 -1.0222  1.6873  1.5748
13078TIP3    H260650   4.404   5.312   1.779  1.7325  1.2601 -0.7832
13079TIP3   OH260651   2.581   0.914   0.288 -0.1649  0.4950 -1.2472
13079TIP3    H160652   2.498   0.878   0.319 -0.1503  0.8314 -0.8143
13079TIP3    H260653   2.587   0.999   0.330  1.3631 -0.3610  0.3408
13080TIP3   OH260654   5.441   0.417  16.437 -0.0040 -0.2345 -0.3750
13080TIP3    H160655   5.438   0.388  16.528  0.5030  0.0980 -0.2476
13080TIP3    H260656   5.435   0.337  16.386 -0.3129 -0.4210 -0.0499
13081TIP3   OH260657   3.149   2.173   3.462 -0.4640  0.5834 -0.1645
13081TIP3    H160658   3.054   2.166   3.453 -0.3041  0.1071 -1.6820
13081TIP3    H260659   3.165   2.266   3.472 -1.1775  0.5643  1.2958
13082TIP3   OH260660   3.055   2.839  14.682  0.2787  0.3817  0.1170
13082TIP3    H160661   2.967   2.805  14.665 -0.5924  1.4923  2.2408
13082TIP3    H260662   3.100   2.831  14.598 -1.1766 -2.1692 -0.4610
13083TIP3   OH260663   5.821   6.439  12.839  0.0367 -0.6001 -0.4022
13083TIP3    H160664   5.871   6.520  12.844 -0.2974 -0.3889 -0.4590
13083TIP3    H260665   5.880   6.376  12.798  0.2504 -0.3486 -0.4775
13084TIP3   OH260666   3.807   3.438  14.567 -0.4427  0.2764 -0.2083
13084TIP3    H160667   3.892   3.479  14.552  0.0383 -0.0820  1.4605
13084TIP3    H260668   3.828   3.352  14.604 -1.5411  0.8072  1.7165
13085TIP3   OH260669   6.625   6.704  10.583 -0.8630  0.0943 -0.6272
13085TIP3    H160670   6.567   6.732  10.653 -0.6157 -1.6886  0.3344
13085TIP3    H260671   6.683   6.640  10.625 -0.2681 -0.4855 -2.2948
13086TIP3   OH260672   6.698   4.553  17.126 -0.2361 -0.1299  0.4898
13086TIP3    H160673   6.768   4.593  17.074 -0.1137  0.3738  1.0357
13086TIP3    H260674   6.715   4.459  17.120 -0.5573 -0.1188 -0.8520
13087TIP3   OH260675   1.738   5.119  17.065  0.4150 -0.0490 -0.1902
13087TIP3    H160676   1.712   5.178  17.136 -0.2250 -1.3635  0.6995
13087TIP3    H260677   1.725   5.170  16.985 -0.4126  0.9088  0.5419
13088TIP3   OH260678   3.454   4.135  16.503  0.2228 -0.0996  0.0458
13088TIP3    H160679   3.370   4.090  16.494 -0.3826  0.8897  0.7282
13088TIP3    H260680   3.498   4.120  16.419 -1.2982  0.7190 -0.9270
13089TIP3   OH260681   0.638   0.489  14.927 -0.4089  0.0461 -0.1581
13089TIP3    H160682   0.636   0.519  15.018  0.1151 -0.2507 -0.0505
13089TIP3    H260683   0.640   0.393  14.933  2.1196  0.0496 -0.4326
13090TIP3   OH260684   2.285   4.626  15.086 -0.3358 -0.7960  0.1417
13090TIP3    H160685   2.329   4.589  15.009 -2.0826 -0.9768 -0.8154
13090TIP3    H260686   2.348   4.617  15.157  1.2284 -0.8434 -1.2199
13091TIP3   OH260687   5.405   6.753   0.748  0.3611 -0.3625  0.1306
13091TIP3    H160688   5.359   6.795   0.675  1.0772  1.8698  0.9215
13091TIP3    H260689   5.373   6.663   0.748 -1.6326  0.3179 -1.2810
13092TIP3   OH260690   4.766   5.623  11.496  0.1121  0.0943  0.6998
13092TIP3    H160691   4.712   5.563  11.444 -1.9025 -0.9960  3.8982
13092TIP3    H260692   4.729   5.710  11.479  0.4126 -0.0622 -0.7879
13093TIP3   OH260693   0.857   1.501  15.471 -0.1182  0.4778  0.1886
13093TIP3    H160694   0.933   1.443  15.465 -0.1214  0.6429 -1.7428
13093TIP3    H260695   0.794   1.453  15.524  0.7072 -0.3622  0.4199
13094TIP3   OH260696   0.008   1.204   2.473  0.2339 -0.0717 -0.3052
13094TIP3    H160697   0.080   1.267   2.466  0.5928 -0.5194 -0.6953
13094TIP3    H260698  -0.005   1.194   2.568 -1.1263  2.0347 -0.2214
13095TIP3   OH260699   5.377   2.600   4.576  0.1375  0.2023 -0.9808
13095TIP3    H160700   5.322   2.536   4.619 -0.9929  0.4228 -2.0640
13095TIP3    H260701   5.380   2.674   4.636 -1.0475  0.3253 -1.0562
13096TIP3   OH260702   6.110   4.464  16.723 -0.3045  0.1927 -0.0558
13096TIP3    H160703   6.124   4.485  16.815 -3.2525 -1.2566  0.7846
13096TIP3    H260704   6.051   4.532  16.691  1.4160  1.2067 -1.1548
13097TIP3   OH260705   1.176   6.458  12.734  0.4004 -0.1481  0.0261
13097TIP3    H160706   1.231   6.380  12.742  0.3546 -0.1856 -0.0332
13097TIP3    H260707   1.145   6.474  12.823  0.0244 -0.4750 -0.0461
13098TIP3   OH260708   6.205   1.738  17.085  0.3959  0.0491 -0.0987
13098TIP3    H160709   6.259   1.663  17.109  0.8055 -0.3041 -2.0422
13098TIP3    H260710   6.256   1.785  17.019 -1.0360  0.5043 -0.9147
13099TIP3   OH260711   5.075   4.401  16.260  0.3974  0.0725  0.2756
13099TIP3    H160712   5.016   4.382  16.334 -1.1308  1.0428 -0.6598
13099TIP3    H260713   5.135   4.327  16.258 -2.1665 -2.1129 -0.0647
13100TIP3   OH260714   2.781   5.401   6.008  0.1168  0.0718  0.0132
13100TIP3    H160715   2.698   5.390   6.055 -0.5626 -0.8130 -1.3674
13100TIP3    H260716   2.819   5.480   6.046 -1.9102  1.1607 -0.1393
13101TIP3   OH260717   5.869   0.218  13.054  0.5240  0.1613  0.1527
13101TIP3    H160718   5.792   0.252  13.100 -1.1926 -0.2310 -2.3103
13101TIP3    H260719   5.873   0.126  13.079  0.4373  0.2843  0.6187
13102TIP3   OH260720   2.213   6.164   1.166  0.1682 -0.2661  0.3991
13102TIP3    H160721   2.195   6.085   1.216 -0.0275 -0.9911 -0.7938
13102TIP3    H260722   2.293   6.199   1.205 -0.8283  0.0307  2.2032
13103TIP3   OH260723   4.183   4.159   0.150 -0.4050  0.6546 -0.6694
13103TIP3    H160724   4.252   4.218   0.181 -0.0637 -0.3010  0.4209
13103TIP3    H260725   4.226   4.105   0.084 -0.1949  0.3276 -0.2733
13104TIP3   OH260726   6.704   0.758  13.167  0.2980  0.3264  0.1527
13104TIP3    H160727   6.616   0.775  13.201  0.5405 -0.3839  1.1700
13104TIP3    H260728   6.703   0.666  13.143  0.6965  0.3754 -0.0619
13105TIP3   OH260729   5.930   1.122   2.511  0.0792 -0.2353 -0.2212
13105TIP3    H160730   5.950   1.123   2.604  1.5981  1.5578 -0.5482
13105TIP3    H260731   5.867   1.193   2.499 -1.3601 -1.4926 -0.3271
13106TIP3   OH260732   6.630   6.490  14.311  0.1138  0.0081 -0.0547
13106TIP3    H160733   6.596   6.569  14.270  0.6021 -0.2425 -0.9689
13106TIP3    H260734   6.698   6.459  14.251 -0.0316 -1.0705  0.3161
13107TIP3   OH260735   0.210   2.312   3.094 -0.1995  0.1579 -0.7421
13107TIP3    H160736   0.171   2.331   3.009 -0.8598  2.1265 -0.0275
13107TIP3    H260737   0.304   2.312   3.079 -0.2769  1.5971 -1.2683
13108TIP3   OH260738   3.167   0.502  12.606  0.1149 -0.2756  0.2636
13108TIP3    H160739   3.178   0.408  12.615  0.5671 -0.4177 -1.5500
13108TIP3    H260740   3.075   0.513  12.582 -0.0185 -0.2300  0.7940
13109TIP3   OH260741   2.450   5.095   1.110 -0.0165  0.2918  0.5673
13109TIP3    H160742   2.531   5.045   1.099  0.1803  1.4494 -4.1329
13109TIP3    H260743   2.380   5.033   1.089 -0.0417  0.7047 -0.5747
13110TIP3   OH260744   2.522   3.878  15.222 -0.2712  0.2525 -0.2075
13110TIP3    H160745   2.555   3.852  15.136 -1.6457  0.6463 -0.8803
13110TIP3    H260746   2.482   3.964  15.207  1.9861  1.6357  1.4426
13111TIP3   OH260747   2.194   3.819   2.013 -0.0265  0.0891 -0.1751
13111TIP3    H160748   2.170   3.870   2.090 -1.8254 -0.5145 -0.3027
13111TIP3    H260749   2.289   3.812   2.017  0.0548  1.6272  0.9892
13112TIP3   OH260750   6.365   0.859   4.492  0.2552  0.1817  0.2599
13112TIP3    H160751   6.380   0.831   4.583 -2.1267  0.6179  0.8150
13112TIP3    H260752   6.272   0.883   4.489  0.6464  1.5732 -1.9259
13113TIP3   OH260753   0.164   5.436  10.656  0.4455 -0.0589  0.0857
13113TIP3    H160754   0.257   5.434  10.637  0.1843 -0.1838 -1.1896
13113TIP3    H260755   0.153   5.514  10.711  1.4975 -0.8011  1.3685
13114TIP3   OH260756   2.689   5.016  11.230  0.2010  0.5045  0.8158
13114TIP3    H160757   2.645   5.090  11.186  1.1132  0.6568  0.1420
13114TIP3    H260758   2.623   4.948  11.234  0.6358 -0.2029 -2.5688
13115TIP3   OH260759   6.703   3.325   2.616 -0.4224  0.4132  0.1320
13115TIP3    H160760   6.640   3.380   2.662 -0.8161  1.0726 -1.1796
13115TIP3    H260761   6.649   3.265   2.564 -0.0044  1.9944 -2.2012
13116TIP3   OH260762   2.554   6.602   1.115 -0.3773 -0.3211 -0.0792
13116TIP3    H160763   2.573   6.657   1.039  1.5023 -1.7377 -0.6681
13116TIP3    H260764   2.506   6.527   1.079  0.1686 -0.7990  0.1859
13117TIP3   OH260765   3.631   2.562   5.304 -0.0325 -0.8052 -0.1066
13117TIP3    H160766   3.616   2.636   5.362 -2.9276 -2.6917  1.7015
13117TIP3    H260767   3.552   2.557   5.250  0.1145 -2.5407 -0.1923
13118TIP3   OH260768   3.155   2.825  16.042  0.3083  0.1452  0.0133
13118TIP3    H160769   3.197   2.740  16.031 -1.0953 -0.6894  0.8815
13118TIP3    H260770   3.129   2.827  16.134 -2.6650  0.0604 -0.7611
13119TIP3   OH260771   3.170   5.448  11.829 -0.0744 -0.3075 -0.1496
13119TIP3    H160772   3.080   5.438  11.796 -0.0034  0.8312 -0.6967
13119TIP3    H260773   3.197   5.359  11.850 -0.2908 -1.0175 -2.7665
13120TIP3   OH260774   2.530   5.153  12.671 -0.4335 -0.0892 -0.4378
13120TIP3    H160775   2.472   5.112  12.608 -0.6188 -0.7084  0.1223
13120TIP3    H260776   2.479   5.223  12.710 -0.4022  0.1311 -0.7933
13121TIP3   OH260777   5.835   0.505   3.074 -0.2079  0.3312 -0.4030
13121TIP3    H160778   5.858   0.412   3.082  0.6698  0.6933  1.7864
13121TIP3    H260779   5.797   0.527   3.159 -1.6348  1.6819 -1.3507
13122TIP3   OH260780   5.179   0.233  12.164  0.4051  0.2193 -0.0446
13122TIP3    H160781   5.252   0.181  12.196  0.7715  0.3393 -0.6821
13122TIP3    H260782   5.142   0.273  12.242  0.3951 -0.6410  0.3929
13123TIP3   OH260783   2.856   1.365   6.300 -0.3814  0.3656 -0.4598
13123TIP3    H160784   2.794   1.439   6.294 -1.5724 -0.5555  0.3441
13123TIP3    H260785   2.940   1.406   6.320 -0.5376  1.7169 -2.3986
13124TIP3   OH260786   4.077   4.524   5.282 -0.5816  0.1454 -0.5051
13124TIP3    H160787   4.107   4.453   5.339 -0.9923 -1.4186 -2.1652
13124TIP3    H260788   4.034   4.479   5.209 -0.6858  2.1059 -1.6880
13125TIP3   OH260789   0.697   5.142  15.884  0.1239 -0.3334 -0.0299
13125TIP3    H160790   0.670   5.234  15.873 -1.9672 -1.0027 -0.7828
13125TIP3    H260791   0.705   5.131  15.979 -0.7953  0.2966  0.1269
13126TIP3   OH260792   3.905   6.347  15.988  0.6973  0.1776 -0.1885
13126TIP3    H160793   3.812   6.328  15.999  0.8790 -0.6292  0.0094
13126TIP3    H260794   3.907   6.432  15.945 -0.1724 -0.5960 -1.8142
13127TIP3   OH260795   6.295   3.192  15.020  0.2607  0.2744  0.6068
13127TIP3    H160796   6.351   3.115  15.017  1.9430  1.4894 -1.6707
13127TIP3    H260797   6.247   3.190  14.937  0.7189  1.9294  0.2776
13128TIP3   OH260798   2.619   5.674   5.879  0.1368  0.4136 -0.2340
13128TIP3    H160799   2.632   5.749   5.937 -1.7090  1.0924 -0.6695
13128TIP3    H260800   2.601   5.713   5.794 -3.8848 -0.4420  0.1664
13129TIP3   OH260801   4.690   0.137   3.947  0.1152  0.4659  0.2679
13129TIP3    H160802   4.614   0.187   3.976  0.2383 -0.1866  1.8022
13129TIP3    H260803   4.718   0.090   4.025  1.6139  0.0795 -0.4848
13130TIP3   OH260804   3.153   4.672  17.005  0.2759  0.4830 -0.8598
13130TIP3    H160805   3.197   4.609  16.948  1.6091  0.4784  0.1179
13130TIP3    H260806   3.079   4.703  16.955  1.3489  0.3922 -2.5445
13131TIP3   OH260807   0.991   6.094   1.846  0.0961 -0.4394 -0.6369
13131TIP3    H160808   1.031   6.010   1.824 -0.2598 -0.9149  0.5134
13131TIP3    H260809   1.055   6.137   1.903 -0.3989 -0.5881  0.0321
13132TIP3   OH260810   6.303   6.331   3.138  0.0988 -0.9870  0.0638
13132TIP3    H160811   6.374   6.280   3.178  0.0745 -1.9967 -1.1416
13132TIP3    H260812   6.224   6.292   3.174  0.1272 -0.6795  0.4560
13133TIP3   OH260813   6.124   1.897   4.162 -0.1819  0.1443 -0.1783
13133TIP3    H160814   6.124   1.966   4.096 -2.1193  0.7092  0.3880
13133TIP3    H260815   6.195   1.921   4.222  1.2509 -0.0986 -1.7287
13134TIP3   OH260816   3.950   1.804  13.438 -0.0065 -0.0434 -0.2926
13134TIP3    H160817   4.011   1.739  13.402  0.6360  0.0580  0.5892
13134TIP3    H260818   3.986   1.888  13.412  1.0872  0.0744  1.5118
13135TIP3   OH260819   6.260   4.676  15.866 -0.1659  0.4749  0.4164
13135TIP3    H160820   6.260   4.613  15.794  4.8277 -2.8517  3.0646
13135TIP3    H260821   6.325   4.741  15.841 -0.7748  1.1116  0.4828
13136TIP3   OH260822   5.872   2.514  16.715  0.3174  0.6091  0.1472
13136TIP3    H160823   5.818   2.438  16.735  0.8011  0.6716  1.6975
13136TIP3    H260824   5.819   2.565  16.654 -1.0030  0.2291  0.9639
13137TIP3   OH260825   5.067   4.214   5.704 -0.2810 -0.0595 -0.6606
13137TIP3    H160826   5.138   4.156   5.676  0.2142 -0.4615  1.3395
13137TIP3    H260827   5.107   4.270   5.770 -2.0612 -1.0715  1.3499
13138TIP3   OH260828   6.183   0.297   2.683 -0.1603  0.5904 -0.2168
13138TIP3    H160829   6.151   0.378   2.721  0.9239  0.3593  1.2441
13138TIP3    H260830   6.256   0.324   2.627  1.3239  0.4944  1.6117
13139TIP3   OH260831   1.114   0.277  13.271  0.3920 -0.1380  0.5217
13139TIP3    H160832   1.089   0.251  13.360 -0.4560  0.5928  0.5064
13139TIP3    H260833   1.201   0.317  13.281  0.8350 -1.1597  0.8314
13140TIP3   OH260834   5.140   3.126  16.493 -0.5937  0.4447  0.3760
13140TIP3    H160835   5.180   3.053  16.445 -0.3214  0.6046  0.3596
13140TIP3    H260836   5.052   3.095  16.514 -0.7124  0.3688 -0.2246
13141TIP3   OH260837   6.390   3.579   1.736  0.0634  0.4452  0.0844
13141TIP3    H160838   6.301   3.560   1.766  0.9286 -0.7942  2.0124
13141TIP3    H260839   6.417   3.500   1.688  0.1100  0.8284 -0.5224
13142TIP3   OH260840   2.132   0.878  16.581  0.0488  0.0965 -0.1767
13142TIP3    H160841   2.224   0.869  16.559  0.4964  0.8638  1.2802
13142TIP3    H260842   2.131   0.941  16.654 -1.4483 -1.2597  1.0102
13143TIP3   OH260843   1.191   4.463  15.296 -0.1273 -0.0046 -0.1988
13143TIP3    H160844   1.119   4.512  15.256  0.6420 -0.0266 -1.6524
13143TIP3    H260845   1.241   4.429  15.222  0.9830 -0.5817  0.7940
13144TIP3   OH260846   3.812   0.916   1.265 -0.2112 -0.3709  0.2300
13144TIP3    H160847   3.770   0.847   1.317 -1.7503  0.2695 -0.1423
13144TIP3    H260848   3.905   0.903   1.280 -0.5312 -1.7778  1.1390
13145TIP3   OH260849   0.423   6.441   2.604  0.3279 -0.2008  0.0825
13145TIP3    H160850   0.341   6.426   2.651  0.1522 -1.4017 -0.5817
13145TIP3    H260851   0.453   6.527   2.633 -0.5920 -0.2499  1.1782
13146TIP3   OH260852   6.586   6.583   3.417 -0.1420  0.0675  0.1009
13146TIP3    H160853   6.601   6.670   3.381 -1.5981  0.1638 -0.2954
13146TIP3    H260854   6.602   6.524   3.344  0.8088  0.0044  0.3593
13147TIP3   OH260855   4.476   0.495  11.011  0.0774 -0.0501 -0.1695
13147TIP3    H160856   4.491   0.529  10.923 -3.1235 -0.8393 -1.0886
13147TIP3    H260857   4.534   0.419  11.017  0.8129  0.3929 -1.3199
13148TIP3   OH260858   2.447   4.580  16.747  0.8870  0.3255 -0.1767
13148TIP3    H160859   2.517   4.559  16.685  1.3071  2.2907 -0.4195
13148TIP3    H260860   2.445   4.507  16.807  2.6586 -0.1124 -0.6163
13149TIP3   OH260861   2.327   4.679   1.400  0.6819  1.1875 -0.1107
13149TIP3    H160862   2.293   4.694   1.487 -0.7991  1.8931 -0.8019
13149TIP3    H260863   2.297   4.590   1.378  2.3073  0.4225  0.6576
13150TIP3   OH260864   1.245   5.186   1.972  0.2774 -0.2931 -0.0235
13150TIP3    H160865   1.164   5.168   2.021  0.0090  0.0829 -0.3322
13150TIP3    H260866   1.314   5.182   2.039  0.1557 -1.8645  0.0205
13151TIP3   OH260867   4.005   1.310   4.514 -0.0512 -0.1628  0.6907
13151TIP3    H160868   4.078   1.311   4.452 -0.6169  0.9764  0.0300
13151TIP3    H260869   4.046   1.321   4.599  0.5669  0.3039  0.3381
13152TIP3   OH260870   4.814   0.706   4.150  0.1429  0.5863  0.7277
13152TIP3    H160871   4.802   0.740   4.238 -1.2720  0.5458  0.5598
13152TIP3    H260872   4.811   0.611   4.160 -2.1101  0.6042  0.3670
13153TIP3   OH260873   2.244   5.579   5.787  0.3522 -0.0681 -0.0679
13153TIP3    H160874   2.326   5.530   5.800 -0.6620 -1.7865 -0.0174
13153TIP3    H260875   2.227   5.619   5.873  1.0015  0.0861 -0.0070
13154TIP3   OH260876   0.408   4.898   0.439  0.2381  0.4227  0.2133
13154TIP3    H160877   0.389   4.966   0.503  0.7381 -1.0245  1.9280
13154TIP3    H260878   0.354   4.920   0.364  1.7944  3.7822 -0.0198
13155TIP3   OH260879   2.314   2.626  12.100 -0.2925 -0.2108 -0.2315
13155TIP3    H160880   2.313   2.560  12.030 -2.5823  1.3686 -1.7461
13155TIP3    H260881   2.270   2.583  12.174  0.0487 -1.0733 -0.5163
13156TIP3   OH260882   2.523   2.139   3.745  0.0208 -0.1686 -0.7905
13156TIP3    H160883   2.605   2.137   3.794 -0.3777 -2.4413 -0.1205
13156TIP3    H260884   2.471   2.067   3.783 -3.4290  2.9747  0.7544
13157TIP3   OH260885   1.180   2.763   0.559 -0.1923 -0.2256  0.0298
13157TIP3    H160886   1.213   2.817   0.488  0.1549 -0.4150  0.0445
13157TIP3    H260887   1.156   2.826   0.627  0.5052 -0.1020  0.1700
13158TIP3   OH260888   0.941   5.405   5.877 -0.4680  0.2638  0.5375
13158TIP3    H160889   0.981   5.470   5.819 -2.1005  1.7291  0.9812
13158TIP3    H260890   0.993   5.409   5.957 -0.0316  0.3899  0.2514
13159TIP3   OH260891   2.772   4.162  12.256 -0.0464 -0.0131  0.1937
13159TIP3    H160892   2.774   4.067  12.262  0.0776  0.0511  1.2762
13159TIP3    H260893   2.725   4.190  12.335  0.4586  0.8465  0.1992
13160TIP3   OH260894   5.144   4.976   3.096  0.2906 -0.0348 -0.1950
13160TIP3    H160895   5.190   5.036   3.155  0.5344 -1.0796  0.6812
13160TIP3    H260896   5.060   5.018   3.080  0.8031  0.9657 -0.2757
13161TIP3   OH260897   0.088   1.923  13.900 -0.0803  0.0264 -0.9825
13161TIP3    H160898   0.131   2.003  13.871 -0.2989 -0.4115 -2.5515
13161TIP3    H260899   0.077   1.935  13.995  0.5926  1.4992 -1.0739
13162TIP3   OH260900   0.520   3.532   0.325 -0.1401 -0.2523 -0.1360
13162TIP3    H160901   0.535   3.445   0.288 -0.2700 -0.2677 -0.1512
13162TIP3    H260902   0.608   3.563   0.348 -0.1079 -0.4412 -0.0067
13163TIP3   OH260903   6.772   1.252   5.702  1.1243 -0.1973 -0.0361
13163TIP3    H160904   6.688   1.233   5.661 -0.1829  1.1003  1.9262
13163TIP3    H260905   6.774   1.348   5.709  3.2021 -0.1517 -0.9194
13164TIP3   OH260906   2.058   0.852   3.762 -0.1036 -0.0388  0.0885
13164TIP3    H160907   2.048   0.780   3.823  2.2288  0.1839  0.7631
13164TIP3    H260908   2.046   0.812   3.676 -0.5824 -0.8884  0.5442
13165TIP3   OH260909   3.389   5.491   4.602  0.1924 -0.5362  0.1778
13165TIP3    H160910   3.475   5.467   4.567 -0.1603 -2.0611  0.3368
13165TIP3    H260911   3.402   5.579   4.636  1.6628 -0.6849  0.0648
13166TIP3   OH260912   3.786   5.279   5.656  0.3223  0.6197 -0.4220
13166TIP3    H160913   3.744   5.259   5.739  2.1219 -0.1991  0.3139
13166TIP3    H260914   3.716   5.271   5.591 -0.4832 -1.5830  0.6659
13167TIP3   OH260915   3.565   0.456   2.242  0.2122  0.5404  0.1713
13167TIP3    H160916   3.639   0.477   2.185  0.3558 -1.0221 -0.2427
13167TIP3    H260917   3.527   0.377   2.203  1.6551 -1.8650  3.4613
13168TIP3   OH260918   0.011   5.817   0.557 -0.3140 -0.1694  0.5267
13168TIP3    H160919  -0.072   5.864   0.556 -0.6350 -0.7222 -1.8263
13168TIP3    H260920  -0.012   5.726   0.535  0.8377 -0.4396  0.3788
13169TIP3   OH260921   3.209   5.927  16.498 -0.5953 -0.4035 -0.0696
13169TIP3    H160922   3.159   6.000  16.535  0.6994  1.0149 -1.0931
13169TIP3    H260923   3.151   5.888  16.433 -1.3176 -0.3643  0.5403
13170TIP3   OH260924   3.546   6.656   4.764 -0.5252 -0.3879 -0.0981
13170TIP3    H160925   3.566   6.643   4.857 -0.3563  0.3665 -0.0273
13170TIP3    H260926   3.459   6.618   4.753 -0.6886 -0.1784  0.4419
13171TIP3   OH260927   1.472   3.352  13.767 -0.2762  0.0254 -0.1328
13171TIP3    H160928   1.428   3.284  13.717 -3.4275  2.8708 -1.4386
13171TIP3    H260929   1.440   3.341  13.857 -2.0739  0.7462 -0.6630
13172TIP3   OH260930   1.839   0.178   3.478  0.0442 -0.3817  0.0294
13172TIP3    H160931   1.768   0.136   3.527  0.6746 -0.0760  1.2277
13172TIP3    H260932   1.810   0.268   3.466 -0.2467 -0.5368 -0.4246
13173TIP3   OH260933   5.061   1.987   5.668  0.0421  0.0105 -0.7497
13173TIP3    H160934   5.099   2.011   5.583  0.8608 -0.3493 -0.4902
13173TIP3    H260935   5.131   1.938   5.712 -0.2898  0.4266  0.2396
13174TIP3   OH260936   5.925   2.813   2.926  0.2807  0.2574 -0.0244
13174TIP3    H160937   5.942   2.905   2.906 -0.5191  0.4584  0.1847
13174TIP3    H260938   6.009   2.779   2.956  0.6748  0.8181 -0.4805
13175TIP3   OH260939   0.297   0.068   5.861  0.1842  0.3394 -0.6969
13175TIP3    H160940   0.341   0.142   5.904  2.1441 -2.1178  1.6552
13175TIP3    H260941   0.237   0.034   5.927  1.1171 -1.6956 -0.8620
13176TIP3   OH260942   2.616   3.988   0.530 -0.0227 -0.1130 -0.3899
13176TIP3    H160943   2.601   4.076   0.565 -1.6005 -0.1803 -0.8463
13176TIP3    H260944   2.663   4.003   0.448 -0.5670  0.3341 -0.6252
13177TIP3   OH260945   1.592   4.108  13.490 -0.3697  0.1056 -0.1629
13177TIP3    H160946   1.642   4.086  13.569 -0.9744 -0.1159  0.1643
13177TIP3    H260947   1.657   4.143  13.429 -0.0722  1.4692  0.8885
13178TIP3   OH260948   0.317   1.485  15.876 -0.0090 -0.2726 -0.3820
13178TIP3    H160949   0.239   1.533  15.904 -1.5787 -2.3796 -0.9946
13178TIP3    H260950   0.283   1.415  15.820  2.3780 -0.9405 -1.0445
13179TIP3   OH260951   4.033   2.967   4.194 -0.0521  0.6817 -0.1682
13179TIP3    H160952   4.097   3.013   4.248  0.4823  0.1580 -0.3617
13179TIP3    H260953   4.064   2.877   4.190 -1.1939  0.2578  0.3517
13180TIP3   OH260954   6.465   6.246  10.241  0.4354 -0.2990  0.4496
13180TIP3    H160955   6.468   6.302  10.319  0.8267  0.4513 -0.0920
13180TIP3    H260956   6.412   6.296  10.178 -0.6161 -1.2953  0.5408
13181TIP3   OH260957   5.228   3.246  13.433  0.7121  0.5405  0.0535
13181TIP3    H160958   5.237   3.182  13.363 -0.3926  1.7492 -1.2425
13181TIP3    H260959   5.314   3.248  13.476  0.6471 -2.0107  0.3380
13182TIP3   OH260960   2.871   2.636   4.267  0.2474  0.0714  0.6966
13182TIP3    H160961   2.833   2.562   4.315  0.9675  0.0297  1.2078
13182TIP3    H260962   2.835   2.627   4.178 -0.1844 -0.5115  0.9229
13183TIP3   OH260963   5.832   6.545   0.518 -0.3730  0.4169 -0.0962
13183TIP3    H160964   5.757   6.604   0.511 -0.6293  0.2211  0.8801
13183TIP3    H260965   5.892   6.591   0.577 -0.5386 -0.2551  0.6023
13184TIP3   OH260966   3.904   0.362  15.202 -0.2009 -0.1562 -0.0692
13184TIP3    H160967   3.991   0.337  15.233 -0.2079 -2.4539 -1.7711
13184TIP3    H260968   3.920   0.405  15.118 -0.7419 -1.4308 -0.8422
13185TIP3   OH260969   3.814   4.088   4.194  0.4889  0.0236 -0.5819
13185TIP3    H160970   3.854   4.081   4.281 -0.4832 -1.7370 -0.2524
13185TIP3    H260971   3.860   4.024   4.141 -0.4181 -0.4813 -0.7709
13186TIP3   OH260972   0.431   5.355  16.161  0.2327 -0.0087 -0.3079
13186TIP3    H160973   0.484   5.301  16.219 -0.4293 -0.4559 -0.1024
13186TIP3    H260974   0.342   5.346  16.195 -0.2220 -0.5972 -1.6253
13187TIP3   OH260975   5.272   3.821  10.442 -0.4193  0.0777  0.3518
13187TIP3    H160976   5.184   3.858  10.443 -0.6021 -0.3127 -1.0798
13187TIP3    H260977   5.323   3.883  10.391  0.5039  1.0768  2.4069
13188TIP3   OH260978   1.574   3.607   5.700 -0.4438 -0.0020 -0.5622
13188TIP3    H160979   1.560   3.694   5.738  0.1156 -0.4923  0.8139
13188TIP3    H260980   1.592   3.551   5.775  1.1539 -0.9224 -1.5948
13189TIP3   OH260981   0.392   0.395  15.097  0.3245 -0.1766  0.4426
13189TIP3    H160982   0.323   0.329  15.106  1.0443 -0.8432  1.0896
13189TIP3    H260983   0.348   0.470  15.057 -1.1589  0.0151  2.3457
13190TIP3   OH260984   0.831   3.603   4.030 -0.0269  0.6310  0.5329
13190TIP3    H160985   0.787   3.536   3.978  1.5004  0.8956 -1.1641
13190TIP3    H260986   0.773   3.680   4.025 -0.9866 -0.0432  1.1432
13191TIP3   OH260987   4.004   5.855   6.380 -0.4355 -0.1663 -0.1518
13191TIP3    H160988   4.053   5.925   6.335 -0.6692 -1.4748 -2.5216
13191TIP3    H260989   4.023   5.776   6.330 -2.8752 -1.2023  0.4739
13192TIP3   OH260990   1.245   2.460  15.935  0.2234 -0.0246  0.2175
13192TIP3    H160991   1.171   2.413  15.898  1.0868 -0.6891 -0.7209
13192TIP3    H260992   1.294   2.394  15.984  0.7605  0.1589 -0.0563
13193TIP3   OH260993   6.656   1.724   6.576 -0.0830  0.4856 -0.2456
13193TIP3    H160994   6.665   1.652   6.514  1.0913  0.7718 -0.4276
13193TIP3    H260995   6.679   1.686   6.661  1.7542  0.9201 -0.5248
13194TIP3   OH260996   0.810   5.206   4.576  0.0144 -0.4240 -0.1259
13194TIP3    H160997   0.874   5.141   4.606  0.2249 -0.1369  0.0426
13194TIP3    H260998   0.862   5.277   4.539 -0.2552 -1.1562 -1.9769
13195TIP3   OH260999   3.595   4.577  16.615  0.2725  0.0037  0.1379
13195TIP3    H161000   3.588   4.558  16.709  2.0482 -3.0726 -0.2905
13195TIP3    H261001   3.525   4.527  16.575 -1.3268  2.3732 -0.0906
13196TIP3   OH261002   5.802   4.483   1.467 -0.3214 -0.1883 -0.6469
13196TIP3    H161003   5.780   4.557   1.524  1.2156 -0.0518 -0.2086
13196TIP3    H261004   5.723   4.469   1.415 -0.4584  2.0935 -1.1083
13197TIP3   OH261005   0.735   1.545  13.515 -0.1090  0.2100  0.7913
13197TIP3    H161006   0.692   1.476  13.565  0.0411 -0.5970 -0.1692
13197TIP3    H261007   0.790   1.590  13.578 -1.2175  0.2952  1.7122
13198TIP3   OH261008   5.882   2.423   0.587  0.7286 -0.4750 -0.4906
13198TIP3    H161009   5.802   2.476   0.583  0.5687 -0.6671  0.0950
13198TIP3    H261010   5.866   2.350   0.527 -0.2419 -1.4710  0.9540
13199TIP3   OH261011   6.152   6.155  15.724  0.2059 -0.5193  0.1191
13199TIP3    H161012   6.140   6.109  15.808 -0.5964 -0.7864 -0.1290
13199TIP3    H261013   6.182   6.087  15.664  0.6472 -0.3579  0.1610
13200TIP3   OH261014   1.122   5.534   6.238 -0.0150  0.0182 -0.5000
13200TIP3    H161015   1.214   5.509   6.249 -0.2008  0.1381  1.6186
13200TIP3    H261016   1.073   5.455   6.263 -0.5136  0.6833  0.6393
13201TIP3   OH261017   6.129   0.293  15.519 -0.1623 -0.1463 -0.1485
13201TIP3    H161018   6.217   0.292  15.557  0.0495 -1.2886 -0.6367
13201TIP3    H261019   6.141   0.330  15.432 -0.2598  0.2486  0.0058
13202TIP3   OH261020   0.541   4.924  15.860  0.4409  0.2783 -0.1195
13202TIP3    H161021   0.565   5.016  15.853  1.3561  0.1362  1.0768
13202TIP3    H261022   0.495   4.905  15.778  0.9949  1.5756 -0.7402
13203TIP3   OH261023   2.382   5.468  12.230 -0.6071  0.0820 -0.4992
13203TIP3    H161024   2.383   5.484  12.325 -1.0745 -0.1595 -0.4525
13203TIP3    H261025   2.305   5.515  12.199  0.1475  1.0356 -0.9152
13204TIP3   OH261026   6.480   6.558   4.380  0.7263  0.1860  0.0969
13204TIP3    H161027   6.512   6.648   4.385  3.0154 -0.6115  0.5432
13204TIP3    H261028   6.431   6.546   4.461  0.0772  1.1243 -0.1368
13205TIP3   OH261029   2.598   1.783  11.727  0.0400 -0.0984 -0.1600
13205TIP3    H161030   2.504   1.802  11.723  0.2366  0.5845 -2.4530
13205TIP3    H261031   2.635   1.854  11.780 -1.0127 -1.6716  2.7852
13206TIP3   OH261032   4.991   0.523   0.127 -0.0053 -0.2141 -0.7223
13206TIP3    H161033   4.896   0.530   0.117 -0.0459 -0.5519 -0.5782
13206TIP3    H261034   5.024   0.610   0.106 -0.3174 -0.2003 -1.1579
13207TIP3   OH261035   1.672   4.524   5.550  0.0078  0.2037 -0.4754
13207TIP3    H161036   1.619   4.512   5.471  2.0812 -0.0759 -1.8917
13207TIP3    H261037   1.738   4.454   5.545  1.0761  1.0991  0.7131
13208TIP3   OH261038   0.574   1.767  14.604 -0.2250 -0.5706 -0.8622
13208TIP3    H161039   0.650   1.721  14.569  1.1885  1.1097 -0.0750
13208TIP3    H261040   0.609   1.816  14.679 -2.5113 -1.5037  0.8598
13209TIP3   OH261041   4.019   4.086  11.774 -0.4296 -0.2121 -0.0055
13209TIP3    H161042   3.963   4.015  11.742  0.8048 -0.6892 -1.1875
13209TIP3    H261043   3.982   4.165  11.735 -1.8093 -0.1845  1.3167
13210TIP3   OH261044   0.514   2.921  12.042 -0.5417  0.8296 -0.0560
13210TIP3    H161045   0.560   2.838  12.046 -0.1520  1.0360 -0.2925
13210TIP3    H261046   0.581   2.985  12.017 -1.0347  1.0693 -0.7689
13211TIP3   OH261047   6.202   1.001  15.024 -0.3154  0.3858  0.0104
13211TIP3    H161048   6.274   0.988  15.085  0.3012  0.0883 -0.7822
13211TIP3    H261049   6.213   1.091  14.992  0.3045 -0.0170 -0.9000
13212TIP3   OH261050   5.329   6.323   0.892 -0.1820  0.2477  0.4459
13212TIP3    H161051   5.384   6.378   0.947 -0.4490  0.2605  0.7021
13212TIP3    H261052   5.342   6.356   0.803 -0.7650  1.0763  0.6704
13213TIP3   OH261053   5.499   0.127  16.341  0.1675  0.4050 -0.3452
13213TIP3    H161054   5.585   0.120  16.382  0.1021 -0.1433 -0.2960
13213TIP3    H261055   5.442   0.070  16.394 -0.4137  1.4147  0.1278
13214TIP3   OH261056   0.427   2.737   4.167  0.3639 -0.8188 -0.2334
13214TIP3    H161057   0.452   2.693   4.086  0.6640  1.1505 -1.2100
13214TIP3    H261058   0.468   2.823   4.163 -3.8505  1.3089 -0.3800
13215TIP3   OH261059   4.232   1.506  14.631  0.2682 -0.1215 -0.3332
13215TIP3    H161060   4.283   1.583  14.655  1.9505 -1.2585 -0.1775
13215TIP3    H261061   4.191   1.478  14.713  1.6387 -0.8188  0.1255
13216TIP3   OH261062   6.395   0.309  13.613 -0.6215  0.2750  0.3958
13216TIP3    H161063   6.348   0.321  13.531 -2.4556 -0.4309  1.3290
13216TIP3    H261064   6.392   0.395  13.656 -0.7575  0.3154  0.3019
13217TIP3   OH261065   6.102   2.492   1.889  0.6037  0.5835 -0.0824
13217TIP3    H161066   6.124   2.401   1.907  1.2603  1.0556  1.6359
13217TIP3    H261067   6.089   2.531   1.976 -0.7483  1.8630 -0.8302
13218TIP3   OH261068   5.386   2.350   4.117  0.0581  0.3946 -0.5200
13218TIP3    H161069   5.478   2.349   4.091  0.3024  0.4839  0.3145
13218TIP3    H261070   5.382   2.416   4.187 -0.6066  0.2698 -0.4391
13219TIP3   OH261071   5.956   6.293  13.825 -0.1572 -0.0085 -0.3080
13219TIP3    H161072   5.936   6.385  13.807 -0.3998 -0.1208 -0.6239
13219TIP3    H261073   6.041   6.294  13.868  0.0993  0.3254 -0.8188
13220TIP3   OH261074   6.575   5.140  12.501 -0.1159  0.0935  0.2015
13220TIP3    H161075   6.627   5.195  12.559 -0.3848 -1.1696  1.6781
13220TIP3    H261076   6.617   5.054  12.505 -1.3243 -0.5129  0.1114
13221TIP3   OH261077   1.805   4.244   1.615 -0.0737  0.0652  0.9039
13221TIP3    H161078   1.769   4.155   1.610 -1.1092  0.5529 -0.6964
13221TIP3    H261079   1.733   4.301   1.590  0.9874  1.2637  0.4935
13222TIP3   OH261080   4.418   5.466  14.907 -0.3675 -0.0630 -0.4884
13222TIP3    H161081   4.402   5.559  14.925  0.6928 -0.0254  0.2649
13222TIP3    H261082   4.510   5.462  14.881 -0.9161 -0.6439 -2.4003
13223TIP3   OH261083   1.155   5.562  15.529 -0.8931 -0.0782  0.2925
13223TIP3    H161084   1.087   5.563  15.596 -1.1966 -1.8205  0.0446
13223TIP3    H261085   1.228   5.517  15.570  0.0194  1.5183  0.4503
13224TIP3   OH261086   0.402   2.732  11.725  0.5936  0.1557  0.7277
13224TIP3    H161087   0.449   2.809  11.758 -0.0843  0.0584  1.9598
13224TIP3    H261088   0.444   2.658  11.768  0.3745 -0.0608  0.5685
13225TIP3   OH261089   2.069   4.829  15.387  0.7011 -0.0276  0.4046
13225TIP3    H161090   2.069   4.919  15.356 -2.6997  1.0104  3.1342
13225TIP3    H261091   2.003   4.785  15.333  1.0719 -0.4208  0.2729
13226TIP3   OH261092   6.573   5.738   5.245  0.5254 -0.0356 -0.1751
13226TIP3    H161093   6.561   5.788   5.163 -0.9770 -0.7091 -0.3927
13226TIP3    H261094   6.580   5.805   5.313  1.4550  0.5259 -0.8223
13227TIP3   OH261095   6.275   5.211  13.353 -0.1365 -0.5969  0.0931
13227TIP3    H161096   6.214   5.194  13.425 -0.0074 -0.2752  0.2819
13227TIP3    H261097   6.360   5.183  13.387  0.0897  0.4772  0.4311
13228TIP3   OH261098   1.038   3.414   1.177  0.2103  0.3385 -0.2610
13228TIP3    H161099   0.974   3.424   1.107  0.4769 -0.9125 -0.6909
13228TIP3    H261100   1.096   3.490   1.168  0.7222 -0.2360 -1.9081
13229TIP3   OH261101   0.161   3.752   3.659  0.1422 -0.1940 -0.1933
13229TIP3    H161102   0.185   3.794   3.741 -0.6598  2.7499 -1.3959
13229TIP3    H261103   0.187   3.660   3.670  4.1496  1.0325  1.6823
13230TIP3   OH261104   0.759   0.295   2.630  0.7744 -0.1395 -0.1007
13230TIP3    H161105   0.752   0.245   2.711 -1.6702 -1.9472 -1.3844
13230TIP3    H261106   0.840   0.346   2.641  2.2279 -2.7705  2.1018
13231TIP3   OH261107   0.211   2.891   1.138  0.5825 -0.0622 -0.2329
13231TIP3    H161108   0.248   2.979   1.136  2.1424 -0.6619  0.9264
13231TIP3    H261109   0.195   2.869   1.047 -1.3972  2.0429 -0.4550
13232TIP3   OH261110   1.786   0.189  11.045  0.4931  0.3162 -0.3418
13232TIP3    H161111   1.761   0.156  10.958 -2.3320 -0.6906  0.7888
13232TIP3    H261112   1.739   0.273  11.052  1.0484  0.5946  0.0475
13233TIP3   OH261113   1.980   2.468   4.424  0.5391 -0.4733  0.1916
13233TIP3    H161114   1.936   2.545   4.460  0.7029 -0.4533  0.3511
13233TIP3    H261115   1.936   2.393   4.464 -0.6131 -0.5104 -1.0918
13234TIP3   OH261116   4.894   0.183  13.003 -0.2929  0.6543 -0.2568
13234TIP3    H161117   4.917   0.275  13.014 -2.1520  0.9644  1.3874
13234TIP3    H261118   4.837   0.181  12.926 -0.0345  0.8307 -0.4530
13235TIP3   OH261119   0.527   3.375   1.609  0.0810  0.2805  0.1854
13235TIP3    H161120   0.532   3.376   1.705 -0.1604  1.7474  0.1941
13235TIP3    H261121   0.470   3.448   1.587  1.7516  1.2086 -1.1693
13236TIP3   OH261122   3.117   3.027   3.758 -0.0663 -0.0590 -0.0487
13236TIP3    H161123   3.190   3.082   3.787 -1.2535  0.2842  2.3872
13236TIP3    H261124   3.044   3.052   3.815 -1.2388 -2.5842 -0.3808
13237TIP3   OH261125   1.353   5.466   4.268 -0.1012  0.4155  0.2064
13237TIP3    H161126   1.352   5.437   4.359 -0.7283  1.8929  0.6874
13237TIP3    H261127   1.440   5.441   4.236  0.7762  1.3970  1.7206
13238TIP3   OH261128   3.460   3.914   1.754 -0.0257  0.1662  0.3827
13238TIP3    H161129   3.428   3.830   1.720 -0.5170  0.9083 -1.0129
13238TIP3    H261130   3.543   3.928   1.709  0.4797  0.0232  1.2605
13239TIP3   OH261131   6.107   2.764   3.363  0.1838  0.8125 -0.3160
13239TIP3    H161132   6.013   2.780   3.361 -0.0511 -0.0856  1.7215
13239TIP3    H261133   6.126   2.746   3.456  1.7237 -2.7279 -1.2566
13240TIP3   OH261134   6.432   5.040  16.441  0.3391  0.0896  0.7374
13240TIP3    H161135   6.451   5.121  16.488  3.5773 -1.0739  1.6065
13240TIP3    H261136   6.499   5.036  16.373 -0.9821 -0.9170 -0.5370
13241TIP3   OH261137   5.364   2.797  13.528  0.3438  0.5270 -0.4915
13241TIP3    H161138   5.283   2.746  13.529 -0.8315  2.3366 -1.7372
13241TIP3    H261139   5.413   2.761  13.454  0.4238 -0.1345 -0.1296
13242TIP3   OH261140   1.483   1.829  11.504  0.5237 -0.1999 -0.9492
13242TIP3    H161141   1.509   1.743  11.538  0.4444 -0.1624 -0.7958
13242TIP3    H261142   1.565   1.876  11.491  0.5098  0.0743 -0.0592
13243TIP3   OH261143   6.019   0.074  11.812  0.4957 -0.2253 -0.1989
13243TIP3    H161144   6.031   0.127  11.733 -0.6437  0.6982  0.2319
13243TIP3    H261145   6.091   0.011  11.809  0.5348 -0.1445 -1.9213
13244TIP3   OH261146   5.800   3.781  11.512 -0.5232 -0.1686 -0.5927
13244TIP3    H161147   5.746   3.753  11.438  1.7531 -1.6278 -1.7707
13244TIP3    H261148   5.747   3.762  11.589 -1.2878 -2.5746 -1.6483
13245TIP3   OH261149   2.539   3.845  16.426  0.1886  0.5411 -0.1478
13245TIP3    H161150   2.605   3.874  16.363 -0.2697 -0.4298 -1.0973
13245TIP3    H261151   2.468   3.811  16.372 -0.0083 -0.7524  0.8908
13246TIP3   OH261152   0.532   0.512  12.471  0.6929 -0.0358 -0.0669
13246TIP3    H161153   0.580   0.435  12.500  3.4333  1.4421 -0.4765
13246TIP3    H261154   0.573   0.536  12.387 -0.8223  1.2093 -0.4795
13247TIP3   OH261155   6.669   1.970   6.172  0.4423 -0.0395  0.5965
13247TIP3    H161156   6.656   2.050   6.222 -0.1529  0.7430 -0.7684
13247TIP3    H261157   6.633   1.990   6.085  0.1502 -1.8312  0.2819
13248TIP3   OH261158   3.893   4.163   0.826 -0.1970  0.5998  0.0206
13248TIP3    H161159   3.966   4.146   0.766  1.5907  0.2828  2.2064
13248TIP3    H261160   3.890   4.258   0.835  1.4470  0.5225  1.6643
13249TIP3   OH261161   6.647   6.459   3.192 -0.2112  0.2621 -0.5708
13249TIP3    H161162   6.707   6.386   3.175 -1.4275 -0.1963 -3.1166
13249TIP3    H261163   6.688   6.534   3.149  0.8012  1.0060  1.6410
13250TIP3   OH261164   5.632   2.156   4.191  0.2967 -0.6997  0.5038
13250TIP3    H161165   5.635   2.225   4.256 -0.7163  0.3626 -0.5581
13250TIP3    H261166   5.544   2.119   4.198 -0.0981 -0.0340 -0.8098
13251TIP3   OH261167   1.858   0.488  13.107 -0.9285 -0.8542 -0.0109
13251TIP3    H161168   1.777   0.438  13.101 -1.7027  0.4645 -0.5976
13251TIP3    H261169   1.864   0.535  13.025 -0.2560  0.1111  0.5773
13252TIP3   OH261170   2.807   5.165   4.482 -0.2489  0.7396  1.1284
13252TIP3    H161171   2.779   5.112   4.407 -2.8183 -0.2932  2.7441
13252TIP3    H261172   2.898   5.140   4.496 -0.2213 -0.2546 -0.6400
13253TIP3   OH261173   4.550   2.165  14.347  0.0354 -0.1059 -0.4693
13253TIP3    H161174   4.477   2.129  14.296 -1.1542 -1.0470  1.8176
13253TIP3    H261175   4.548   2.117  14.429  1.7400  1.5495  0.5927
13254TIP3   OH261176   4.882   6.197  13.584 -0.1758  0.5798 -0.1301
13254TIP3    H161177   4.796   6.228  13.556 -0.2593  0.4029 -0.0734
13254TIP3    H261178   4.930   6.181  13.502  0.1644  1.6786 -0.1519
13255TIP3   OH261179   5.098   2.544   0.294  0.0777 -0.2083 -0.2046
13255TIP3    H161180   5.055   2.475   0.343 -1.5510  1.4329  0.7652
13255TIP3    H261181   5.175   2.567   0.346 -1.7854  1.7073  1.8378
13256TIP3   OH261182   2.458   3.965  12.295  0.6921 -0.1451  0.1726
13256TIP3    H161183   2.553   3.954  12.287  0.8728  1.1531  0.3548
13256TIP3    H261184   2.429   3.984  12.206  0.6443 -0.2217  0.1713
13257TIP3   OH261185   0.175   1.561   4.288 -0.5700 -0.1215 -0.5778
13257TIP3    H161186   0.089   1.603   4.290  0.0082  1.0458  0.8452
13257TIP3    H261187   0.230   1.617   4.343  1.4345 -0.1399 -2.5059
13258TIP3   OH261188   3.666   5.129  14.886 -0.1609  0.2737 -0.1890
13258TIP3    H161189   3.651   5.177  14.967 -0.2936  0.2454 -0.1966
13258TIP3    H261190   3.624   5.182  14.819 -1.6933 -0.6538  0.0224
13259TIP3   OH261191   2.470   2.157   1.181  0.3975  0.7951 -0.3934
13259TIP3    H161192   2.451   2.068   1.153  0.4218  0.1482  1.5828
13259TIP3    H261193   2.397   2.209   1.147 -1.5557 -0.5873  1.4966
13260TIP3   OH261194   6.304   5.865  12.724 -0.0304 -0.0402 -0.5063
13260TIP3    H161195   6.223   5.815  12.709  0.7398 -1.3690 -0.2695
13260TIP3    H261196   6.299   5.890  12.816  0.7925 -1.8957  0.0653
13261TIP3   OH261197   6.604   5.455   5.219  0.6405 -0.2058  0.8398
13261TIP3    H161198   6.591   5.550   5.217 -0.7703 -0.3973 -0.0182
13261TIP3    H261199   6.639   5.434   5.133  1.2911 -0.4165  1.1572
13262TIP3   OH261200   4.144   3.251   6.274  0.5870 -0.3375 -0.2101
13262TIP3    H161201   4.231   3.271   6.241 -0.4902  2.2766 -1.5720
13262TIP3    H261202   4.156   3.242   6.369  2.2884  0.1381 -0.3630
13263TIP3   OH261203   0.263   3.131   2.378 -0.0420 -0.4819  0.1360
13263TIP3    H161204   0.222   3.217   2.363  3.7365  1.9991  2.9495
13263TIP3    H261205   0.292   3.103   2.292 -1.2704  1.1282 -0.8274
13264TIP3   OH261206   2.747   4.674   5.462  0.4090  0.3125 -0.0580
13264TIP3    H161207   2.665   4.650   5.506  0.5833 -0.4914 -0.1677
13264TIP3    H261208   2.802   4.709   5.532 -0.2479  1.4352 -0.0899
13265TIP3   OH261209   5.813   4.975   3.827  0.0245 -0.3385  0.0622
13265TIP3    H161210   5.859   4.960   3.745  1.7375  1.3102  0.6726
13265TIP3    H261211   5.816   5.070   3.839 -2.7826 -0.2655  0.5776
13266TIP3   OH261212   0.758   0.376  16.518  0.3266  0.2320  0.2643
13266TIP3    H161213   0.809   0.296  16.512  1.1454  0.8323 -1.0754
13266TIP3    H261214   0.789   0.420  16.597  1.0283  0.0132  0.1084
13267TIP3   OH261215   5.920   1.330  11.005 -0.6203 -0.0268  0.0320
13267TIP3    H161216   5.858   1.333  10.931  0.8092 -0.7089 -1.2167
13267TIP3    H261217   5.912   1.241  11.039 -0.8479  0.1078  0.3341
13268TIP3   OH261218   2.063   5.994   1.457  0.6141  0.3775 -0.2466
13268TIP3    H161219   2.140   5.945   1.483  0.6064  1.5468  2.0533
13268TIP3    H261220   1.991   5.955   1.507  0.1920  1.0905 -0.2845
13269TIP3   OH261221   2.782   4.186  17.037 -0.2141  0.3846 -0.0542
13269TIP3    H161222   2.772   4.274  16.999 -2.7103 -0.0421 -0.4361
13269TIP3    H261223   2.708   4.178  17.098  0.7442 -0.9832  0.9528
13270TIP3   OH261224   5.147   5.320   0.158  0.1701  0.0630 -0.4348
13270TIP3    H161225   5.157   5.322   0.063  1.7324  1.5264 -0.2503
13270TIP3    H261226   5.071   5.263   0.172 -0.7330  0.6579 -2.6000
13271TIP3   OH261227   5.504   2.678   0.678 -0.0870 -0.6656  0.1047
13271TIP3    H161228   5.542   2.719   0.756  0.3842 -0.3588 -0.2830
13271TIP3    H261229   5.557   2.600   0.663 -2.0232 -2.3786  1.8305
13272TIP3   OH261230   0.446   1.628  15.537  0.0535 -0.3284  0.2198
13272TIP3    H161231   0.490   1.611  15.620  0.2541 -1.6120 -0.1443
13272TIP3    H261232   0.515   1.665  15.481  0.7015 -2.3266 -0.3450
13273TIP3   OH261233   3.508   2.132   3.823  0.0251  0.0332 -0.5807
13273TIP3    H161234   3.601   2.130   3.803 -0.2250  0.0643 -1.7497
13273TIP3    H261235   3.475   2.047   3.794 -0.3389  0.0868 -0.3278
13274TIP3   OH261236   4.378   4.601  16.776  0.1922 -0.2676  0.5087
13274TIP3    H161237   4.315   4.665  16.744  2.2953  3.0654  2.7377
13274TIP3    H261238   4.325   4.528  16.808 -2.3192  0.8903 -0.8756
13275TIP3   OH261239   2.266   0.933  12.439 -0.2419  0.2880  0.4074
13275TIP3    H161240   2.236   0.872  12.507  0.0774 -0.7793 -0.3913
13275TIP3    H261241   2.345   0.973  12.475 -0.7414  0.6198  1.1521
13276TIP3   OH261242   3.646   3.325   3.894 -0.2481  0.3205  0.0555
13276TIP3    H161243   3.623   3.331   3.802 -1.5509  1.3301  0.4294
13276TIP3    H261244   3.608   3.242   3.923  1.3308 -0.6514 -0.6250
13277TIP3   OH261245   5.571   6.234  13.132 -0.5436 -0.2235 -0.1357
13277TIP3    H161246   5.598   6.206  13.219  0.5282  1.3583  0.0694
13277TIP3    H261247   5.598   6.162  13.074  0.8661 -0.2592  0.5425
13278TIP3   OH261248   1.642   3.691   1.712  0.2126  0.0506  0.1429
13278TIP3    H161249   1.599   3.719   1.793  0.0387 -0.8821  0.3757
13278TIP3    H261250   1.571   3.656   1.659  0.3846  0.3342 -0.2735
13279TIP3   OH261251   6.535   5.688  12.336  0.9849 -0.4108 -0.0261
13279TIP3    H161252   6.481   5.763  12.313  0.9332 -0.7806 -1.1805
13279TIP3    H261253   6.623   5.724  12.347  1.1262 -0.2821 -1.3990
13280TIP3   OH261254   6.415   3.850  13.203  0.4652  0.0537 -0.0442
13280TIP3    H161255   6.403   3.859  13.108 -1.1333  2.4377  0.3225
13280TIP3    H261256   6.509   3.852  13.216  0.7018 -0.3379 -1.5894
13281TIP3   OH261257   3.072   4.049   2.963  0.0595  0.1205  0.5151
13281TIP3    H161258   3.157   4.007   2.977  0.2003  0.1333 -0.2711
13281TIP3    H261259   3.020   4.024   3.039  0.5680 -0.4061  0.6942
13282TIP3   OH261260   2.436   0.511  16.690  0.1041  0.0094  0.4938
13282TIP3    H161261   2.491   0.552  16.624  1.3458 -1.6304  0.4780
13282TIP3    H261262   2.350   0.553  16.680  0.7295  0.9528 -1.0137
13283TIP3   OH261263   2.402   2.345   3.613  0.0112 -0.5018  0.6471
13283TIP3    H161264   2.441   2.268   3.655  0.9231  1.1584  2.9697
13283TIP3    H261265   2.349   2.385   3.682 -0.7463  0.7395 -0.6416
13284TIP3   OH261266   6.297   4.115  15.495 -1.2992 -0.0609 -0.0529
13284TIP3    H161267   6.278   4.041  15.437  1.2541 -0.0499 -0.9715
13284TIP3    H261268   6.249   4.188  15.457 -0.5082 -0.3091 -1.5767
13285TIP3   OH261269   6.556   0.504   4.319  0.4682  0.1446  0.9433
13285TIP3    H161270   6.525   0.594   4.320  1.6365  0.5748  0.3548
13285TIP3    H261271   6.569   0.481   4.411 -3.0928 -0.6164  1.3170
13286TIP3   OH261272   2.402   0.851  16.568 -0.8789 -0.4383 -0.5901
13286TIP3    H161273   2.466   0.780  16.559 -1.0969 -0.3190 -3.2172
13286TIP3    H261274   2.411   0.879  16.660  1.4786 -1.6962 -0.3981
13287TIP3   OH261275   0.102   3.268  14.417  0.0481 -0.9839 -0.7982
13287TIP3    H161276   0.162   3.318  14.362 -0.0889 -1.3805 -1.3073
13287TIP3    H261277   0.113   3.306  14.505 -1.9443  1.6834 -1.6433
13288TIP3   OH261278   3.378   6.282  17.152 -0.2522 -0.0697 -0.4201
13288TIP3    H161279   3.364   6.197  17.110 -0.8580  0.5386 -1.5036
13288TIP3    H261280   3.321   6.281  17.228  0.3496 -0.9385  0.0265
13289TIP3   OH261281   3.138   3.539   4.779 -0.3522  0.1514  0.1673
13289TIP3    H161282   3.175   3.553   4.692 -0.3306 -0.1906  0.1192
13289TIP3    H261283   3.200   3.481   4.822 -0.2047  0.5788  0.5220
13290TIP3   OH261284   0.391   5.054  15.423  0.1228  0.6264  0.2046
13290TIP3    H161285   0.443   5.125  15.462 -0.5572  0.5230  1.3179
13290TIP3    H261286   0.379   4.992  15.495  0.1229 -0.2923 -0.5841
13291TIP3   OH261287   0.832   5.470  13.487 -0.0486  0.5524 -0.0815
13291TIP3    H161288   0.876   5.386  13.471  0.4630  0.8308 -0.1303
13291TIP3    H261289   0.804   5.465  13.579  1.3126  0.9421  0.3589
13292TIP3   OH261290   6.739   1.825  16.523  0.1439  0.1255  0.8798
13292TIP3    H161291   6.670   1.879  16.485 -0.0447  0.3282  1.5028
13292TIP3    H261292   6.819   1.876  16.510  0.3289 -0.5052 -0.6373
13293TIP3   OH261293   6.402   2.119   5.771 -0.0570 -0.2624  0.4910
13293TIP3    H161294   6.309   2.100   5.772 -0.0426 -0.3341  0.5821
13293TIP3    H261295   6.413   2.185   5.703 -0.2837  0.3285  1.0299
13294TIP3   OH261296   2.128   4.564   0.922 -0.1069 -0.2909  0.3341
13294TIP3    H161297   2.212   4.573   0.966  0.4332  0.0504 -0.7513
13294TIP3    H261298   2.100   4.654   0.905  1.5094 -0.4242 -3.4041
13295TIP3   OH261299   0.382   5.615   0.887  0.6474 -0.5562 -0.5070
13295TIP3    H161300   0.466   5.597   0.845  0.2780 -1.9516 -0.6746
13295TIP3    H261301   0.378   5.554   0.961 -0.0501 -0.2385 -0.2739
13296TIP3   OH261302   2.839   5.226  15.316  0.3276  0.7970 -0.2762
13296TIP3    H161303   2.854   5.173  15.238 -1.9544 -0.3006 -0.0129
13296TIP3    H261304   2.760   5.277  15.295  0.4427  1.4395  0.8280
13297TIP3   OH261305   6.217   2.334   0.159 -0.2650  0.5339  0.0041
13297TIP3    H161306   6.280   2.361   0.226  0.1753 -1.7367  0.5202
13297TIP3    H261307   6.249   2.376   0.079  0.8133  0.9415  0.6348
13298TIP3   OH261308   2.656   6.281  11.381  0.4032 -0.2479 -0.5675
13298TIP3    H161309   2.690   6.357  11.428  1.3960 -0.0971 -1.5117
13298TIP3    H261310   2.727   6.256  11.321 -1.9323  1.3759 -4.1278
13299TIP3   OH261311   4.373   2.084   1.150  0.1681 -0.5354 -0.0528
13299TIP3    H161312   4.341   2.109   1.063 -1.0703  0.6566  0.7125
13299TIP3    H261313   4.306   2.026   1.185  0.4570 -0.6789  0.2674
13300TIP3   OH261314   3.463   4.065   4.585 -0.2720 -0.3316 -0.2005
13300TIP3    H161315   3.477   4.128   4.656 -0.8539  0.8229 -1.0948
13300TIP3    H261316   3.551   4.040   4.557 -0.0321  0.4790 -0.1815
13301TIP3   OH261317   4.726   0.530  13.646  0.1872  0.3204 -0.1765
13301TIP3    H161318   4.697   0.446  13.680  1.8677 -0.2173 -0.0562
13301TIP3    H261319   4.659   0.554  13.581 -1.2156 -0.2615  1.0326
13302TIP3   OH261320   1.100   3.261  15.793 -0.1039  0.5382  0.3063
13302TIP3    H161321   1.014   3.297  15.812 -1.1293 -0.8275 -1.5482
13302TIP3    H261322   1.140   3.249  15.879 -2.0740  0.4488  1.2502
13303TIP3   OH261323   2.682   6.259  16.897 -0.0307  0.6561 -0.1257
13303TIP3    H161324   2.694   6.181  16.842  2.3145  0.5592  0.4986
13303TIP3    H261325   2.615   6.233  16.960  2.5496 -1.8082  1.7323
13304TIP3   OH261326   4.675   4.108  15.819 -0.2716  0.5712  0.7015
13304TIP3    H161327   4.591   4.079  15.782  0.5526 -2.7979  1.2931
13304TIP3    H261328   4.724   4.141  15.744  0.7311 -4.5955 -1.0880
13305TIP3   OH261329   3.114   2.816  13.517  0.4755  0.5703  0.3705
13305TIP3    H161330   3.121   2.731  13.473  0.5619 -0.5261  2.4531
13305TIP3    H261331   3.022   2.824  13.540  0.4796  1.0012  0.2252
13306TIP3   OH261332   3.160   4.450  13.462 -0.1959 -0.0800  0.1609
13306TIP3    H161333   3.102   4.525  13.473  0.4075  0.2558  1.1620
13306TIP3    H261334   3.127   4.405  13.384 -1.6911  0.2020  0.6054
13307TIP3   OH261335   0.881   0.970   0.105  0.1333 -0.4515 -0.0343
13307TIP3    H161336   0.930   1.045   0.139  2.1217 -0.8109 -1.9306
13307TIP3    H261337   0.948   0.917   0.060 -1.8314 -1.5797 -1.7005
13308TIP3   OH261338   2.406   0.923  16.842  0.2170 -0.3022 -0.6937
13308TIP3    H161339   2.317   0.916  16.877  0.6912 -0.6219  0.5033
13308TIP3    H261340   2.445   0.995  16.891  1.2026 -1.3811  0.1416
13309TIP3   OH261341   1.088   2.536   1.652 -0.0396  0.2340  0.2063
13309TIP3    H161342   1.180   2.547   1.674  0.1383  0.4166 -0.6175
13309TIP3    H261343   1.088   2.480   1.574 -0.4877  2.1992 -1.2632
13310TIP3   OH261344   0.856   4.035   2.702 -0.0153  0.1808  0.1404
13310TIP3    H161345   0.887   3.944   2.706  1.3608  0.6616  0.8594
13310TIP3    H261346   0.923   4.082   2.653  0.2700  1.1856  1.4547
13311TIP3   OH261347   3.775   3.665  12.334 -0.2785  0.0170  0.6201
13311TIP3    H161348   3.682   3.672  12.314 -0.4398  1.1317  1.6716
13311TIP3    H261349   3.786   3.717  12.414  1.6997  2.0246 -0.8939
13312TIP3   OH261350   1.674   3.174  13.313 -0.5592  0.1272  0.3992
13312TIP3    H161351   1.711   3.087  13.305 -1.5566 -0.7348  3.9802
13312TIP3    H261352   1.595   3.173  13.259 -0.7715 -1.3435  0.7309
13313TIP3   OH261353   0.763   1.988   4.080 -0.4737 -0.5535  0.3641
13313TIP3    H161354   0.727   2.065   4.035 -0.6458 -0.3275  0.8821
13313TIP3    H261355   0.783   1.926   4.009 -0.0788  0.0730 -0.0836
13314TIP3   OH261356   2.408   1.616   4.025  0.0667  0.0462 -0.0953
13314TIP3    H161357   2.455   1.641   4.105  2.3995 -1.4199 -0.9756
13314TIP3    H261358   2.318   1.643   4.042  0.9361  1.7301  2.1665
13315TIP3   OH261359   1.037   2.736  13.282 -0.0255  0.5179 -1.2180
13315TIP3    H161360   0.988   2.654  13.279 -0.0206  0.4323  0.3690
13315TIP3    H261361   1.084   2.732  13.365 -2.0449  3.2722  0.1373
13316TIP3   OH261362   2.426   3.764  15.460 -0.6999 -0.0750 -0.3453
13316TIP3    H161363   2.470   3.784  15.377  2.0099  0.9999  1.3132
13316TIP3    H261364   2.472   3.688  15.494 -1.0737  0.1690  0.7088
13317TIP3   OH261365   1.384   0.604  15.953  0.4697  0.7146 -0.5462
13317TIP3    H161366   1.431   0.684  15.977 -0.0842  0.1740  2.5659
13317TIP3    H261367   1.306   0.635  15.906 -0.6295  2.1802  2.1195
13318TIP3   OH261368   3.272   4.091  14.532  0.0247  0.1183  0.1707
13318TIP3    H161369   3.259   4.102  14.626 -1.9827 -0.6716  0.0205
13318TIP3    H261370   3.265   3.996  14.518 -0.4729  0.2997 -0.8650
13319TIP3   OH261371   5.108   5.871  11.259  0.3306  0.0264  0.0795
13319TIP3    H161372   5.027   5.883  11.209  0.2294  0.7696  0.4134
13319TIP3    H261373   5.080   5.825  11.338  0.3509 -0.3903 -0.1597
13320TIP3   OH261374   4.746   1.257  11.408  0.7024  0.3074  0.1357
13320TIP3    H161375   4.708   1.212  11.333  1.2033  0.5711 -0.2842
13320TIP3    H261376   4.688   1.237  11.481 -0.4650  1.0387 -0.5859
13321TIP3   OH261377   5.659   4.803  15.219 -0.3975 -0.2320 -0.2504
13321TIP3    H161378   5.574   4.790  15.177 -1.6067  1.5447  1.5757
13321TIP3    H261379   5.699   4.874  15.168 -0.2277 -0.6855 -0.7595
13322TIP3   OH261380   5.724   3.489  14.761 -0.1209  0.3295 -0.0752
13322TIP3    H161381   5.711   3.455  14.672 -0.6920 -1.6915  0.7558
13322TIP3    H261382   5.643   3.536  14.781 -0.1752  0.3984 -0.4525
13323TIP3   OH261383   6.425   2.746  11.438 -0.3657  0.1178 -0.4897
13323TIP3    H161384   6.441   2.830  11.396  0.3470 -0.2631 -0.9921
13323TIP3    H261385   6.501   2.732  11.494 -0.6178 -0.0592 -0.1877
13324TIP3   OH261386   5.570   1.248  10.990 -0.6062 -0.1969  0.1805
13324TIP3    H161387   5.591   1.157  10.970 -0.8718 -0.1411 -0.3566
13324TIP3    H261388   5.508   1.274  10.922  1.2896  1.1193 -1.1088
13325TIP3   OH261389   2.659   5.271   1.904  0.2181  0.7506 -0.1812
13325TIP3    H161390   2.624   5.274   1.815 -1.8620  2.1987  0.6537
13325TIP3    H261391   2.728   5.337   1.906 -0.1351  1.1282 -0.5594
13326TIP3   OH261392   4.377   5.073  11.355 -0.5488  0.0936  0.0646
13326TIP3    H161393   4.412   5.009  11.293 -1.0008 -0.7611  0.6733
13326TIP3    H261394   4.282   5.060  11.351 -0.6581  0.9459 -0.0425
13327TIP3   OH261395   4.302   2.965  13.962  0.0274  0.4011 -0.0722
13327TIP3    H161396   4.300   2.942  14.054  0.9636 -1.8281 -0.5711
13327TIP3    H261397   4.367   3.036  13.956  1.5114 -0.8650  0.6988
13328TIP3   OH261398   5.200   0.696   0.938 -0.5302 -0.2061 -0.0567
13328TIP3    H161399   5.234   0.658   0.857 -1.0426 -2.7347  0.8567
13328TIP3    H261400   5.110   0.662   0.944 -0.8316  0.7723  1.0593
13329TIP3   OH261401   3.699   1.717   4.296  0.0302 -0.2830 -0.1599
13329TIP3    H161402   3.683   1.806   4.328 -2.6062 -0.8695  0.1857
13329TIP3    H261403   3.783   1.724   4.249  0.3045  2.1739  0.6208
13330TIP3   OH261404   1.027   4.560  10.833 -0.3503  0.0313  0.0869
13330TIP3    H161405   1.032   4.472  10.872 -1.3515  0.4920  1.2969
13330TIP3    H261406   1.037   4.545  10.739 -0.7258 -1.4126  0.2642
13331TIP3   OH261407   5.342   1.244  14.605 -0.2134 -0.2701 -0.1540
13331TIP3    H161408   5.370   1.220  14.517  0.9382 -0.4938  0.2760
13331TIP3    H261409   5.361   1.168  14.659 -1.8415 -0.5086  0.1142
13332TIP3   OH261410   5.002   5.790  15.885  0.5006  0.0280 -0.5862
13332TIP3    H161411   4.953   5.737  15.947  0.6499 -0.6418 -1.0322
13332TIP3    H261412   5.061   5.728  15.841  2.2273  0.9368  0.4087
13333TIP3   OH261413   3.460   0.098   4.960 -0.3432  0.2665  0.2447
13333TIP3    H161414   3.480   0.005   4.946  1.6401  0.8982 -1.2935
13333TIP3    H261415   3.478   0.139   4.876 -1.4135  2.0358  0.8602
13334TIP3   OH261416   3.985   1.705   1.106  0.3980 -0.3451 -0.1732
13334TIP3    H161417   4.012   1.649   1.033  2.8012  1.7646 -0.9745
13334TIP3    H261418   3.958   1.787   1.064 -2.4884 -0.6258  1.0254
13335TIP3   OH261419   0.228   3.119   3.911 -0.0667  0.2085 -0.2169
13335TIP3    H161420   0.223   3.045   3.972  2.1363 -0.8008 -1.2149
13335TIP3    H261421   0.285   3.182   3.955 -0.8141  0.7296  0.0156
13336TIP3   OH261422   1.804   1.331   3.582  0.3173 -0.3325  0.0683
13336TIP3    H161423   1.793   1.425   3.593 -0.7034 -0.6452  1.9364
13336TIP3    H261424   1.768   1.293   3.662  1.5716 -2.2663 -0.2540
13337TIP3   OH261425   4.194   3.269  14.893 -0.5544  0.1352 -0.1263
13337TIP3    H161426   4.253   3.253  14.967  1.4634  1.9987 -1.2893
13337TIP3    H261427   4.115   3.307  14.933  0.3850  0.8230  1.1167
13338TIP3   OH261428   4.842   1.139  16.616 -0.0183  0.3882  0.6889
13338TIP3    H161429   4.840   1.216  16.673 -3.1432  2.0142 -1.4552
13338TIP3    H261430   4.934   1.128  16.594  0.5921  3.1145  1.6545
13339TIP3   OH261431   5.160   4.510  14.044 -0.0314  0.4871  0.4327
13339TIP3    H161432   5.147   4.418  14.070 -0.7275  0.8814  1.5026
13339TIP3    H261433   5.142   4.560  14.123  0.3432  1.5552 -0.1517
13340TIP3   OH261434   6.660   0.971   1.719 -0.0158  0.5256  0.4873
13340TIP3    H161435   6.753   0.961   1.739 -0.2903 -0.3193  1.4249
13340TIP3    H261436   6.641   1.063   1.736  0.6668  0.7178  0.2038
13341TIP3   OH261437   1.147   1.077  16.137  0.0671  0.6980  0.2550
13341TIP3    H161438   1.138   0.986  16.109 -0.7409  1.0205 -0.5406
13341TIP3    H261439   1.090   1.126  16.078 -0.2217  1.6072  1.2823
13342TIP3   OH261440   4.419   1.045   6.511  0.0168  0.4236  0.1202
13342TIP3    H161441   4.510   1.046   6.481  0.5135 -0.6712  1.5336
13342TIP3    H261442   4.394   0.952   6.507 -1.3214  0.8172 -1.0653
13343TIP3   OH261443   5.244   4.154   1.159  0.4933  0.5470  0.0976
13343TIP3    H161444   5.237   4.195   1.073  0.6289  0.8660  0.2351
13343TIP3    H261445   5.307   4.209   1.206  2.6491 -1.2842 -0.5699
13344TIP3   OH261446   3.665   0.895   3.675  0.3231 -1.1188 -0.5865
13344TIP3    H161447   3.576   0.920   3.700  0.0034 -1.6516 -1.1776
13344TIP3    H261448   3.714   0.977   3.677 -0.4042 -0.6572 -1.1979
13345TIP3   OH261449   2.089   5.293  12.738  0.1912  0.1161  0.0882
13345TIP3    H161450   2.012   5.280  12.683  1.2890 -1.8568 -1.0383
13345TIP3    H261451   2.122   5.380  12.714 -1.3431  0.7458  0.1960
13346TIP3   OH261452   3.657   6.312   0.580 -0.2384  0.6835  0.0069
13346TIP3    H161453   3.617   6.317   0.493 -0.6878 -1.7011  0.0640
13346TIP3    H261454   3.618   6.235   0.621  2.4351 -0.1941  1.0483
13347TIP3   OH261455   3.722   4.205  16.609 -0.1654  0.4022 -0.6900
13347TIP3    H161456   3.641   4.205  16.558 -0.6898  1.2141  0.1151
13347TIP3    H261457   3.698   4.248  16.691  1.0728  0.5889 -0.4181
13348TIP3   OH261458   6.452   5.652  16.954  0.1683  0.4719 -0.2173
13348TIP3    H161459   6.541   5.662  16.986 -0.4603  0.6480  1.5073
13348TIP3    H261460   6.416   5.740  16.953 -0.5649  0.1872  0.8046
13349TIP3   OH261461   2.629   0.023   5.516  0.3236  0.1574  0.4445
13349TIP3    H161462   2.595   0.077   5.444 -0.5271 -0.5426  0.3079
13349TIP3    H261463   2.682   0.083   5.568  0.2836  0.8664 -0.3147
13350TIP3   OH261464   1.460   0.581  15.563  0.4325 -0.4573  0.1152
13350TIP3    H161465   1.534   0.577  15.624  1.1049 -0.3869 -0.6893
13350TIP3    H261466   1.495   0.623  15.485 -0.9836  1.4704  0.4682
13351TIP3   OH261467   1.299   1.487   2.054 -0.5528 -0.1340  0.1731
13351TIP3    H161468   1.245   1.412   2.029 -0.1032 -0.1214 -0.8929
13351TIP3    H261469   1.373   1.450   2.101  0.3747 -0.5133 -1.5303
13352TIP3   OH261470   5.364   1.815  14.515 -0.8028 -0.3066 -0.5228
13352TIP3    H161471   5.286   1.825  14.569 -0.2580  0.7612  0.0707
13352TIP3    H261472   5.398   1.903  14.504  1.2937 -0.9342  0.6446
13353TIP3   OH261473   6.289   0.692  15.234  0.6488 -0.0029 -0.5156
13353TIP3    H161474   6.315   0.785  15.236 -1.9450  0.7304  0.3748
13353TIP3    H261475   6.311   0.664  15.145  1.2798  1.5299 -0.8717
13354TIP3   OH261476   1.257   4.864   0.487  0.2565 -0.3313  0.3805
13354TIP3    H161477   1.270   4.954   0.458  0.2625 -0.3932  0.1901
13354TIP3    H261478   1.209   4.872   0.569 -0.2906 -0.1813  0.0490
13355TIP3   OH261479   0.687   2.440  16.932 -0.5594  0.0791  0.1755
13355TIP3    H161480   0.701   2.517  16.876 -0.7857 -0.6950 -0.9490
13355TIP3    H261481   0.693   2.366  16.873 -1.3040 -0.7267  1.1053
13356TIP3   OH261482   0.617   0.300  15.529  0.4172 -0.1050 -0.7699
13356TIP3    H161483   0.561   0.369  15.565 -0.5021 -0.1031 -2.1559
13356TIP3    H261484   0.579   0.281  15.443  1.9729 -0.7986 -1.3249
13357TIP3   OH261485   5.619   2.833   4.122 -1.2322  0.0074  0.2802
13357TIP3    H161486   5.578   2.901   4.176 -0.2319  0.8060  0.0494
13357TIP3    H261487   5.661   2.774   4.184  0.2090  1.1141  0.3753
13358TIP3   OH261488   3.153   0.443   2.160 -0.3360  0.4621 -0.4333
13358TIP3    H161489   3.155   0.380   2.231 -0.2030 -0.3832 -1.1856
13358TIP3    H261490   3.191   0.523   2.198  2.0629 -0.7099 -0.2758
13359TIP3   OH261491   1.384   4.553  13.333  0.3023 -0.0367 -0.6877
13359TIP3    H161492   1.311   4.582  13.389  1.0084  0.1406  0.1379
13359TIP3    H261493   1.341   4.516  13.256 -0.6570  1.1778 -0.7551
13360TIP3   OH261494   5.439   4.735  16.252 -0.1960  0.0913  0.0915
13360TIP3    H161495   5.515   4.680  16.273  1.6404  2.2679 -0.6562
13360TIP3    H261496   5.401   4.695  16.174  0.3101 -0.9085  0.3472
13361TIP3   OH261497   3.300   1.519   2.468  0.3433  0.3779  0.2153
13361TIP3    H161498   3.265   1.529   2.380  0.3020  0.6886  0.2651
13361TIP3    H261499   3.378   1.576   2.469 -0.1406  1.0394  0.6426
13362TIP3   OH261500   5.067   3.767   5.642  0.5305  0.1701 -0.0510
13362TIP3    H161501   5.023   3.714   5.709 -1.1442 -0.8968 -1.9144
13362TIP3    H261502   5.152   3.724   5.629 -0.1408 -1.0961 -0.3517
13363TIP3   OH261503   0.188   5.206   5.367 -0.2958 -0.1419  0.3618
13363TIP3    H161504   0.214   5.197   5.275 -2.0259  1.3641 -0.3109
13363TIP3    H261505   0.263   5.173   5.417  0.2749 -1.8970 -1.5903
13364TIP3   OH261506   6.459   6.152   1.564 -0.7793 -0.6083 -0.2699
13364TIP3    H161507   6.412   6.075   1.596  0.3253 -0.4561  1.8367
13364TIP3    H261508   6.472   6.206   1.642  1.6822 -0.0197 -1.0445
13365TIP3   OH261509   3.587   2.166   4.608 -0.0204  0.4272  0.2641
13365TIP3    H161510   3.505   2.118   4.606  0.0012  0.3260  1.5152
13365TIP3    H261511   3.562   2.256   4.625  0.1834  0.2440  1.5654
13366TIP3   OH261512   1.760   2.956  10.935  0.6196  0.1798  0.6094
13366TIP3    H161513   1.840   2.933  10.982  1.3527 -1.5138 -1.3593
13366TIP3    H261514   1.780   2.936  10.843 -1.4075  1.5705 -0.1799
13367TIP3   OH261515   5.440   3.683  11.163 -0.0260  0.3474 -0.8089
13367TIP3    H161516   5.449   3.679  11.067 -0.6220  1.1283 -0.9092
13367TIP3    H261517   5.443   3.592  11.191 -2.7220 -0.1283 -1.8626
13368TIP3   OH261518   1.209   3.278   5.102 -0.1729  0.5170  0.0023
13368TIP3    H161519   1.223   3.194   5.146 -1.0675 -0.4649 -1.5617
13368TIP3    H261520   1.297   3.311   5.085  0.1829 -0.4111  0.0348
13369TIP3   OH261521   5.661   1.916   0.273  0.4428 -0.0600  0.1040
13369TIP3    H161522   5.702   1.846   0.325  1.1453 -0.4119 -0.9028
13369TIP3    H261523   5.735   1.966   0.238  0.0751 -1.2806 -2.5424
13370TIP3   OH261524   0.797   0.095   2.832 -0.0535 -0.2316  0.3059
13370TIP3    H161525   0.768   0.062   2.747  1.9529 -1.4731  0.0675
13370TIP3    H261526   0.788   0.020   2.892 -1.0117  0.4976  1.0967
13371TIP3   OH261527   6.094   6.760   3.925 -0.1725  0.3709 -0.4205
13371TIP3    H161528   6.073   6.842   3.969 -0.5441  0.0311  0.0387
13371TIP3    H261529   6.187   6.768   3.903 -0.0516  0.6554  0.1806
13372TIP3   OH261530   6.402   1.996  11.251  0.1961  0.4656 -0.9268
13372TIP3    H161531   6.369   2.073  11.204  2.3267  1.0498 -1.4983
13372TIP3    H261532   6.489   1.981  11.216  0.5829 -1.0324  0.5863
13373TIP3   OH261533   4.877   4.320  16.444  0.2176  0.5501 -0.1636
13373TIP3    H161534   4.864   4.284  16.532  0.5095 -0.1020 -0.3885
13373TIP3    H261535   4.809   4.279  16.391 -2.4207  3.7494  0.5209
13374TIP3   OH261536   4.716   4.645   1.732  0.5202 -0.1663  0.2116
13374TIP3    H161537   4.706   4.663   1.825 -0.2726 -0.8338  0.2640
13374TIP3    H261538   4.645   4.583   1.712  0.3412  0.4037 -0.9476
13375TIP3   OH261539   0.796   6.047   0.362  0.2765  0.1536  0.8119
13375TIP3    H161540   0.739   6.083   0.294  0.0278 -0.8127  0.4992
13375TIP3    H261541   0.851   6.121   0.389 -0.9627  1.0251  0.9651
13376TIP3   OH261542   3.378   1.394   2.829  0.4126  0.1882 -0.3249
13376TIP3    H161543   3.407   1.337   2.900 -2.6644 -1.0636  0.0076
13376TIP3    H261544   3.389   1.341   2.750 -0.1187  0.0284 -0.2940
13377TIP3   OH261545   3.332   4.182  13.886 -0.4362  0.5678 -0.0120
13377TIP3    H161546   3.396   4.133  13.834  0.2363  1.3013  0.1021
13377TIP3    H261547   3.305   4.254  13.829 -0.9631  0.4185  0.0448
13378TIP3   OH261548   0.910   2.163   4.670 -0.7164 -0.8152 -0.0233
13378TIP3    H161549   0.892   2.113   4.749  1.8474 -0.4038  0.8478
13378TIP3    H261550   0.870   2.248   4.686  0.6005 -0.4200  1.2363
13379TIP3   OH261551   6.010   0.734  15.205 -0.1900  0.6644  1.5284
13379TIP3    H161552   6.009   0.710  15.298  0.6020 -3.8072  0.5001
13379TIP3    H261553   6.102   0.732  15.181 -0.1313  4.3069  1.1279
13380TIP3   OH261554   1.170   5.431  14.220  0.3810  0.1238 -0.0972
13380TIP3    H161555   1.229   5.497  14.256  1.7044 -1.2989  0.4036
13380TIP3    H261556   1.116   5.478  14.157  0.5864  1.8916  1.0224
13381TIP3   OH261557   1.310   6.633  16.502  0.0940 -0.5607 -0.1341
13381TIP3    H161558   1.395   6.601  16.470 -0.3754 -0.4015 -1.5997
13381TIP3    H261559   1.246   6.576  16.460 -0.5809  0.1143 -0.0266
13382TIP3   OH261560   2.877   1.670  17.163 -0.1733 -0.5319  1.0677
13382TIP3    H161561   2.803   1.727  17.184 -0.4064 -0.5835  0.3982
13382TIP3    H261562   2.954   1.726  17.174 -0.4070 -0.0359  0.2703
13383TIP3   OH261563   5.683   5.003  14.283 -0.1291 -0.2371 -0.2579
13383TIP3    H161564   5.625   4.994  14.359 -0.1008 -3.0659 -0.5133
13383TIP3    H261565   5.770   4.985  14.317  0.4469  2.5238 -0.1794
13384TIP3   OH261566   2.405   1.868  11.418 -0.3838 -0.1227  0.1079
13384TIP3    H161567   2.404   1.885  11.323  2.9276 -0.3178 -0.0223
13384TIP3    H261568   2.425   1.775  11.426  0.9918  0.2370  1.0029
13385TIP3   OH261569   3.247   5.057   4.819 -0.8625 -0.2763  0.1373
13385TIP3    H161570   3.216   5.092   4.903  1.3260 -0.3312  1.0188
13385TIP3    H261571   3.268   5.134   4.767  0.3152 -0.2288  0.6573
13386TIP3   OH261572   3.077   6.444  16.466  0.1977 -0.5292  0.1590
13386TIP3    H161573   3.124   6.471  16.545  1.9739 -2.3090 -0.2557
13386TIP3    H261574   3.138   6.462  16.395 -1.0669  0.2568 -0.7319
13387TIP3   OH261575   4.473   0.697   1.433 -0.2139  0.0158  0.2038
13387TIP3    H161576   4.553   0.748   1.422 -0.6583  1.0580  1.6708
13387TIP3    H261577   4.457   0.659   1.346  0.7323  1.4724 -0.6339
13388TIP3   OH261578   4.290   4.233  11.903 -0.3617 -0.5095  0.0939
13388TIP3    H161579   4.205   4.269  11.929  0.4065  0.9245  0.6975
13388TIP3    H261580   4.278   4.138  11.904 -2.0271 -0.3137 -0.0947
13389TIP3   OH261581   2.641   2.463   5.450 -0.1856 -0.0648 -0.1931
13389TIP3    H161582   2.721   2.517   5.458  1.4192 -2.1674 -1.5551
13389TIP3    H261583   2.602   2.490   5.367 -1.4058  1.5758  0.8790
13390TIP3   OH261584   2.009   3.405   3.516  1.2000  0.4011 -0.2366
13390TIP3    H161585   2.040   3.360   3.437  1.4014 -0.7413  0.4943
13390TIP3    H261586   2.087   3.415   3.570  0.7683 -0.1797  0.4905
13391TIP3   OH261587   1.069   0.010   3.815  0.5951  0.2460 -0.1097
13391TIP3    H161588   0.989   0.014   3.762 -0.2545  1.9761  1.2350
13391TIP3    H261589   1.121   0.085   3.786  1.6167 -0.7044 -0.7692
13392TIP3   OH261590   5.159   1.608  16.910 -0.2967  0.2571  0.3235
13392TIP3    H161591   5.206   1.619  16.992  0.3752 -1.7906  0.2505
13392TIP3    H261592   5.081   1.558  16.933 -0.6460  0.5892 -0.1146
13393TIP3   OH261593   0.373   5.656   4.295  0.4534  0.6849  0.2022
13393TIP3    H161594   0.331   5.667   4.381  0.1384 -3.8816  0.7564
13393TIP3    H261595   0.302   5.665   4.232 -0.0156  0.2061  0.6660
13394TIP3   OH261596   5.030   5.245   3.978 -0.4351  0.5228  0.0319
13394TIP3    H161597   5.035   5.215   3.887 -1.8719  0.5367 -0.0681
13394TIP3    H261598   5.118   5.231   4.013  0.6842  2.3853 -1.9473
13395TIP3   OH261599   4.241   4.434   4.006  0.2175 -0.0600 -0.2447
13395TIP3    H161600   4.230   4.379   3.928  0.8336 -0.7506  0.1559
13395TIP3    H261601   4.179   4.506   3.993 -0.6014 -0.8459 -0.7704
13396TIP3   OH261602   3.817   2.910   1.664 -0.1771 -0.2347 -0.0107
13396TIP3    H161603   3.843   2.942   1.751  0.4585  0.1547 -0.3397
13396TIP3    H261604   3.828   2.986   1.606  2.7475 -1.3948 -1.0758
13397TIP3   OH261605   2.041   3.310  11.295  0.5226  0.3225  0.5085
13397TIP3    H161606   2.031   3.302  11.200  2.5455 -1.2874  0.3764
13397TIP3    H261607   1.962   3.270  11.331  0.3967 -0.3566 -0.4938
13398TIP3   OH261608   6.622   6.753   1.669 -0.4987 -0.0482 -0.4100
13398TIP3    H161609   6.691   6.819   1.657 -0.1568 -0.4593 -0.7030
13398TIP3    H261610   6.553   6.799   1.717  0.5456 -0.0098  1.0715
13399TIP3   OH261611   4.450   1.098   1.313  0.6435 -0.2310  0.2301
13399TIP3    H161612   4.387   1.169   1.323  0.8073 -0.1044  0.3696
13399TIP3    H261613   4.491   1.090   1.399  0.8853 -0.2479  0.1124
13400TIP3   OH261614   5.979   2.322   6.230 -0.1810  0.5783  0.4518
13400TIP3    H161615   6.001   2.242   6.277 -0.7182  0.4286  0.4494
13400TIP3    H261616   6.038   2.388   6.267 -0.4841  0.4252  1.2273
13401TIP3   OH261617   2.639   0.511   1.322 -0.1486 -0.3383 -0.3022
13401TIP3    H161618   2.615   0.600   1.349  0.8237 -0.1188 -0.1406
13401TIP3    H261619   2.734   0.513   1.316 -0.0830 -1.5204  0.2122
13402TIP3   OH261620   1.310   3.083   2.649 -0.3116 -0.9171  0.2609
13402TIP3    H161621   1.240   3.018   2.650 -3.0174  1.8800 -1.3006
13402TIP3    H261622   1.337   3.090   2.741 -0.3364 -3.7616  0.5429
13403TIP3   OH261623   3.159   5.615  12.492 -0.1828 -0.6919 -0.3799
13403TIP3    H161624   3.254   5.617  12.488 -0.1724 -1.9647 -0.8109
13403TIP3    H261625   3.139   5.565  12.571 -0.5055  0.3290  0.2035
13404TIP3   OH261626   1.411   5.234  11.705  0.3955 -0.1126  0.4418
13404TIP3    H161627   1.467   5.304  11.671  0.1250 -0.7884 -1.4116
13404TIP3    H261628   1.361   5.205  11.630 -1.7460 -0.2054  1.8619
13405TIP3   OH261629   0.758   5.585  14.255 -0.5473 -0.4028 -0.1280
13405TIP3    H161630   0.844   5.607  14.220  0.8655  0.2514  3.5496
13405TIP3    H261631   0.766   5.493  14.281 -0.7549 -0.1978  0.6901
13406TIP3   OH261632   5.207   4.287  12.245  0.0759 -0.1239 -0.3804
13406TIP3    H161633   5.248   4.261  12.328 -3.1939  0.5110  1.5356
13406TIP3    H261634   5.257   4.363  12.216  0.8245  0.0865  1.4019
13407TIP3   OH261635   5.703   4.592  16.279 -0.3933  0.2104  0.1854
13407TIP3    H161636   5.725   4.599  16.186  0.7476  0.2014  0.4504
13407TIP3    H261637   5.690   4.498  16.293  1.7008 -0.0602  0.5219
13408TIP3   OH261638   4.440   6.267   1.993 -0.0643  0.0329 -0.1109
13408TIP3    H161639   4.384   6.330   2.038 -1.8628 -0.6953 -1.2719
13408TIP3    H261640   4.411   6.270   1.902 -0.6987 -2.9978 -0.0472
13409TIP3   OH261641   4.207   4.497  13.944 -0.6071  0.1287 -0.1901
13409TIP3    H161642   4.263   4.422  13.963  1.0516  1.3677  0.0217
13409TIP3    H261643   4.133   4.489  14.004  0.2529 -0.6037  0.7831
13410TIP3   OH261644   0.622   5.466   4.345  0.0254 -0.0096 -0.4067
13410TIP3    H161645   0.702   5.502   4.306  1.0941  2.9566  4.0704
13410TIP3    H261646   0.569   5.543   4.366 -2.0513 -1.6694  0.6216
13411TIP3   OH261647   1.378   3.887  16.215 -0.1693  0.4720 -0.4591
13411TIP3    H161648   1.420   3.827  16.154 -3.0324  1.4716 -3.5669
13411TIP3    H261649   1.334   3.831  16.278  1.5618 -0.5903 -0.1559
13412TIP3   OH261650   6.328   3.915  16.309 -0.0920  0.3524  0.2352
13412TIP3    H161651   6.323   3.951  16.398 -0.5072  1.7820 -0.3426
13412TIP3    H261652   6.420   3.888  16.299 -0.1130 -0.0809  1.1945
13413TIP3   OH261653   2.138   6.162   2.849 -0.0276  0.6564  0.9032
13413TIP3    H161654   2.210   6.195   2.901  1.0200 -0.3593  0.1177
13413TIP3    H261655   2.177   6.095   2.794 -1.4541  0.5118  0.0448
13414TIP3   OH261656   4.167   2.967  11.551  0.0090 -0.3627 -0.7576
13414TIP3    H161657   4.115   2.924  11.619  1.2308  0.5349  0.7864
13414TIP3    H261658   4.143   3.060  11.559 -0.4580 -0.3672 -2.1130
13415TIP3   OH261659   4.348   0.664   4.261 -0.0601  0.0403 -0.1580
13415TIP3    H161660   4.353   0.595   4.327 -1.1482 -0.0777 -0.1911
13415TIP3    H261661   4.285   0.727   4.297  0.7844  0.9245 -0.2112
13416TIP3   OH261662   5.431   1.384  15.801 -0.8202 -0.0017  0.6242
13416TIP3    H161663   5.399   1.415  15.716  0.2408 -0.4977  0.0333
13416TIP3    H261664   5.456   1.464  15.848 -2.2310  0.3348  0.8158
13417TIP3   OH261665   6.641   5.186   4.431  0.7783  0.0509  1.0059
13417TIP3    H161666   6.691   5.105   4.443  0.1076 -0.5112  0.0720
13417TIP3    H261667   6.699   5.255   4.463  0.9016 -0.9116  2.9093
13418TIP3   OH261668   4.544   1.345   5.440 -0.3683  0.1093  0.3181
13418TIP3    H161669   4.557   1.437   5.416 -1.4221 -0.0764 -0.9991
13418TIP3    H261670   4.538   1.299   5.357 -0.9591 -0.9920  0.9579
13419TIP3   OH261671   0.144   4.782  11.640  0.0449 -0.4422 -0.0902
13419TIP3    H161672   0.111   4.693  11.625  0.9773 -0.6369 -1.0632
13419TIP3    H261673   0.221   4.788  11.584  0.5725  0.6442  0.7446
13420TIP3   OH261674   1.132   2.441  15.458  0.0318 -0.7143 -0.5918
13420TIP3    H161675   1.108   2.443  15.551  0.1238 -0.0592 -0.5842
13420TIP3    H261676   1.228   2.442  15.458  0.0316  2.4890 -0.7656
13421TIP3   OH261677   1.740   3.213   4.444 -0.4863 -0.2369  0.6023
13421TIP3    H161678   1.786   3.130   4.433 -1.1702 -0.5506  0.0840
13421TIP3    H261679   1.776   3.269   4.375  0.8480  0.2954  1.7084
13422TIP3   OH261680   3.474   0.211   0.738  0.4608 -0.5657  0.0675
13422TIP3    H161681   3.447   0.236   0.826 -0.2321  1.4105 -0.6625
13422TIP3    H261682   3.409   0.147   0.710 -0.5923  0.4298  0.1995
13423TIP3   OH261683   6.161   4.207   3.699 -0.3959  0.0751 -0.2962
13423TIP3    H161684   6.202   4.180   3.616 -0.3343  0.4144 -0.3777
13423TIP3    H261685   6.155   4.302   3.692 -0.8632  0.0603 -0.1278
13424TIP3   OH261686   5.306   3.123   4.998  0.0071  0.2950  0.1681
13424TIP3    H161687   5.259   3.187   5.051 -1.7425 -1.9187  1.4244
13424TIP3    H261688   5.238   3.083   4.943  1.2670  0.3436 -1.4451
13425TIP3   OH261689   5.917   2.330  14.893 -0.2637 -0.1970 -0.0172
13425TIP3    H161690   5.899   2.393  14.823  1.0092 -0.1822 -0.3363
13425TIP3    H261691   5.838   2.277  14.898 -1.0751  0.9582 -0.2353
13426TIP3   OH261692   3.598   5.007  13.032 -0.5379 -0.2047  0.4880
13426TIP3    H161693   3.521   5.005  13.089 -1.1193  1.0584 -0.2330
13426TIP3    H261694   3.645   5.085  13.059 -0.1061 -0.3484  0.1513
13427TIP3   OH261695   6.082   3.454  11.288 -0.0660 -0.4655 -0.6720
13427TIP3    H161696   6.090   3.374  11.237  0.7420  0.0922 -1.4445
13427TIP3    H261697   6.155   3.509  11.258 -0.8696  0.7328 -0.4918
13428TIP3   OH261698   5.748   5.607  15.836 -0.0599 -0.0675 -0.0461
13428TIP3    H161699   5.668   5.607  15.784 -0.3316  2.1108  0.3167
13428TIP3    H261700   5.726   5.555  15.914 -0.6938 -0.5621 -0.5523
13429TIP3   OH261701   5.482   1.917   6.365  0.5443 -0.0131  0.4302
13429TIP3    H161702   5.467   1.846   6.427  1.1501 -0.3330  0.2170
13429TIP3    H261703   5.556   1.965   6.401  0.2256  0.4201  0.4985
13430TIP3   OH261704   4.477   3.146  12.029 -0.4371 -0.8594  0.0378
13430TIP3    H161705   4.509   3.155  12.118  0.3287 -1.5429 -0.1695
13430TIP3    H261706   4.521   3.216  11.980 -2.0422  0.5303  0.4972
13431TIP3   OH261707   3.338   1.288   0.108 -0.2127  0.4470  0.9029
13431TIP3    H161708   3.424   1.325   0.125 -0.9015  1.5143  2.1315
13431TIP3    H261709   3.277   1.359   0.128 -1.4123 -0.5247  0.7301
13432TIP3   OH261710   1.239   2.998   5.187  0.4451  0.0187  0.5172
13432TIP3    H161711   1.311   2.946   5.222  0.1626 -0.6197  0.1600
13432TIP3    H261712   1.193   2.939   5.128 -0.3359  0.4353  0.6918
13433TIP3   OH261713   6.228   3.997  17.034 -0.1847  0.5243  0.3304
13433TIP3    H161714   6.275   3.914  17.023  0.1797  0.7133  0.4439
13433TIP3    H261715   6.296   4.064  17.026 -0.5869  0.8470 -0.4746
13434TIP3   OH261716   0.418   5.433  11.357 -0.4812 -0.4525  0.6133
13434TIP3    H161717   0.350   5.483  11.402  1.1196  2.1584  0.2400
13434TIP3    H261718   0.470   5.394  11.428 -1.6383 -1.4659  0.9128
13435TIP3   OH261719   0.353   6.191  13.374  0.1055  0.0057  0.2038
13435TIP3    H161720   0.277   6.137  13.351 -1.0750  1.0936  1.3683
13435TIP3    H261721   0.394   6.144  13.447  1.1625 -1.1118 -1.1092
13436TIP3   OH261722   6.080   2.421  16.363  0.0644 -0.3419 -0.5020
13436TIP3    H161723   6.100   2.342  16.413  1.6597  0.0189 -0.5416
13436TIP3    H261724   6.079   2.393  16.272 -2.3059 -0.8905 -0.3390
13437TIP3   OH261725   4.934   3.518  11.975  0.1135 -0.2876  0.2268
13437TIP3    H161726   5.010   3.461  11.961 -0.2014 -1.2467  2.2105
13437TIP3    H261727   4.861   3.457  11.989 -0.9896  0.6237 -1.4499
13438TIP3   OH261728   5.421   1.964   4.473  0.2201  0.6406 -0.0188
13438TIP3    H161729   5.372   2.034   4.517  1.5074  1.0176  0.8638
13438TIP3    H261730   5.409   1.982   4.380 -1.0666  0.8903  0.1852
13439TIP3   OH261731   3.591   1.600  13.381  0.1187 -0.2821 -0.2534
13439TIP3    H161732   3.515   1.614  13.437 -0.4245 -0.0509 -1.0405
13439TIP3    H261733   3.642   1.533  13.426  1.8820  2.8728  2.6918
13440TIP3   OH261734   1.786   1.773  16.142  0.0356 -0.4948 -0.3986
13440TIP3    H161735   1.844   1.717  16.090  2.0845  0.2812  0.9891
13440TIP3    H261736   1.819   1.861  16.128 -0.1087 -0.1519  1.2745
13441TIP3   OH261737   3.111   0.680  12.298  0.2631  0.0055  0.4484
13441TIP3    H161738   3.157   0.674  12.215 -0.2826 -0.2708  0.1585
13441TIP3    H261739   3.029   0.725  12.277  1.4892  2.8120  1.4175
13442TIP3   OH261740   2.218   4.964   6.019 -0.4682  0.3949  0.2247
13442TIP3    H161741   2.289   4.978   6.081 -0.7737  2.7104  0.0667
13442TIP3    H261742   2.212   5.045   5.970 -1.0434 -0.9559 -2.0345
13443TIP3   OH261743   6.044   0.555   2.302  0.9178 -0.1319 -0.0727
13443TIP3    H161744   6.029   0.461   2.304 -1.9791  0.2812  0.8416
13443TIP3    H261745   5.987   0.587   2.232  0.2706  1.1654  1.0180
13444TIP3   OH261746   6.125   0.985   2.829  0.3228 -0.1745  0.6316
13444TIP3    H161747   6.062   1.057   2.836 -1.2142 -1.4276  0.1565
13444TIP3    H261748   6.200   1.013   2.880 -0.1059  1.9164  0.1622
13445TIP3   OH261749   5.918   4.358  16.459 -0.4299  0.0395 -0.6462
13445TIP3    H161750   5.823   4.367  16.467 -0.1456  3.3800 -0.2702
13445TIP3    H261751   5.949   4.447  16.444  2.8569 -0.7125  1.2350
13446TIP3   OH261752   0.974   2.158  13.491 -0.1937  0.2008 -0.5685
13446TIP3    H161753   0.889   2.160  13.535 -0.1334  2.3254 -0.4843
13446TIP3    H261754   1.009   2.071  13.509 -2.3215 -0.6845 -0.5547
13447TIP3   OH261755   3.936   1.951  16.984 -0.0801  0.2492  0.2654
13447TIP3    H161756   3.867   1.954  17.049 -0.8503  0.7210 -0.5688
13447TIP3    H261757   3.912   2.018  16.920  0.8427  0.0234 -0.3297
13448TIP3   OH261758   3.661   3.981  12.999  0.1178 -0.1765 -0.7843
13448TIP3    H161759   3.705   4.066  12.995 -0.3092  0.0706 -0.3403
13448TIP3    H261760   3.702   3.929  12.930  1.4486 -0.1107 -0.0618
13449TIP3   OH261761   1.271   6.650   3.951  0.1642  0.1075  0.3645
13449TIP3    H161762   1.195   6.703   3.930  0.3500 -0.1653 -1.0497
13449TIP3    H261763   1.237   6.560   3.955  0.6951 -0.2430 -2.0476
13450TIP3   OH261764   4.791   2.917   4.730 -0.4355 -0.3851 -0.3319
13450TIP3    H161765   4.749   2.832   4.714 -0.6022 -0.2796 -0.4517
13450TIP3    H261766   4.801   2.921   4.825 -0.8857 -0.3204 -0.2849
13451TIP3   OH261767   3.446   6.054  15.584 -0.3062  0.3406  0.0265
13451TIP3    H161768   3.393   6.079  15.660 -1.7587 -1.0967 -0.4734
13451TIP3    H261769   3.500   5.982  15.616 -1.2747 -0.5994 -0.3939
13452TIP3   OH261770   6.016   3.619  11.499  0.1147  0.4739  0.7020
13452TIP3    H161771   5.948   3.686  11.485 -2.1032 -2.0325 -1.0134
13452TIP3    H261772   6.005   3.558  11.427  2.1787 -1.7096  2.1435
13453TIP3   OH261773   6.724   3.851  12.698 -0.2741 -0.9041  0.0392
13453TIP3    H161774   6.684   3.890  12.620  1.3344 -1.0155 -0.8698
13453TIP3    H261775   6.803   3.903  12.714 -0.4521 -1.0390  1.4576
13454TIP3   OH261776   1.968   1.753  11.624  0.0934 -0.4669  0.1826
13454TIP3    H161777   2.040   1.690  11.632 -0.5819 -1.1435  1.1463
13454TIP3    H261778   1.889   1.698  11.623 -0.5168  0.3785  1.1784
13455TIP3   OH261779   1.096   2.446  11.969  0.8286  0.0190 -0.3200
13455TIP3    H161780   1.107   2.533  12.007 -0.1339  0.5822 -1.3211
13455TIP3    H261781   1.003   2.441  11.947  0.8975 -1.2286 -0.3478
13456TIP3   OH261782   1.116   1.059   2.655 -0.3316 -0.4707 -0.0894
13456TIP3    H161783   1.025   1.053   2.627 -0.2109 -0.9696 -0.3860
13456TIP3    H261784   1.158   0.983   2.616 -0.3521 -1.6928  2.1862
13457TIP3   OH261785   4.325   2.979   3.150 -0.3080  0.0744  0.1899
13457TIP3    H161786   4.397   2.916   3.158  0.4151  0.6926 -1.3725
13457TIP3    H261787   4.367   3.065   3.154 -1.1422  0.4578  0.8651
13458TIP3   OH261788   2.374   3.396   3.909 -0.0525  0.5398  0.2718
13458TIP3    H161789   2.299   3.428   3.859 -0.2965 -0.2773  0.0998
13458TIP3    H261790   2.449   3.443   3.873 -0.2073 -0.1113 -0.9617
13459TIP3   OH261791   5.536   4.745  12.129 -0.1328 -0.6683  0.3161
13459TIP3    H161792   5.602   4.758  12.061  0.0311  0.3023  0.6646
13459TIP3    H261793   5.547   4.818  12.189  0.2221 -1.9105  1.8197
13460TIP3   OH261794   3.321   2.124   6.047 -0.0567 -0.2502  0.0592
13460TIP3    H161795   3.325   2.168   6.131  0.3005  0.4122 -0.2981
13460TIP3    H261796   3.228   2.106   6.033 -0.1871  0.2486  0.2826
13461TIP3   OH261797   3.995   3.704   5.113 -0.4893 -0.5854 -0.5660
13461TIP3    H161798   4.041   3.622   5.132 -0.6842 -0.6129 -0.2023
13461TIP3    H261799   4.004   3.715   5.019  1.0799 -0.0970 -0.3606
13462TIP3   OH261800   0.709   1.909   2.566 -0.0293 -0.5717  0.2193
13462TIP3    H161801   0.662   1.880   2.643 -0.5783 -1.3497 -0.4005
13462TIP3    H261802   0.800   1.881   2.581  0.3078  1.1140  1.5036
13463TIP3   OH261803   2.719   2.410   3.729  0.2700 -0.6089 -0.3622
13463TIP3    H161804   2.751   2.391   3.641  0.6189 -0.8357 -0.1897
13463TIP3    H261805   2.656   2.481   3.718 -0.3494 -1.2362 -0.8989
13464TIP3   OH261806   2.012   1.190  14.044 -0.3377 -1.0857  0.5999
13464TIP3    H161807   2.086   1.246  14.067 -0.5830 -0.4905 -0.0534
13464TIP3    H261808   1.939   1.224  14.096 -0.9261  0.3479 -1.1024
13465TIP3   OH261809   6.307   0.531   3.205 -0.3170  0.2736 -0.1853
13465TIP3    H161810   6.392   0.516   3.245 -0.8889  2.5007  1.9669
13465TIP3    H261811   6.327   0.578   3.123  0.5354  0.3752  0.0784
13466TIP3   OH261812   5.900   0.286   5.773  0.2371  0.4405 -0.4359
13466TIP3    H161813   5.871   0.375   5.794  1.3610  0.3402  1.6874
13466TIP3    H261814   5.964   0.266   5.841  1.1376 -1.4202 -1.8164
13467TIP3   OH261815   3.729   3.986   4.558 -0.0349  0.0011  0.2119
13467TIP3    H161816   3.732   3.901   4.602  2.0616  0.4200  0.9231
13467TIP3    H261817   3.796   3.981   4.490 -0.2479  0.9214 -0.0808
13468TIP3   OH261818   5.979   6.597   4.515 -0.9160  0.2980  0.0481
13468TIP3    H161819   5.993   6.655   4.440 -0.8373  0.5918  0.2862
13468TIP3    H261820   5.888   6.610   4.539 -1.4306 -1.1393 -1.1068
13469TIP3   OH261821   2.266   2.935  13.030  0.3907 -0.4630 -0.3312
13469TIP3    H161822   2.302   2.906  12.946  0.4395 -2.2754  0.2985
13469TIP3    H261823   2.181   2.973  13.008  0.1447 -1.4702 -1.1355
13470TIP3   OH261824   0.683   5.082   3.968 -0.5239 -0.7511 -0.3631
13470TIP3    H161825   0.774   5.092   3.996 -0.8475 -1.7372  1.0806
13470TIP3    H261826   0.637   5.153   4.012 -0.9404 -1.9848  1.2372
13471TIP3   OH261827   3.671   2.323  16.121  0.4108  0.1724  0.7106
13471TIP3    H161828   3.765   2.317  16.137  0.8701 -1.4394 -2.2319
13471TIP3    H261829   3.655   2.416  16.106  1.5895  0.4056  0.9070
13472TIP3   OH261830   2.879   2.375  13.828  0.1300  0.2686 -0.6580
13472TIP3    H161831   2.909   2.309  13.891  0.6889 -0.1699 -1.3713
13472TIP3    H261832   2.785   2.381  13.843  0.1690 -0.2560 -0.1735
13473TIP3   OH261833   0.067   5.234   3.721 -0.5244 -0.2570 -0.1352
13473TIP3    H161834   0.025   5.215   3.637 -2.2200 -1.7231  0.9939
13473TIP3    H261835   0.029   5.170   3.781 -0.7583  1.9721  2.1668
13474TIP3   OH261836   0.671   5.786  10.874  0.1588 -0.0886  0.4848
13474TIP3    H161837   0.583   5.826  10.874  0.9332  1.6440 -0.1409
13474TIP3    H261838   0.731   5.860  10.870  1.6456 -1.3419 -0.9487
13475TIP3   OH261839   5.075   2.659   4.728  0.3154 -0.0082  0.1742
13475TIP3    H161840   5.066   2.580   4.782  0.5884 -1.7535 -2.2488
13475TIP3    H261841   5.024   2.640   4.649 -1.6928  3.2781  0.6230
13476TIP3   OH261842   5.403   4.707   0.190 -0.3354  0.0321  0.6116
13476TIP3    H161843   5.337   4.643   0.212 -1.2599  1.1684  1.1924
13476TIP3    H261844   5.354   4.781   0.154  0.8125 -0.1449 -1.4082
13477TIP3   OH261845   4.501   0.666  10.669 -0.5516  0.3961  0.2498
13477TIP3    H161846   4.485   0.732  10.737 -1.3442  1.2339 -0.7384
13477TIP3    H261847   4.415   0.629  10.651 -0.5599  1.1033 -1.2226
13478TIP3   OH261848   4.706   1.137   2.747  0.0861 -0.1195 -0.0002
13478TIP3    H161849   4.733   1.217   2.790 -1.2761  0.3409  0.0060
13478TIP3    H261850   4.760   1.069   2.787 -0.8610  0.3574  2.1128
13479TIP3   OH261851   1.499   1.502   2.989  0.0181  0.2127 -0.5023
13479TIP3    H161852   1.592   1.482   2.983 -0.5234 -2.0734 -2.1909
13479TIP3    H261853   1.480   1.553   2.910 -0.0456  1.2284  0.1612
13480TIP3   OH261854   2.404   1.350   3.903 -0.3934  0.1692 -0.4844
13480TIP3    H161855   2.361   1.432   3.928 -1.6058 -0.3052 -0.9615
13480TIP3    H261856   2.470   1.376   3.838  0.1737  0.9330  0.3977
13481TIP3   OH261857   3.241   6.681   5.813  0.4245  0.2661 -0.2909
13481TIP3    H161858   3.227   6.766   5.771  0.6767 -0.1000 -1.1118
13481TIP3    H261859   3.181   6.682   5.888 -0.3174  0.7554 -0.8774
13482TIP3   OH261860   1.097   3.674  12.273  0.1681 -0.4598  0.1300
13482TIP3    H161861   1.165   3.626  12.322  1.1880 -0.4714 -1.2508
13482TIP3    H261862   1.068   3.612  12.206 -1.4510 -0.5620  0.9179
13483TIP3   OH261863   6.089   6.392  14.718  0.1017  0.1151  0.4316
13483TIP3    H161864   6.125   6.459  14.776 -2.3793  1.5568  0.4191
13483TIP3    H261865   6.127   6.310  14.749  0.0421  1.0431  3.1445
13484TIP3   OH261866   6.735   4.153  11.548 -0.5684  0.4269  0.5538
13484TIP3    H161867   6.659   4.110  11.509  2.6078 -3.4328 -1.7524
13484TIP3    H261868   6.756   4.223  11.486 -3.0328  2.5250  1.9814
13485TIP3   OH261869   0.530   1.421   5.650  0.8521  0.3384  0.1105
13485TIP3    H161870   0.519   1.362   5.724 -0.2118  0.3034 -0.0641
13485TIP3    H261871   0.462   1.488   5.662  0.2339 -0.0473 -1.1874
13486TIP3   OH261872   4.383   3.100  15.889  0.0592  0.1122  0.2829
13486TIP3    H161873   4.455   3.161  15.904 -0.2591  0.4185  0.5870
13486TIP3    H261874   4.397   3.030  15.953 -0.0513  0.2956  0.5078
13487TIP3   OH261875   3.177   2.245   1.842 -0.0891 -0.5270  0.2232
13487TIP3    H161876   3.102   2.243   1.782  1.3762  2.1383 -1.8177
13487TIP3    H261877   3.167   2.327   1.890 -0.3689 -1.8806  2.5176
13488TIP3   OH261878   6.040   2.607   2.145 -0.7169 -0.4877 -0.5069
13488TIP3    H161879   6.109   2.604   2.211 -2.2652 -0.6907  1.1248
13488TIP3    H261880   5.989   2.686   2.166 -0.6881 -0.0494 -2.0090
13489TIP3   OH261881   0.986   5.330   3.553  0.1168 -0.3134  0.0595
13489TIP3    H161882   0.969   5.286   3.469  1.2429 -0.5999 -0.0319
13489TIP3    H261883   1.026   5.414   3.528  2.1143 -1.1421  0.3182
13490TIP3   OH261884   5.442   0.988  13.542  0.2596 -0.3159 -0.3443
13490TIP3    H161885   5.426   0.978  13.636  0.2594 -0.1962 -0.3320
13490TIP3    H261886   5.486   0.906  13.517  1.1129  0.0495 -0.0552
13491TIP3   OH261887   5.768   4.680   4.593 -0.3815  0.2565 -0.6595
13491TIP3    H161888   5.795   4.591   4.571 -0.8861  0.0385 -0.4190
13491TIP3    H261889   5.773   4.728   4.510  1.9429  0.5499 -0.3762
13492TIP3   OH261890   6.375   3.282  11.478 -0.2159 -0.5324 -0.1811
13492TIP3    H161891   6.290   3.322  11.498  0.1430  0.1723 -0.0278
13492TIP3    H261892   6.424   3.287  11.561  0.6549  0.8073 -0.7658
13493TIP3   OH261893   4.191   6.742  14.588  0.1998 -0.1838  0.0647
13493TIP3    H161894   4.105   6.783  14.585  0.3638  0.3298  1.7708
13493TIP3    H261895   4.228   6.771  14.672  1.9437 -0.5555 -0.5604
13494TIP3   OH261896   2.292   6.010  12.567 -0.1074  0.0414 -0.1826
13494TIP3    H161897   2.349   6.030  12.493 -1.3329  1.9128 -0.6610
13494TIP3    H261898   2.349   6.013  12.644  0.6689  0.6882 -0.7826
13495TIP3   OH261899   5.499   3.824  14.079 -0.0964 -0.2683 -0.1408
13495TIP3    H161900   5.475   3.858  13.993  1.5443 -2.5308 -1.5434
13495TIP3    H261901   5.450   3.742  14.087  0.0766 -0.2768  0.9117
13496TIP3   OH261902   5.020   3.852  12.671  0.5934  0.2728 -0.4016
13496TIP3    H161903   5.026   3.760  12.645  0.8387  0.5327 -1.2950
13496TIP3    H261904   5.110   3.878  12.690  0.6267  0.5368 -0.9078
13497TIP3   OH261905   2.701   5.097  14.434  0.6798  0.0920  0.8919
13497TIP3    H161906   2.776   5.079  14.377  1.1972 -0.0273  1.5909
13497TIP3    H261907   2.669   5.182  14.405 -0.6686 -1.0978 -1.2652
13498TIP3   OH261908   2.025   2.621   4.170  0.3286 -0.5253  0.3649
13498TIP3    H161909   2.026   2.544   4.228  0.1605 -0.7040  0.1337
13498TIP3    H261910   2.110   2.621   4.127  1.0841  0.5386  1.8207
13499TIP3   OH261911   0.438   0.885   5.767  0.0550  0.2067 -0.1048
13499TIP3    H161912   0.501   0.827   5.725  0.9723  2.0159 -1.2894
13499TIP3    H261913   0.488   0.931   5.834 -0.0803  1.3167 -0.7469
13500TIP3   OH261914   0.732   2.107   3.800 -0.3847  0.6923 -0.0725
13500TIP3    H161915   0.722   2.094   3.706  0.7183 -0.6475 -0.0194
13500TIP3    H261916   0.726   2.202   3.812 -0.0157  0.9120 -1.5506
13501TIP3   OH261917   1.465   4.582  11.750  0.1298 -0.0885  0.3719
13501TIP3    H161918   1.499   4.511  11.806 -0.3392  0.0529  0.8390
13501TIP3    H261919   1.371   4.565  11.745  0.1811 -0.1268 -0.4193
13502TIP3   OH261920   0.587   5.950   0.810  0.4010 -0.0293  0.2456
13502TIP3    H161921   0.628   5.864   0.803  1.6806  0.4890  1.1173
13502TIP3    H261922   0.494   5.932   0.819  0.9442 -1.4468  3.5352
13503TIP3   OH261923   6.389   4.763  12.135 -0.3450  0.6666  0.4299
13503TIP3    H161924   6.353   4.720  12.058 -0.7802  0.3542  0.8003
13503TIP3    H261925   6.472   4.801  12.106  0.0601 -0.4595  0.1068
13504TIP3   OH261926   3.563   2.699  15.795  0.4074 -0.4613  0.2381
13504TIP3    H161927   3.540   2.792  15.793 -0.8853 -0.7525  1.3940
13504TIP3    H261928   3.582   2.677  15.703  1.5771  1.1399  0.0707
13505TIP3   OH261929   4.635   2.016   1.294 -0.1316  0.5367  0.5498
13505TIP3    H161930   4.616   1.929   1.260  0.8364  1.2917 -2.1197
13505TIP3    H261931   4.549   2.057   1.304 -0.5705 -0.5714  1.4578
13506TIP3   OH261932   3.334   4.775   3.981 -0.0389 -0.4671  0.6428
13506TIP3    H161933   3.347   4.870   3.989  2.3733 -0.7303  0.1900
13506TIP3    H261934   3.399   4.747   3.917  0.1795 -2.6400  1.7722
13507TIP3   OH261935   0.733   6.119  13.425  0.4491  0.0878  0.0199
13507TIP3    H161936   0.789   6.077  13.359 -1.2594 -0.0287 -1.4089
13507TIP3    H261937   0.684   6.047  13.464 -0.9432  0.4655 -0.9500
13508TIP3   OH261938   0.351   6.519   3.014  0.2253  0.2106  0.1077
13508TIP3    H161939   0.294   6.469   2.955 -1.3138  0.7935  1.0734
13508TIP3    H261940   0.353   6.607   2.977 -0.2660  0.4264  0.5807
13509TIP3   OH261941   1.692   6.384   3.777  0.7322  0.1887  0.5743
13509TIP3    H161942   1.737   6.349   3.701  0.4363 -0.7623  0.8278
13509TIP3    H261943   1.606   6.411   3.744  1.0930  1.0215  0.3057
13510TIP3   OH261944   2.595   4.159  14.506  0.1124  0.2810  0.8885
13510TIP3    H161945   2.662   4.121  14.562  2.6720  0.1864 -2.1064
13510TIP3    H261946   2.569   4.088  14.447  0.3338  1.4018 -0.5963
13511TIP3   OH261947   0.027   1.905   4.481 -0.1980 -0.3014  0.4494
13511TIP3    H161948  -0.050   1.880   4.429  1.2628  0.5451 -2.2055
13511TIP3    H261949   0.080   1.957   4.421  2.4671 -0.9053  2.2200
13512TIP3   OH261950   6.232   1.642   2.533  0.3641 -0.4518  0.6111
13512TIP3    H161951   6.298   1.668   2.597  1.7147 -0.9948 -0.5448
13512TIP3    H261952   6.276   1.578   2.478 -1.4526 -1.5725  0.4416
13513TIP3   OH261953   4.984   4.742   0.690 -0.3987  0.2998 -0.1738
13513TIP3    H161954   4.895   4.749   0.654 -0.6522 -0.9706  0.1736
13513TIP3    H261955   4.990   4.814   0.752  0.0469  2.5250 -2.6932
13514TIP3   OH261956   1.307   5.220   5.922  0.0151 -0.8340  0.4174
13514TIP3    H161957   1.378   5.228   5.985 -0.0428 -0.4171  0.4273
13514TIP3    H261958   1.239   5.171   5.969  0.6629 -2.0511  0.0973
13515TIP3   OH261959   3.065   5.947   6.111  0.4236 -0.1663 -0.2443
13515TIP3    H161960   3.152   5.927   6.145  0.9538  3.4984  0.7795
13515TIP3    H261961   3.077   5.952   6.016  1.6580  1.5277 -0.0264
13516TIP3   OH261962   1.692   2.418  12.620  0.4007  0.2381 -0.3493
13516TIP3    H161963   1.711   2.371  12.539  1.7608  1.0283 -0.5074
13516TIP3    H261964   1.602   2.448  12.611  0.4355  0.0233 -1.4180
13517TIP3   OH261965   2.421   6.402   5.504  1.0340 -0.1324  0.4663
13517TIP3    H161966   2.503   6.361   5.477  1.1980 -0.1368  0.9616
13517TIP3    H261967   2.412   6.477   5.446  2.3653  0.9785  1.6424
13518TIP3   OH261968   0.912   0.250   3.442 -0.3609 -0.1785 -0.0077
13518TIP3    H161969   0.964   0.303   3.503 -0.7595 -0.5589  0.6672
13518TIP3    H261970   0.947   0.272   3.355  0.4208  0.1272  0.3818
13519TIP3   OH261971   0.627   2.743  12.249 -0.1626  0.7170  0.4688
13519TIP3    H161972   0.641   2.684  12.323 -1.2147  2.1035  1.8117
13519TIP3    H261973   0.532   2.756  12.246 -0.2983 -0.4408 -2.0474
13520TIP3   OH261974   0.841   6.531   5.917 -0.9217  0.1357 -0.8301
13520TIP3    H161975   0.912   6.490   5.967 -1.1245 -0.0658 -0.7119
13520TIP3    H261976   0.767   6.534   5.978 -1.0262  0.3196 -0.9651
13521TIP3   OH261977   2.266   1.711  15.842 -0.0579  0.0978  0.4179
13521TIP3    H161978   2.354   1.675  15.826 -0.1243  0.0043  0.2626
13521TIP3    H261979   2.255   1.704  15.937  0.7766  1.6574  0.6481
13522TIP3   OH261980   2.724   1.681   0.206  0.0909 -0.0029 -0.6292
13522TIP3    H161981   2.691   1.712   0.123  0.1133 -0.1742 -0.7022
13522TIP3    H261982   2.815   1.712   0.209  0.0342  0.1567 -0.5889
13523TIP3   OH261983   5.116   2.042  12.246 -0.1981  0.4310  0.0051
13523TIP3    H161984   5.138   2.122  12.197 -0.1132  0.1271 -0.4517
13523TIP3    H261985   5.042   2.005  12.199 -0.4802  0.4391  0.4432
13524TIP3   OH261986   0.870   2.041  16.304 -0.0326  0.0298 -1.1779
13524TIP3    H161987   0.955   2.004  16.280  0.5950 -1.0535  2.3710
13524TIP3    H261988   0.809   1.968  16.298  0.7301 -1.1586  3.2848
13525TIP3   OH261989   6.612   1.255  14.447  0.7006  0.0214  0.6213
13525TIP3    H161990   6.614   1.194  14.520  0.8613 -0.4345  0.2394
13525TIP3    H261991   6.528   1.301  14.456  0.5045 -0.3710  0.8172
13526TIP3   OH261992   3.417   5.996   4.774 -0.3583 -0.3916  0.1308
13526TIP3    H161993   3.452   6.083   4.794  0.9966 -1.0329  0.6215
13526TIP3    H261994   3.344   6.012   4.714  1.2298  0.9311 -1.5071
13527TIP3   OH261995   0.903   5.403   2.857 -0.2239  0.1223 -0.4458
13527TIP3    H161996   0.928   5.398   2.765 -1.8954  0.0164 -0.8977
13527TIP3    H261997   0.951   5.478   2.891 -0.7481  1.0629 -1.7672
13528TIP3   OH261998   0.368   6.423  15.354  0.0574 -0.1038 -0.0340
13528TIP3    H161999   0.279   6.448  15.381  1.6625  3.8962  2.1376
13528TIP3    H262000   0.402   6.501  15.310  2.2478 -1.8707 -1.5793
13529TIP3   OH262001   1.660   3.261   0.494  0.0466  0.6141  0.0872
13529TIP3    H162002   1.601   3.255   0.419 -0.4200 -1.4530  0.6002
13529TIP3    H262003   1.725   3.327   0.468  0.1207 -0.3539 -2.3011
13530TIP3   OH262004   6.644   5.431  15.463  0.3520  0.3241  0.1156
13530TIP3    H162005   6.601   5.404  15.544  0.7738  0.8021  0.5067
13530TIP3    H262006   6.736   5.406  15.476  0.3684  0.1671 -0.3180
13531TIP3   OH262007   5.210   6.210  11.438 -0.3707  0.0383  0.7908
13531TIP3    H162008   5.205   6.145  11.369  1.3477  1.5001 -0.7749
13531TIP3    H262009   5.272   6.174  11.501 -3.3730 -2.1597  2.5901
13532TIP3   OH262010   0.717   2.910   2.894  0.2335 -0.1087  0.1787
13532TIP3    H162011   0.682   2.895   2.982 -1.4184 -1.2855 -0.6668
13532TIP3    H262012   0.787   2.974   2.907  1.3411 -1.7368  2.6444
13533TIP3   OH262013   1.411   4.693  15.526  0.1451 -0.3332  0.9434
13533TIP3    H162014   1.420   4.703  15.431  0.7036 -1.3988  0.8819
13533TIP3    H262015   1.387   4.781  15.557  0.8844  0.2363 -0.0659
13534TIP3   OH262016   5.267   3.957   3.499  0.1425 -0.0843  0.7197
13534TIP3    H162017   5.303   3.881   3.454  0.5785 -0.5818  1.8706
13534TIP3    H262018   5.189   3.980   3.450  1.2342  0.1192 -0.9665
13535TIP3   OH262019   3.166   6.596  15.139 -0.2025 -0.2225  0.5896
13535TIP3    H162020   3.096   6.657  15.117  0.5745  0.5152  0.1491
13535TIP3    H262021   3.205   6.572  15.054 -1.8330 -2.9431  0.5585
13536TIP3   OH262022   1.443   4.685  14.746  0.2455 -0.4050  0.2966
13536TIP3    H162023   1.454   4.774  14.711  3.7053 -0.9698 -0.2585
13536TIP3    H262024   1.393   4.696  14.827 -0.7571  1.8488 -0.6014
13537TIP3   OH262025   0.546   2.752   0.003  0.0452  0.0311  0.3143
13537TIP3    H162026   0.503   2.677  -0.038  2.1659 -0.9048 -0.2763
13537TIP3    H262027   0.640   2.732  -0.002  0.5791  2.0685  1.4272
13538TIP3   OH262028   5.142   2.346  12.324 -0.3582  0.6914  0.3991
13538TIP3    H162029   5.102   2.291  12.256 -0.2178  1.9389 -0.7177
13538TIP3    H262030   5.203   2.288  12.369 -0.2800 -0.0947 -0.6940
13539TIP3   OH262031   5.786   4.444   2.298 -0.2722  0.1952  0.0918
13539TIP3    H162032   5.691   4.436   2.308 -0.8480  3.6476 -1.8131
13539TIP3    H262033   5.809   4.384   2.227 -1.2655  0.4138 -0.4182
13540TIP3   OH262034   0.263   1.808  15.394  0.5687  0.2902 -0.3132
13540TIP3    H162035   0.184   1.757  15.378  0.7246  0.6534 -2.4204
13540TIP3    H262036   0.322   1.747  15.438 -0.5931 -0.2062  0.6077
13541TIP3   OH262037   2.895   3.777   2.469 -0.6784  0.0536 -0.5659
13541TIP3    H162038   2.937   3.694   2.493 -0.7652  0.0979 -0.2593
13541TIP3    H262039   2.953   3.815   2.403 -0.4439 -0.0755 -0.4347
13542TIP3   OH262040   0.060   6.467   2.632 -0.2593  0.3553  0.3612
13542TIP3    H162041   0.030   6.491   2.544 -0.6038  2.1161  0.9444
13542TIP3    H262042  -0.020   6.462   2.684 -0.0637 -0.7900  0.5576
13543TIP3   OH262043   2.780   3.822   5.179  0.1173  0.1531 -0.0129
13543TIP3    H162044   2.787   3.818   5.084 -3.2419  0.1220 -0.3190
13543TIP3    H262045   2.783   3.730   5.206  1.6457  0.1862  0.0139
13544TIP3   OH262046   3.283   2.163  16.413  0.3010  0.5096 -0.2790
13544TIP3    H162047   3.221   2.151  16.485  0.6431  1.6882  0.2236
13544TIP3    H262048   3.262   2.250  16.378  1.3820  0.7316 -0.3841
13545TIP3   OH262049   6.422   5.210   3.397 -0.2369 -0.9294 -0.0678
13545TIP3    H162050   6.334   5.203   3.361 -0.5147 -1.4301  0.6816
13545TIP3    H262051   6.441   5.303   3.399 -1.2134 -0.7353  0.8396
13546TIP3   OH262052   5.339   2.163   2.121  0.3902 -0.4083  0.0161
13546TIP3    H162053   5.304   2.172   2.032  2.1902  0.8473 -0.6012
13546TIP3    H262054   5.350   2.069   2.134  0.9216 -0.5550 -1.4180
13547TIP3   OH262055   3.485   0.137   4.218 -0.3569 -0.4883 -0.3543
13547TIP3    H162056   3.463   0.230   4.212 -0.1534 -0.4294 -0.2177
13547TIP3    H262057   3.459   0.112   4.307 -0.1382 -0.4877 -0.2890
13548TIP3   OH262058   4.483   2.180   0.816  0.0054 -0.5187  0.3056
13548TIP3    H162059   4.501   2.274   0.823 -1.5686 -0.2223  0.5886
13548TIP3    H262060   4.403   2.175   0.764  0.6823 -1.7714 -0.6416
13549TIP3   OH262061   1.847   2.340   2.517  0.3666  0.9147  0.2631
13549TIP3    H162062   1.820   2.428   2.489  2.6017  1.6753  0.4528
13549TIP3    H262063   1.830   2.285   2.441 -0.2792  1.6592 -0.1451
13550TIP3   OH262064   0.176   5.409   3.975  0.1581 -0.1295 -0.4582
13550TIP3    H162065   0.089   5.400   3.934 -0.3126  0.8526  0.3323
13550TIP3    H262066   0.179   5.499   4.007  1.3626 -0.2491 -0.2182
13551TIP3   OH262067   0.965   0.662   0.283  0.4407  0.0717  0.3317
13551TIP3    H162068   1.054   0.680   0.253 -0.1548  0.8856 -1.0085
13551TIP3    H262069   0.953   0.568   0.268  0.9061  0.0548  0.0633
13552TIP3   OH262070   6.623   3.494  14.447  0.8842 -0.6548 -0.3240
13552TIP3    H162071   6.704   3.511  14.496  0.9319  0.0814 -0.6512
13552TIP3    H262072   6.602   3.578  14.406  0.3157 -1.0204 -0.7838
13553TIP3   OH262073   5.781   1.889   1.002  0.3176  0.4999  0.0527
13553TIP3    H162074   5.826   1.970   1.029  0.0212  1.2785 -1.6985
13553TIP3    H262075   5.696   1.894   1.045  0.3073  1.1048 -0.0365
13554TIP3   OH262076   1.522   5.914   2.157  0.0322  0.2748  0.4653
13554TIP3    H162077   1.548   5.838   2.210 -2.0809  0.6694  2.1351
13554TIP3    H262078   1.429   5.923   2.173  0.1449  2.8636 -0.2165
13555TIP3   OH262079   4.594   3.674  14.621  0.3661  0.0484 -0.5483
13555TIP3    H162080   4.516   3.642  14.576  0.2537  0.2289 -0.4810
13555TIP3    H262081   4.636   3.732  14.557 -0.0153  0.6333 -0.2625
13556TIP3   OH262082   1.778   4.347   0.717 -0.3996 -0.0227  0.0027
13556TIP3    H162083   1.812   4.281   0.656 -1.2660  0.5710 -1.1289
13556TIP3    H262084   1.683   4.337   0.714 -0.5687  1.5262 -0.4851
13557TIP3   OH262085   2.743   1.449   3.429  0.3856 -0.0980  0.0178
13557TIP3    H162086   2.739   1.381   3.496 -0.2776 -0.8210 -0.7378
13557TIP3    H262087   2.803   1.414   3.363 -1.9210 -1.1459 -1.6286
13558TIP3   OH262088   4.892   3.203  13.545 -0.1084 -0.0595  0.7510
13558TIP3    H162089   4.820   3.155  13.503 -0.4516  0.9771  0.1320
13558TIP3    H262090   4.971   3.172  13.499 -0.4597  0.9195 -0.5457
13559TIP3   OH262091   1.356   5.554  17.232 -0.0466 -0.3145  0.0318
13559TIP3    H162092   1.358   5.537  17.138 -2.3161  0.5789 -0.2038
13559TIP3    H262093   1.335   5.469  17.271 -1.6933 -0.1641 -0.4737
13560TIP3   OH262094   4.084   6.265  11.442  0.0685 -0.2258 -0.5631
13560TIP3    H162095   4.033   6.192  11.477  0.4274 -0.6179 -0.8484
13560TIP3    H262096   4.162   6.224  11.404 -0.2066  0.2150 -1.6216
13561TIP3   OH262097   3.341   2.863  13.676 -0.3676  0.1234 -0.0549
13561TIP3    H162098   3.387   2.938  13.638  0.8738 -0.6637 -0.1447
13561TIP3    H262099   3.275   2.840  13.611 -2.3294  2.5758  1.0135
13562TIP3   OH262100   6.663   1.692   6.143 -0.0176 -0.8068 -0.0643
13562TIP3    H162101   6.648   1.782   6.172  0.8050  0.2323 -2.7519
13562TIP3    H262102   6.649   1.639   6.222 -0.4250  1.6644  1.5767
13563TIP3   OH262103   1.763   3.322  13.759  0.5268 -0.0191  0.0096
13563TIP3    H162104   1.797   3.278  13.837  0.8030 -0.5824 -0.4278
13563TIP3    H262105   1.668   3.324  13.772  0.5716 -0.0940  0.3680
13564TIP3   OH262106   4.654   2.487  10.881 -0.0410 -0.2316  0.0857
13564TIP3    H162107   4.723   2.468  10.818 -0.7626 -0.9336 -0.5010
13564TIP3    H262108   4.635   2.403  10.923  0.4000  0.2217  1.2108
13565TIP3   OH262109   6.747   6.445  13.785  0.3812 -0.7940 -0.2204
13565TIP3    H162110   6.683   6.516  13.777  1.8201  0.3258 -2.3302
13565TIP3    H262111   6.832   6.489  13.785  1.2271 -2.3838  0.6379
13566TIP3   OH262112   6.523   2.993   0.257 -0.1550 -0.2195  0.0369
13566TIP3    H162113   6.466   3.070   0.252 -1.0861 -1.0194 -1.8953
13566TIP3    H262114   6.472   2.922   0.218  0.7436 -1.8212  1.6532
13567TIP3   OH262115   1.712   1.283  14.766 -0.5076  0.3302  0.2602
13567TIP3    H162116   1.795   1.329  14.754 -0.8026  1.2729  1.7160
13567TIP3    H262117   1.688   1.299  14.857 -2.1677 -0.1231 -0.0688
13568TIP3   OH262118   5.554   4.123  15.067 -0.6953  0.5769  0.4713
13568TIP3    H162119   5.517   4.188  15.008 -0.3417  1.2755  1.0107
13568TIP3    H262120   5.648   4.122  15.046 -1.1715 -2.2098 -1.8855
13569TIP3   OH262121   3.504   6.130  15.012  0.1962  0.1572  0.3331
13569TIP3    H162122   3.498   6.045  14.967 -0.9616  0.2219  0.3616
13569TIP3    H262123   3.531   6.108  15.101  2.4010  0.0157 -0.3277
13570TIP3   OH262124   6.146   2.588   5.968 -0.4983 -0.5493 -0.1729
13570TIP3    H162125   6.145   2.559   6.059  0.1092  1.5817  0.5396
13570TIP3    H262126   6.190   2.517   5.921 -1.4329 -1.9835  1.0575
13571TIP3   OH262127   5.180   4.388   5.399 -0.3511  0.5059  0.1053
13571TIP3    H162128   5.139   4.342   5.472 -0.8659  0.5219 -0.1724
13571TIP3    H262129   5.129   4.469   5.389  0.0434  0.7557  0.0685
13572TIP3   OH262130   1.737   1.158   5.509 -0.7627 -0.3881 -0.2071
13572TIP3    H162131   1.731   1.082   5.569 -2.6124 -0.9771 -1.0938
13572TIP3    H262132   1.704   1.231   5.561 -1.9181 -0.8087 -0.3230
13573TIP3   OH262133   4.775   1.688   1.054 -0.5172 -0.5190  0.3461
13573TIP3    H162134   4.840   1.627   1.088  0.5819  0.5349  0.1644
13573TIP3    H262135   4.707   1.632   1.015 -1.3123 -1.7331  3.3135
13574TIP3   OH262136   4.202   3.205  13.031  0.0668 -0.5076 -0.0137
13574TIP3    H162137   4.236   3.280  12.983 -1.4053  0.7689  0.8717
13574TIP3    H262138   4.230   3.129  12.980  1.8311  0.6104 -0.7744
13575TIP3   OH262139   0.011   3.584   4.949 -0.3195  0.2001  0.4661
13575TIP3    H162140  -0.059   3.620   4.895  0.5671  0.7918 -0.2950
13575TIP3    H262141  -0.035   3.546   5.024 -1.7377 -2.0319 -1.4141
13576TIP3   OH262142   0.267   2.817  14.894  0.0828  0.0889 -0.3472
13576TIP3    H162143   0.292   2.848  14.980 -1.4353  0.4082 -0.0054
13576TIP3    H262144   0.196   2.755  14.910 -1.4082  1.4494 -1.4519
13577TIP3   OH262145   5.927   3.835  16.679 -0.3516 -0.0194  0.5172
13577TIP3    H162146   5.927   3.895  16.605  0.0696 -0.7194 -0.0540
13577TIP3    H262147   6.014   3.795  16.678 -0.9088 -1.2606  0.3812
13578TIP3   OH262148   2.730   5.823  16.539  0.0749  0.4152 -0.4378
13578TIP3    H162149   2.762   5.913  16.546 -0.2602  0.4843  0.2791
13578TIP3    H262150   2.804   5.768  16.565  0.7543  0.4118 -2.3092
13579TIP3   OH262151   2.327   5.245   1.362 -0.1582  0.4367  0.2240
13579TIP3    H162152   2.330   5.155   1.393  1.2533  0.9210  1.5153
13579TIP3    H262153   2.357   5.240   1.271 -2.4086 -0.7083 -0.4655
13580TIP3   OH262154   5.884   2.735   6.553  0.4895 -0.4208  0.3294
13580TIP3    H162155   5.930   2.673   6.609  0.3014  1.0861  2.2032
13580TIP3    H262156   5.875   2.814   6.606  1.9695  1.7376 -2.5029
13581TIP3   OH262157   3.700   5.565  13.964 -0.3875  1.0260 -0.3563
13581TIP3    H162158   3.793   5.562  13.984 -1.0273 -0.8660  2.8460
13581TIP3    H262159   3.684   5.485  13.914 -0.2587  1.4639 -1.0990
13582TIP3   OH262160   1.474   4.618   3.283 -0.2553 -0.0533 -0.1712
13582TIP3    H162161   1.515   4.653   3.205  0.6609 -4.4811 -1.8335
13582TIP3    H262162   1.380   4.630   3.270  0.0544  2.3925 -0.2792
13583TIP3   OH262163   1.420   4.151  16.590  0.0949  0.0355  0.0870
13583TIP3    H162164   1.442   4.094  16.516  1.4082 -2.2378  2.1579
13583TIP3    H262165   1.325   4.156  16.589  0.0286 -1.1842 -0.8533
13584TIP3   OH262166   1.114   2.668   5.287 -0.0263 -0.1540 -0.0556
13584TIP3    H162167   1.085   2.743   5.235  0.1011 -0.4801 -0.6007
13584TIP3    H262168   1.110   2.699   5.378  1.4201  0.9861 -0.3630
13585TIP3   OH262169   5.618   1.392   4.792  0.6837  0.3043  0.0641
13585TIP3    H162170   5.667   1.438   4.724 -0.2382  1.6660  0.2994
13585TIP3    H262171   5.624   1.449   4.869 -1.2758  0.5197  0.0870
13586TIP3   OH262172   1.397   3.498  13.008  0.3038 -0.2692  0.0762
13586TIP3    H162173   1.329   3.497  12.941 -0.7480  0.0745  1.1248
13586TIP3    H262174   1.469   3.548  12.969 -0.2684 -0.1255 -0.8146
13587TIP3   OH262175   5.173   2.041  15.950 -0.1327  0.4998 -0.0356
13587TIP3    H162176   5.161   2.065  16.042  0.7730  0.3336  0.1357
13587TIP3    H262177   5.092   1.996  15.926 -0.7369  1.3255  0.4196
13588TIP3   OH262178   1.492   6.619   4.977  0.2078 -0.2724  0.5249
13588TIP3    H162179   1.452   6.563   5.044 -1.1287 -0.8230 -0.6934
13588TIP3    H262180   1.471   6.708   5.005 -0.2368 -0.4939  0.9083
13589TIP3   OH262181   1.453   1.354   3.208  0.2053 -0.0613  0.7062
13589TIP3    H162182   1.534   1.305   3.225  0.6376 -0.2073 -1.6732
13589TIP3    H262183   1.472   1.405   3.129 -1.7078  0.6548  0.6944
13590TIP3   OH262184   2.594   4.917  12.782  0.2000  0.2956  0.3239
13590TIP3    H162185   2.569   4.874  12.701  1.4983  0.6686 -0.2843
13590TIP3    H262186   2.565   5.007  12.772 -0.2738  0.1738  0.5728
13591TIP3   OH262187   0.754   1.256   4.381 -0.0637 -0.3064  0.7329
13591TIP3    H162188   0.784   1.191   4.445  1.7839  0.2644  0.4559
13591TIP3    H262189   0.744   1.337   4.431  1.5507  0.1835  0.2838
13592TIP3   OH262190   6.142   4.859   3.376  0.5371  0.4004 -0.2411
13592TIP3    H162191   6.173   4.806   3.302  0.5684 -1.7954  1.3092
13592TIP3    H262192   6.070   4.910   3.340  1.8784  0.9270 -2.3134
13593TIP3   OH262193   2.191   6.152  16.301  0.5413  0.1384 -0.0651
13593TIP3    H162194   2.146   6.166  16.384 -0.1840  0.1109 -0.4501
13593TIP3    H262195   2.279   6.187  16.315  0.2661  0.5940  0.5500
13594TIP3   OH262196   4.245   0.718   5.400 -0.3082  0.4532 -0.1637
13594TIP3    H162197   4.184   0.780   5.439  0.6129  1.5074 -0.3784
13594TIP3    H262198   4.329   0.737   5.441 -0.4092 -2.1211  1.4007
13595TIP3   OH262199   0.479   1.510  11.507  0.0148  0.0382 -0.9404
13595TIP3    H162200   0.541   1.582  11.518  1.1635 -1.3398  2.1038
13595TIP3    H262201   0.396   1.545  11.538  0.8010 -0.2330  1.5341
13596TIP3   OH262202   3.815   5.659  15.573  0.1211  1.0062  0.3018
13596TIP3    H162203   3.811   5.591  15.505 -0.4450  2.9781 -1.7277
13596TIP3    H262204   3.819   5.611  15.655 -0.8547 -1.4795 -1.0439
13597TIP3   OH262205   6.443   6.493   0.226 -0.4043  0.3639 -0.7977
13597TIP3    H162206   6.420   6.581   0.257 -0.8914  0.1709 -0.6034
13597TIP3    H262207   6.483   6.450   0.301  2.4078  1.3365 -1.6681
13598TIP3   OH262208   3.475   5.504  17.141  0.6354 -0.2228 -0.5328
13598TIP3    H162209   3.454   5.412  17.153  0.0724 -0.1095 -0.6216
13598TIP3    H262210   3.457   5.544  17.226 -2.0377  0.3392 -1.3201
13599TIP3   OH262211   5.664   0.673  16.161  0.0028  0.0887 -0.1404
13599TIP3    H162212   5.680   0.739  16.093  0.2474 -0.9277 -1.0687
13599TIP3    H262213   5.692   0.591  16.122 -2.1292 -0.8769  0.3108
13600TIP3   OH262214   4.620   1.473   5.725 -0.0947  0.3452 -0.1730
13600TIP3    H162215   4.581   1.559   5.704 -2.4838 -0.5354  0.4563
13600TIP3    H262216   4.626   1.429   5.641 -1.1471  0.2315 -0.1977
13601TIP3   OH262217   1.359   0.272  15.948 -0.5764  0.0176  0.4981
13601TIP3    H162218   1.328   0.274  15.857  1.6520  0.0821 -0.3147
13601TIP3    H262219   1.376   0.364  15.969 -1.3222  0.0238  1.0682
13602TIP3   OH262220   3.296   1.380  14.984 -0.1102 -0.1647 -0.0873
13602TIP3    H162221   3.338   1.435  15.050 -0.1832 -0.4361  0.1803
13602TIP3    H262222   3.209   1.363  15.019  0.2120 -1.1676  0.2193
13603TIP3   OH262223   3.832   4.727  13.108  0.4348  0.0759  0.0136
13603TIP3    H162224   3.825   4.645  13.059 -0.8183  1.0332 -1.4330
13603TIP3    H262225   3.784   4.710  13.189  1.5992 -1.1550  0.4620
13604TIP3   OH262226   2.579   5.958  14.914  0.6153 -0.1024  0.1186
13604TIP3    H162227   2.491   5.922  14.909  0.4309  0.3791 -0.2554
13604TIP3    H262228   2.599   5.962  15.007 -0.6606  1.9103  0.3360
13605TIP3   OH262229   0.663   3.961  14.841 -0.4157 -0.2573  0.2152
13605TIP3    H162230   0.600   4.021  14.882 -0.4445 -0.3196  0.2618
13605TIP3    H262231   0.666   3.988  14.749 -0.3791 -0.1424  0.2514
13606TIP3   OH262232   1.392   3.033  14.939 -0.4696  0.0600  0.4152
13606TIP3    H162233   1.475   3.055  14.897 -0.3803 -0.1892  0.4611
13606TIP3    H262234   1.326   3.081  14.888 -0.3144  0.1362  0.2859
13607TIP3   OH262235   1.959   5.165   4.933 -0.3014 -0.1970 -0.5024
13607TIP3    H162236   1.886   5.186   4.876 -0.0739  1.0917 -0.3541
13607TIP3    H262237   1.934   5.202   5.018  1.0352  1.3979 -0.7577
13608TIP3   OH262238   5.428   3.572  14.773  0.4764 -0.2263  0.6200
13608TIP3    H162239   5.411   3.659  14.737  0.0436 -1.0808 -1.3171
13608TIP3    H262240   5.396   3.577  14.863  0.4709  1.6145  0.5465
13609TIP3   OH262241   2.078   5.595   3.077 -0.1431  0.1416 -0.1087
13609TIP3    H162242   2.066   5.511   3.121 -1.5236  0.2270 -0.2831
13609TIP3    H262243   2.108   5.654   3.146  1.1711 -0.5680 -0.0583
13610TIP3   OH262244   5.210   5.716   3.215 -0.0739  0.1491 -0.2498
13610TIP3    H162245   5.244   5.634   3.180  0.1817  0.4703 -0.7582
13610TIP3    H262246   5.287   5.770   3.230 -0.2966  0.5858 -0.6569
13611TIP3   OH262247   0.632   0.763  14.652 -0.4556  0.0685 -0.1587
13611TIP3    H162248   0.543   0.798  14.656 -1.4562 -1.9036 -3.1364
13611TIP3    H262249   0.676   0.817  14.586 -0.4350 -0.9430 -0.9900
13612TIP3   OH262250   5.127   2.090   5.053  0.5551  0.1177 -0.4111
13612TIP3    H162251   5.042   2.129   5.074  1.2713 -0.1112  3.2795
13612TIP3    H262252   5.116   2.053   4.966 -3.1229  0.1225 -0.0219
13613TIP3   OH262253   0.170   0.356  13.060  0.3666  0.5827  0.4185
13613TIP3    H162254   0.124   0.337  12.978 -0.6107 -0.1226  1.1141
13613TIP3    H262255   0.259   0.379  13.033  0.1552  0.0039 -0.8206
13614TIP3   OH262256   0.525   1.254   1.666 -0.3986  0.0791  0.5715
13614TIP3    H162257   0.458   1.239   1.733 -0.6182  0.1772  0.3739
13614TIP3    H262258   0.483   1.311   1.602 -0.4809 -0.7503 -0.1107
13615TIP3   OH262259   3.521   6.717   0.918 -0.1267 -0.0605  0.3075
13615TIP3    H162260   3.548   6.745   1.006  2.3338 -2.7083  0.5090
13615TIP3    H262261   3.566   6.777   0.859  0.3671  0.0825  0.8237
13616TIP3   OH262262   4.190   1.636  11.489 -0.6811 -0.2297 -0.2036
13616TIP3    H162263   4.284   1.644  11.504 -0.4436 -3.2252  0.1581
13616TIP3    H262264   4.166   1.553  11.530 -3.7747  1.1622  1.0271
13617TIP3   OH262265   1.187   0.339  14.380 -0.2503 -0.1474 -0.4738
13617TIP3    H162266   1.160   0.405  14.316  0.1525  1.4208  0.9517
13617TIP3    H262267   1.282   0.341  14.379 -0.1813 -2.4703 -2.1968
13618TIP3   OH262268   4.245   1.273  15.802  0.1681 -0.4152 -0.3905
13618TIP3    H162269   4.185   1.328  15.852 -0.3975 -0.2528 -1.2271
13618TIP3    H262270   4.324   1.327  15.793 -0.1307 -0.0031 -0.6113
13619TIP3   OH262271   3.406   1.440  13.893 -0.3688  0.7782 -0.0896
13619TIP3    H162272   3.455   1.521  13.899 -1.1630  1.2143  0.4811
13619TIP3    H262273   3.344   1.454  13.821  0.3858  0.1986 -0.8658
13620TIP3   OH262274   1.361   6.595   6.449  0.7025 -0.0469 -0.2502
13620TIP3    H162275   1.338   6.668   6.392  1.8285  1.2229  0.8951
13620TIP3    H262276   1.367   6.520   6.390  0.6268  0.9944 -1.6116
13621TIP3   OH262277   6.739   4.471  16.768  0.4385  0.4477 -0.7033
13621TIP3    H162278   6.696   4.393  16.734  1.2348  0.5346 -1.9214
13621TIP3    H262279   6.672   4.539  16.762 -0.1619 -0.0665  0.0857
13622TIP3   OH262280   0.524   4.054   3.057  0.4814 -0.8052 -0.0217
13622TIP3    H162281   0.486   3.966   3.054  0.1702 -0.8084  2.4242
13622TIP3    H262282   0.450   4.113   3.044  0.2794 -0.8837  0.7251
13623TIP3   OH262283   5.477   6.517   1.041 -0.1165  0.0334 -0.1182
13623TIP3    H162284   5.533   6.514   0.964 -1.3555 -1.2372 -0.9944
13623TIP3    H262285   5.528   6.566   1.106  0.8877  1.2306 -1.7686
13624TIP3   OH262286   0.976   0.272  11.509 -0.1195  0.4954  0.3503
13624TIP3    H162287   1.065   0.241  11.491  0.1584 -0.1309  2.6085
13624TIP3    H262288   0.981   0.367  11.496  0.2933  0.2219 -1.7165
13625TIP3   OH262289   6.483   5.083   6.092  0.5456  0.4228 -0.7868
13625TIP3    H162290   6.548   5.078   6.162 -0.0801 -0.5125 -0.2556
13625TIP3    H262291   6.534   5.088   6.011  1.2781 -0.7491 -0.4069
13626TIP3   OH262292   4.739   3.333  14.891 -0.3147  0.5687 -0.0630
13626TIP3    H162293   4.716   3.260  14.833  1.3953  0.1312 -0.2085
13626TIP3    H262294   4.818   3.370  14.853  0.8244  0.2777  1.9856
13627TIP3   OH262295   2.771   0.434   4.490 -0.2212 -0.6517 -0.8229
13627TIP3    H162296   2.702   0.404   4.550  0.1193 -0.0791 -0.1431
13627TIP3    H262297   2.724   0.459   4.411 -0.9326  0.8041  0.0351
13628TIP3   OH262298   6.533   1.107   5.625 -0.0733  0.1279 -0.0600
13628TIP3    H162299   6.502   1.024   5.590 -1.9456  0.0109  1.8391
13628TIP3    H262300   6.471   1.172   5.593  0.1906  0.5117  0.1929
13629TIP3   OH262301   4.873   3.950   3.104 -0.4450  0.1903 -0.2007
13629TIP3    H162302   4.799   3.896   3.130 -0.3306 -0.0242 -0.3208
13629TIP3    H262303   4.929   3.953   3.181 -1.6369  2.1713  0.6394
13630TIP3   OH262304   0.186   5.997   0.460 -0.2918  0.1691  0.1709
13630TIP3    H162305   0.251   5.930   0.482  1.1822  1.4794 -0.0913
13630TIP3    H262306   0.102   5.958   0.482  0.5050 -1.9766 -0.4904
13631TIP3   OH262307   0.315   5.462   3.361 -0.2135 -0.4094 -0.0908
13631TIP3    H162308   0.372   5.389   3.386 -1.0916 -1.2900 -0.6173
13631TIP3    H262309   0.227   5.424   3.359 -0.9015  1.0501  1.2264
13632TIP3   OH262310   0.092   6.532   5.769 -0.5211 -0.2670 -0.5114
13632TIP3    H162311   0.137   6.459   5.725 -0.5391 -0.0222 -0.9419
13632TIP3    H262312   0.009   6.495   5.798 -0.1449 -0.6602  0.0783
13633TIP3   OH262313   4.253   0.969   3.481  0.0281  0.2308  0.4748
13633TIP3    H162314   4.318   1.000   3.545 -0.1304  0.6462  0.4347
13633TIP3    H262315   4.264   1.028   3.407  0.5974 -0.5952 -0.1092
13634TIP3   OH262316   1.331   6.520  17.094 -0.1791 -0.0675 -0.0607
13634TIP3    H162317   1.311   6.473  17.013  0.8860  0.7844 -0.8352
13634TIP3    H262318   1.343   6.610  17.067  2.2484 -0.1229  0.7165
13635TIP3   OH262319   0.756   5.184  12.778  0.4230  0.3356 -0.7088
13635TIP3    H162320   0.714   5.269  12.789  0.9361  0.9110 -2.9651
13635TIP3    H262321   0.684   5.123  12.758  0.1677  0.4165 -0.0472
13636TIP3   OH262322   1.299   6.483  13.380  0.5955  0.1278 -0.3338
13636TIP3    H162323   1.303   6.392  13.410  0.6965  0.3203  0.2286
13636TIP3    H262324   1.205   6.503  13.375  0.5893  0.2413  0.2761
13637TIP3   OH262325   0.205   5.235  10.304  0.3608  0.1822  0.2064
13637TIP3    H162326   0.300   5.231  10.292  0.1680  0.6637 -1.6021
13637TIP3    H262327   0.175   5.297  10.238 -1.1301  0.6783  1.3211
13638TIP3   OH262328   2.789   2.980   1.773 -0.2931 -0.3567  0.2899
13638TIP3    H162329   2.707   2.963   1.818 -0.5151 -0.6954 -0.2414
13638TIP3    H262330   2.764   3.002   1.683  0.0944  1.0135  0.4894
13639TIP3   OH262331   2.768   0.749   3.493  0.2626 -0.1539 -0.5549
13639TIP3    H162332   2.723   0.829   3.465  2.3527  1.3762  0.3262
13639TIP3    H262333   2.724   0.723   3.573  0.4410  0.8985 -0.1157
13640TIP3   OH262334   3.680   0.454   0.474  0.7463 -0.2270  0.1510
13640TIP3    H162335   3.737   0.381   0.449  0.1301 -0.7458  0.2470
13640TIP3    H262336   3.598   0.438   0.428  0.8454  0.8050 -0.4015
13641TIP3   OH262337   2.703   1.560   5.627  0.0865 -0.1685  0.3414
13641TIP3    H162338   2.648   1.532   5.701  1.0979 -1.2699  0.6874
13641TIP3    H262339   2.752   1.634   5.661 -0.5820  0.3051  0.2860
13642TIP3   OH262340   6.479   5.396   0.409  0.6050 -0.4402 -0.9359
13642TIP3    H162341   6.477   5.303   0.432 -2.6743 -0.0211  0.8469
13642TIP3    H262342   6.423   5.403   0.332 -0.7265  0.2651  0.0622
13643TIP3   OH262343   4.029   0.170   1.146 -0.8232 -0.4255 -0.5721
13643TIP3    H162344   3.937   0.175   1.119 -0.0328 -0.6992 -3.4884
13643TIP3    H262345   4.075   0.229   1.086  0.8221  0.2231  1.2960
13644TIP3   OH262346   2.365   6.321  14.915  0.4806  0.4127 -0.0063
13644TIP3    H162347   2.444   6.278  14.883  0.2234 -0.7767  0.9684
13644TIP3    H262348   2.368   6.312  15.010 -1.9287 -1.6127 -0.0560
13645TIP3   OH262349   5.516   2.687  10.709 -0.9248  0.5871 -0.1219
13645TIP3    H162350   5.446   2.650  10.763 -0.7971  2.9284  1.7429
13645TIP3    H262351   5.473   2.758  10.660 -0.3399  0.5450 -0.7035
13646TIP3   OH262352   3.520   1.238  14.902  0.7726 -0.0003  0.3859
13646TIP3    H162353   3.429   1.264  14.916  0.6305 -1.2801  1.9573
13646TIP3    H262354   3.543   1.276  14.817 -0.4971  2.2812  1.0121
13647TIP3   OH262355   4.043   5.940  12.238  0.9801 -0.0744 -0.3747
13647TIP3    H162356   3.988   5.964  12.312  1.4797  2.1639 -0.7168
13647TIP3    H262357   3.985   5.889  12.181 -0.2435  0.7713  0.1013
13648TIP3   OH262358   5.543   1.755   2.973  0.4219 -0.6302 -0.0072
13648TIP3    H162359   5.580   1.805   3.046 -2.4922  0.5942  0.6786
13648TIP3    H262360   5.558   1.663   2.997 -1.0532 -0.2750  2.4863
13649TIP3   OH262361   2.583   0.337  11.367 -0.3934 -0.0271 -0.0010
13649TIP3    H162362   2.675   0.346  11.341 -0.1724 -0.6962  0.5059
13649TIP3    H262363   2.540   0.298  11.291 -0.4428  1.1373 -0.5663
13650TIP3   OH262364   2.378   5.950  14.125  0.5775 -0.3317  0.2636
13650TIP3    H162365   2.383   5.864  14.166  0.8744 -0.5288 -0.1788
13650TIP3    H262366   2.413   6.010  14.191  0.5315 -0.5737  0.5080
13651TIP3   OH262367   1.230   4.071  16.880  0.5905  0.2340  0.1339
13651TIP3    H162368   1.157   4.131  16.865  0.7896  0.5834  0.5519
13651TIP3    H262369   1.294   4.123  16.928  1.4016  0.1275 -0.8075
13652TIP3   OH262370   5.338   0.582   1.666 -0.4108  0.3796 -0.7263
13652TIP3    H162371   5.245   0.565   1.679 -0.1199 -1.1016 -0.5706
13652TIP3    H262372   5.370   0.509   1.614 -0.3643  3.4413 -5.3507
13653TIP3   OH262373   2.193   1.436   5.960  0.2684  0.7384  0.2590
13653TIP3    H162374   2.259   1.476   5.903 -0.1198  2.0359  0.6988
13653TIP3    H262375   2.215   1.468   6.048  1.0620 -1.4996  0.9086
13654TIP3   OH262376   0.478   2.653   6.380 -0.0458  0.5895  1.1774
13654TIP3    H162377   0.528   2.735   6.375  0.8811 -0.0593 -0.2383
13654TIP3    H262378   0.545   2.585   6.383 -0.8476 -0.3086 -1.1071
13655TIP3   OH262379   1.544   4.972   0.600  0.1624  0.2852 -0.7511
13655TIP3    H162380   1.450   4.957   0.613  0.1185  0.8462 -0.4028
13655TIP3    H262381   1.578   4.991   0.688  0.4601  0.8617 -0.9902
13656TIP3   OH262382   0.325   2.614   6.089  0.2445 -0.6834 -0.5655
13656TIP3    H162383   0.325   2.618   5.994 -1.1986  0.8361 -0.5212
13656TIP3    H262384   0.416   2.592   6.113  0.5557 -1.2895 -2.2772
13657TIP3   OH262385   3.913   1.484  12.273 -0.0640  0.3487  0.2143
13657TIP3    H162386   3.852   1.412  12.285  0.7323 -0.5752 -1.1243
13657TIP3    H262387   3.862   1.553  12.230  0.1999 -1.0591 -2.5053
13658TIP3   OH262388   2.335   2.629   2.365 -0.3691  0.1559 -0.5797
13658TIP3    H162389   2.319   2.644   2.458  0.0304 -0.7483 -0.3604
13658TIP3    H262390   2.422   2.667   2.349 -0.8190  1.1135 -0.7896
13659TIP3   OH262391   2.963   6.785   5.784  0.3678  0.0812 -0.0746
13659TIP3    H162392   3.006   6.739   5.856 -0.7873 -1.3033 -0.2347
13659TIP3    H262393   3.035   6.819   5.731  1.2491 -0.7591  0.5557
13660TIP3   OH262394   4.613   5.074  15.272  0.5282 -0.2280  0.5839
13660TIP3    H162395   4.549   5.022  15.321 -0.2740 -0.3271 -0.5556
13660TIP3    H262396   4.695   5.062  15.320 -0.0539 -1.0303  1.3969
13661TIP3   OH262397   2.799   5.000   4.255 -0.7168  0.1381 -0.1107
13661TIP3    H162398   2.811   4.916   4.297 -1.3138  1.0009  1.8533
13661TIP3    H262399   2.861   5.000   4.182 -0.2825 -1.7287  0.2363
13662TIP3   OH262400   1.876   2.760  14.965 -0.0089 -0.3443 -0.5721
13662TIP3    H162401   1.893   2.717  15.049 -2.1639 -0.0557  0.0501
13662TIP3    H262402   1.878   2.853  14.984  0.0671 -0.2643 -0.9633
13663TIP3   OH262403   6.070   5.273   2.572  0.9084  0.4755 -0.0184
13663TIP3    H162404   6.020   5.213   2.628 -0.5903 -0.2503 -2.0726
13663TIP3    H262405   6.112   5.216   2.508 -0.0825  1.5526 -1.6502
13664TIP3   OH262406   3.412   3.846  14.083  0.1339  0.5344 -0.0417
13664TIP3    H162407   3.408   3.938  14.106  1.4052 -0.1414  3.1936
13664TIP3    H262408   3.504   3.822  14.094  0.4840 -0.3597 -4.1804
13665TIP3   OH262409   4.761   1.607  11.332 -0.7394  0.3248  0.2568
13665TIP3    H162410   4.756   1.633  11.240 -2.1510 -0.5113  0.0724
13665TIP3    H262411   4.674   1.627  11.367 -0.1187  0.9078  1.4830
13666TIP3   OH262412   3.111   2.344   3.710 -0.7937  0.0045  0.0806
13666TIP3    H162413   3.075   2.417   3.760 -0.3415 -0.6934  1.4625
13666TIP3    H262414   3.037   2.285   3.696 -1.2044  0.8153 -1.2180
13667TIP3   OH262415   5.651   2.616  15.826 -0.7520 -0.2518 -0.2428
13667TIP3    H162416   5.690   2.593  15.742 -2.3985 -0.1537 -1.0553
13667TIP3    H262417   5.623   2.532  15.863  0.2714 -0.3339  0.3926
13668TIP3   OH262418   0.213   5.348   4.928 -0.2083  0.1341 -0.0284
13668TIP3    H162419   0.252   5.310   5.007 -0.5678 -0.4971 -0.1480
13668TIP3    H262420   0.173   5.429   4.957  1.7155  1.1036 -0.0203
13669TIP3   OH262421   0.258   2.952  16.963  0.6266  0.0384 -0.4917
13669TIP3    H162422   0.258   2.874  17.018 -0.5094  0.7053  0.4586
13669TIP3    H262423   0.242   3.025  17.023 -0.3178  0.8090 -1.6448
13670TIP3   OH262424   1.258   5.094   4.360 -0.3818  0.5941 -0.0744
13670TIP3    H162425   1.347   5.061   4.366  0.2881  2.8068  3.6859
13670TIP3    H262426   1.265   5.172   4.304  0.0384  0.8189  0.2935
13671TIP3   OH262427   0.166   5.931  13.033  0.5898 -0.1194  0.0006
13671TIP3    H162428   0.082   5.949  12.991  1.2026 -0.8490 -1.5541
13671TIP3    H262429   0.150   5.951  13.126 -0.2166  3.3870 -0.8212
13672TIP3   OH262430   2.261   2.552  16.935 -0.0717  0.4492 -0.5513
13672TIP3    H162431   2.340   2.565  16.883  1.4355 -1.9115  1.0875
13672TIP3    H262432   2.292   2.548  17.025 -2.2488  0.9024  0.2563
13673TIP3   OH262433   0.186   4.034  16.547  0.1307 -0.3919 -0.3916
13673TIP3    H162434   0.270   3.988  16.551  0.4143  0.2326  2.0831
13673TIP3    H262435   0.132   3.991  16.613 -0.6283  0.8458 -0.1924
13674TIP3   OH262436   4.833   3.089  16.386  0.2319  0.3117 -0.2555
13674TIP3    H162437   4.924   3.068  16.366  0.4370  0.8887  0.0878
13674TIP3    H262438   4.834   3.122  16.476 -0.6557 -2.0131  0.6522
13675TIP3   OH262439   3.287   5.989  17.072  0.0018 -0.2213  0.1445
13675TIP3    H162440   3.236   5.976  16.992  0.6222 -0.3742 -0.2310
13675TIP3    H262441   3.339   5.909  17.080 -0.5092 -0.4655  1.0315
13676TIP3   OH262442   5.849   5.515  10.263 -0.3135  0.0962  0.1364
13676TIP3    H162443   5.782   5.473  10.210 -1.2540  1.4435  0.2253
13676TIP3    H262444   5.871   5.595  10.216 -0.9103  1.1326  1.6022
13677TIP3   OH262445   1.234   6.298   1.278 -0.7529 -0.1978  0.0664
13677TIP3    H162446   1.326   6.317   1.296 -0.4262 -1.1277 -0.6028
13677TIP3    H262447   1.234   6.255   1.193 -1.8037 -0.2774  0.0947
13678TIP3   OH262448   3.844   4.845  13.622 -0.1376  0.0829  0.6220
13678TIP3    H162449   3.843   4.752  13.598 -0.3866  0.6150 -1.4912
13678TIP3    H262450   3.755   4.861  13.655 -1.5966  0.6134 -3.3134
13679TIP3   OH262451   1.325   1.260   4.376 -0.2077 -0.0106 -0.5274
13679TIP3    H162452   1.266   1.335   4.364 -0.0321 -0.0443 -1.6389
13679TIP3    H262453   1.380   1.260   4.298  1.4189  0.1408  0.5993
13680TIP3   OH262454   1.785   1.968  13.248  0.1351 -0.1672  0.0087
13680TIP3    H162455   1.770   1.887  13.199  0.8260 -0.6523  0.5804
13680TIP3    H262456   1.700   1.988  13.287 -0.1910 -0.2802 -0.6360
13681TIP3   OH262457   1.418   3.338   5.640  0.6037 -0.3419  0.1327
13681TIP3    H162458   1.334   3.336   5.593 -0.2561 -1.3929  1.6667
13681TIP3    H262459   1.432   3.431   5.659 -0.5423 -0.2123  0.4205
13682TIP3   OH262460   1.898   3.796   1.934  0.3642  0.7457  0.0011
13682TIP3    H162461   1.985   3.831   1.956  0.2638  0.7821  0.3413
13682TIP3    H262462   1.845   3.814   2.011  0.1223  0.4813 -0.1028
13683TIP3   OH262463   6.377   5.511   0.060 -0.0839  0.5624  0.1420
13683TIP3    H162464   6.298   5.458   0.053  0.5309 -0.2216 -0.9566
13683TIP3    H262465   6.446   5.457   0.023  1.1246  0.9489  1.7511
13684TIP3   OH262466   1.989   5.155   4.476 -0.3514  0.0255 -0.0321
13684TIP3    H162467   1.936   5.171   4.554  0.7074  2.7530  0.1678
13684TIP3    H262468   1.953   5.074   4.439 -1.4963 -0.7745  2.7209
13685TIP3   OH262469   3.229   5.787   5.468  0.5016  0.7574 -0.1944
13685TIP3    H162470   3.291   5.835   5.522  0.7629  0.9314 -0.6407
13685TIP3    H262471   3.192   5.720   5.526  0.8275  0.8973  0.1743
13686TIP3   OH262472   6.204   5.880  12.988  0.1762  0.2957 -0.4996
13686TIP3    H162473   6.215   5.918  13.076  3.6919  0.4319 -0.9547
13686TIP3    H262474   6.164   5.794  13.004  3.1485 -0.7870  1.4971
13687TIP3   OH262475   4.495   5.293   1.977 -0.2126  0.3181 -0.4587
13687TIP3    H162476   4.427   5.354   2.006 -1.0465 -0.1744 -1.3265
13687TIP3    H262477   4.456   5.207   1.989  0.5520 -0.0047 -0.2500
13688TIP3   OH262478   1.033   5.530   0.769  0.0904  0.0277  0.3402
13688TIP3    H162479   0.980   5.458   0.734 -1.6647  0.6264  1.7131
13688TIP3    H262480   1.058   5.501   0.857  2.5900 -0.4968 -0.4816
13689TIP3   OH262481   5.032   0.483   0.392  0.2755 -0.0267 -0.5866
13689TIP3    H162482   5.030   0.482   0.297 -1.0341  1.9666 -0.5979
13689TIP3    H262483   4.942   0.503   0.418  0.5563 -0.8226  1.0812
13690TIP3   OH262484   3.128   0.572  12.867  0.1578 -0.0198  0.2386
13690TIP3    H162485   3.213   0.616  12.875  0.4525 -0.5845  0.2415
13690TIP3    H262486   3.140   0.510  12.796 -0.1440 -0.3608  0.4850
13691TIP3   OH262487   1.333   2.566  14.746 -0.2057 -0.3350 -0.2539
13691TIP3    H162488   1.370   2.652  14.727  0.3838 -1.0235 -2.3001
13691TIP3    H262489   1.375   2.539  14.828 -0.3374  1.2728  0.3619
13692TIP3   OH262490   4.616   0.122  11.412  0.4222  0.1847  0.3116
13692TIP3    H162491   4.621   0.096  11.504  0.4707  0.5946  0.4274
13692TIP3    H262492   4.598   0.041  11.365 -0.8472  0.1785  0.8008
13693TIP3   OH262493   3.359   6.177  14.629  0.4308  0.0880  0.0998
13693TIP3    H162494   3.431   6.204  14.687  0.4218  0.8104 -0.2131
13693TIP3    H262495   3.323   6.098  14.670  1.9756 -0.7975 -0.2154
13694TIP3   OH262496   5.254   1.012  15.862  0.1048 -0.3663 -0.6392
13694TIP3    H162497   5.192   0.944  15.887 -0.0534 -0.1671 -0.4930
13694TIP3    H262498   5.208   1.065  15.798  1.5004 -2.5986 -3.5974
13695TIP3   OH262499   3.758   2.830   5.076  0.6729 -0.2800  0.4910
13695TIP3    H162500   3.807   2.898   5.122  1.1411 -0.0356 -0.3627
13695TIP3    H262501   3.696   2.878   5.021 -0.5286 -0.5853  1.5407
13696TIP3   OH262502   2.120   4.237   0.397 -0.4805  0.4082  0.3977
13696TIP3    H162503   2.188   4.279   0.345  0.8231 -1.0880  0.8733
13696TIP3    H262504   2.091   4.163   0.344 -1.6901  0.9682  0.2462
13697TIP3   OH262505   0.311   0.696   6.079 -0.0453  0.4216  0.1515
13697TIP3    H162506   0.360   0.644   6.015  0.8663 -1.2677  2.1775
13697TIP3    H262507   0.361   0.687   6.160 -3.0572 -0.3356  1.9849
13698TIP3   OH262508   4.190   3.505  12.184  0.0730 -0.3723  0.2311
13698TIP3    H162509   4.167   3.591  12.149  0.2778  0.2215  1.5618
13698TIP3    H262510   4.279   3.489  12.151 -0.3224 -0.5009 -0.7977
13699TIP3   OH262511   4.489   4.322   1.234 -0.2869  0.4193 -0.5412
13699TIP3    H162512   4.403   4.362   1.245 -0.6995  0.1131 -2.5099
13699TIP3    H262513   4.472   4.238   1.191  1.0245  0.5684 -1.4051
13700TIP3   OH262514   2.706   4.963   1.080  0.1588  0.0187 -0.3694
13700TIP3    H162515   2.697   4.871   1.104  0.6115 -0.1085 -0.6760
13700TIP3    H262516   2.801   4.979   1.083 -0.0095  0.8561  1.1092
13701TIP3   OH262517   0.234   3.039  12.789  0.1663 -0.2693  0.1967
13701TIP3    H162518   0.173   3.112  12.784 -0.2930 -0.6251  0.4758
13701TIP3    H262519   0.196   2.972  12.732  0.1256 -0.6076  0.6129
13702TIP3   OH262520   3.736   5.274   3.184  0.8736 -0.0742 -0.1295
13702TIP3    H162521   3.751   5.360   3.145  0.7538  0.0636  0.1255
13702TIP3    H262522   3.759   5.285   3.276 -0.9788  0.1894  0.3122
13703TIP3   OH262523   5.409   2.607  12.473  0.8838 -0.1538 -0.5897
13703TIP3    H162524   5.471   2.557  12.420  0.1267 -0.1681 -1.4703
13703TIP3    H262525   5.458   2.630  12.553  2.5393  1.2158 -1.9549
13704TIP3   OH262526   3.732   4.595  13.368 -0.4020 -0.1327  0.3955
13704TIP3    H162527   3.685   4.542  13.432 -1.2606 -1.7122 -1.4678
13704TIP3    H262528   3.818   4.554  13.360 -0.3326 -0.0015  0.4759
13705TIP3   OH262529   0.974   0.097   0.752  0.2124  0.2979 -0.4798
13705TIP3    H162530   1.034   0.095   0.677  0.3176 -0.4134 -0.3838
13705TIP3    H262531   0.899   0.149   0.722 -0.5700 -1.4906 -1.6967
13706TIP3   OH262532   0.793   5.749   3.172  0.3360  0.0937  0.3976
13706TIP3    H162533   0.720   5.714   3.122  1.2240 -1.5656  0.2347
13706TIP3    H262534   0.752   5.810   3.235 -1.2965 -1.6158  1.0384
13707TIP3   OH262535   4.886   5.309   2.058 -0.1869  0.1147  0.0343
13707TIP3    H162536   4.873   5.356   1.976  0.8040 -0.3861 -0.4209
13707TIP3    H262537   4.940   5.367   2.111 -0.3613  0.2016  0.1169
13708TIP3   OH262538   6.035   6.279  16.376 -0.2773  0.5102 -0.4171
13708TIP3    H162539   5.940   6.269  16.366 -0.5620 -0.3132  2.5804
13708TIP3    H262540   6.045   6.333  16.454  1.7351 -2.2889  1.3777
13709TIP3   OH262541   3.917   5.602   0.031 -0.0779 -0.1473 -0.3374
13709TIP3    H162542   3.991   5.660   0.049  0.0266 -0.2064 -0.5765
13709TIP3    H262543   3.878   5.637  -0.048  1.4940 -1.8642 -1.9342
13710TIP3   OH262544   1.727   1.842  15.332  0.0153  0.1147 -0.4932
13710TIP3    H162545   1.750   1.924  15.376  1.0291 -1.0330  1.1748
13710TIP3    H262546   1.683   1.790  15.399  0.9907 -1.4123 -1.0074
13711TIP3   OH262547   0.953   6.207  15.891 -0.1651  0.1317  0.7236
13711TIP3    H162548   0.869   6.180  15.927  0.1111 -0.5882  0.8404
13711TIP3    H262549   0.935   6.223  15.798 -0.5633  0.6033  0.8770
13712TIP3   OH262550   4.727   6.135   5.931 -0.2376  0.4200 -0.2805
13712TIP3    H162551   4.795   6.143   5.997  0.4604 -1.0451 -0.7905
13712TIP3    H262552   4.670   6.065   5.964  0.4618 -0.7497 -1.4926
13713TIP3   OH262553   4.590   6.724  11.848  0.0016  0.0252  0.0889
13713TIP3    H162554   4.501   6.704  11.877  0.3367 -0.9948  0.4167
13713TIP3    H262555   4.588   6.709  11.754  0.4602 -2.4116  0.4366
13714TIP3   OH262556   1.495   3.069   5.009  0.7997 -0.1800  0.3700
13714TIP3    H162557   1.583   3.049   5.039  0.4505 -0.8451  0.9551
13714TIP3    H262558   1.508   3.120   4.929  1.7168  0.2878  0.8130
13715TIP3   OH262559   3.566   2.645  11.135  0.3541  0.2778  0.1370
13715TIP3    H162560   3.505   2.715  11.112  1.7033  1.3267 -0.2984
13715TIP3    H262561   3.554   2.580  11.066 -0.2066  0.5166  0.0028
13716TIP3   OH262562   6.396   1.463  11.240 -0.4280  0.1283  0.7563
13716TIP3    H162563   6.447   1.442  11.318  0.3444  1.2145  0.5757
13716TIP3    H262564   6.436   1.411  11.170  0.0767  0.5272  0.7372
13717TIP3   OH262565   3.111   6.596  16.007 -0.1639  0.4234  0.0061
13717TIP3    H162566   3.154   6.658  16.065  0.5161 -1.3617  1.4367
13717TIP3    H262567   3.039   6.560  16.058 -2.2186  1.9322 -1.7044
13718TIP3   OH262568   3.125   5.864  12.594  0.2060  0.1712  0.1990
13718TIP3    H162569   3.129   5.791  12.531  0.8150 -0.0211  0.4620
13718TIP3    H262570   3.045   5.847  12.644 -0.2012  0.2409 -0.4239
13719TIP3   OH262571   6.411   2.452  13.708  0.6914 -0.2949 -0.9370
13719TIP3    H162572   6.495   2.421  13.742  0.1574 -0.7227 -0.0088
13719TIP3    H262573   6.346   2.392  13.744 -0.1671  0.8680 -0.5080
13720TIP3   OH262574   4.176   0.007  12.937  0.3590  0.1808  0.1489
13720TIP3    H162575   4.165   0.024  13.031  0.5992  1.6156 -0.0751
13720TIP3    H262576   4.162   0.092  12.896 -0.6053 -0.6080 -1.2026
13721TIP3   OH262577   2.413   6.253  11.510 -0.3594  0.4341  0.6649
13721TIP3    H162578   2.508   6.250  11.496 -0.4105 -0.5083  0.4664
13721TIP3    H262579   2.380   6.179  11.459 -1.4460  2.2000 -1.2305
13722TIP3   OH262580   6.746   1.706  14.666 -0.2275 -0.6673 -0.1372
13722TIP3    H162581   6.790   1.623  14.647  0.8380 -0.0121 -0.6260
13722TIP3    H262582   6.811   1.756  14.717 -0.9730 -0.2563  0.4252
13723TIP3   OH262583   6.701   0.683   1.908  0.2140 -0.4199 -0.1194
13723TIP3    H162584   6.677   0.609   1.965  1.1869 -0.4191  0.2980
13723TIP3    H262585   6.634   0.749   1.926 -0.0181 -0.7773  0.3393
13724TIP3   OH262586   1.351   0.403   2.893  0.3681 -0.4719  0.5441
13724TIP3    H162587   1.437   0.375   2.862 -0.1193  1.1538 -2.5804
13724TIP3    H262588   1.293   0.328   2.877  0.7900 -0.7961  0.5507
13725TIP3   OH262589   0.056   2.587  16.584  0.3417  0.1575 -0.0779
13725TIP3    H162590   0.076   2.667  16.536 -1.0120  0.6675  0.1865
13725TIP3    H262591   0.111   2.593  16.663 -0.4165  1.2756  0.3840
13726TIP3   OH262592   4.680   0.939  15.230  0.4989 -0.2994  0.4305
13726TIP3    H162593   4.744   0.899  15.288 -0.2210 -0.8385  0.8574
13726TIP3    H262594   4.623   0.990  15.288  0.8363  0.5980 -0.0006
13727TIP3   OH262595   3.106   6.195   0.017 -0.6002 -0.1095 -0.5312
13727TIP3    H162596   3.162   6.136  -0.033 -0.1846  0.3000 -0.5540
13727TIP3    H262597   3.078   6.143   0.093  0.3892 -0.0897 -0.1504
13728TIP3   OH262598   5.012   3.150   5.330  0.2733  0.3842 -0.5154
13728TIP3    H162599   4.974   3.067   5.360  1.5139  0.0668  0.2055
13728TIP3    H262600   4.996   3.211   5.401 -1.5206  1.0424 -1.4591
13729TIP3   OH262601   3.804   1.489  14.355  0.1162  0.4939  0.8877
13729TIP3    H162602   3.729   1.527  14.400  0.1843  1.5034  0.1793
13729TIP3    H262603   3.795   1.395  14.368  0.3627  0.7833  3.3380
13730TIP3   OH262604   0.351   0.604   1.271 -0.6641 -0.1539  0.0356
13730TIP3    H162605   0.397   0.684   1.245  1.8576 -0.7450  2.4435
13730TIP3    H262606   0.317   0.568   1.189 -1.3641  3.0487 -1.1712
13731TIP3   OH262607   5.356   1.541  10.936  1.1512  0.2287  0.2153
13731TIP3    H162608   5.446   1.567  10.959  0.8123  0.9651  0.7334
13731TIP3    H262609   5.309   1.624  10.930 -0.0980 -0.2711  2.4335
13732TIP3   OH262610   1.412   6.540   2.090  0.1218  0.6153 -0.1536
13732TIP3    H162611   1.436   6.632   2.092 -0.0672  0.6525  3.3599
13732TIP3    H262612   1.317   6.540   2.091  0.1248  0.4028  0.6647
13733TIP3   OH262613   3.736   3.219   2.640  0.0993 -0.5019  0.1719
13733TIP3    H162614   3.759   3.126   2.645 -0.6348 -0.7087 -0.1726
13733TIP3    H262615   3.761   3.245   2.551  1.7905  0.0485  0.7828
13734TIP3   OH262616   2.120   4.514  17.001  0.7910  0.0838  0.0296
13734TIP3    H162617   2.172   4.434  16.989  0.2418 -0.6037  2.0088
13734TIP3    H262618   2.174   4.569  17.058 -0.4157 -0.4543  1.7417
13735TIP3   OH262619   5.918   6.328   0.695 -0.1640 -0.0966 -0.3407
13735TIP3    H162620   5.996   6.373   0.727 -0.6198  0.7093 -0.3308
13735TIP3    H262621   5.882   6.387   0.628 -0.0378 -1.0739 -1.2760
13736TIP3   OH262622   2.969   0.378   1.101  0.0179  0.0679  0.3648
13736TIP3    H162623   2.950   0.472   1.108  0.1081  0.1188 -0.0398
13736TIP3    H262624   3.061   0.371   1.129 -0.4921 -0.1399  2.0444
13737TIP3   OH262625   6.007   2.721   5.283 -0.3955 -0.2713  0.3614
13737TIP3    H162626   5.970   2.758   5.363  0.3874  1.7778 -0.1939
13737TIP3    H262627   6.091   2.684   5.310  0.1863  1.0359  0.3797
13738TIP3   OH262628   2.628   6.540   2.439  0.6375 -0.1021 -0.5856
13738TIP3    H162629   2.568   6.560   2.510  1.3287  0.5148 -0.1619
13738TIP3    H262630   2.573   6.527   2.363 -0.1472 -1.1466  0.1361
13739TIP3   OH262631   1.804   0.300  16.338 -0.1989 -0.3136  0.8482
13739TIP3    H162632   1.740   0.238  16.305 -0.6829  1.5356 -1.8348
13739TIP3    H262633   1.755   0.382  16.349  1.9184  1.5820 -2.7896
13740TIP3   OH262634   3.020   5.268   1.911 -0.1641  0.2314  0.5724
13740TIP3    H162635   3.012   5.341   1.972 -1.1718  0.8490 -0.2755
13740TIP3    H262636   2.988   5.303   1.828 -0.1782 -1.0244  0.0401
13741TIP3   OH262637   5.179   6.243   5.442  0.0853  0.2629  0.2517
13741TIP3    H162638   5.108   6.241   5.506  1.6291  0.2481  1.9933
13741TIP3    H262639   5.214   6.154   5.442  0.9444  0.5898  0.3925
13742TIP3   OH262640   3.211   0.411   3.112 -0.4212 -0.3894 -0.1495
13742TIP3    H162641   3.277   0.468   3.151  0.9607 -1.8471 -0.2934
13742TIP3    H262642   3.244   0.322   3.127 -3.5095 -1.3066  1.8925
13743TIP3   OH262643   1.029   0.012   4.776  0.0588 -0.6239  0.4761
13743TIP3    H162644   0.938   0.002   4.803  0.2819 -1.6981  0.8711
13743TIP3    H262645   1.078  -0.039   4.841  1.1251  1.6322  1.4988
13744TIP3   OH262646   3.738   2.568  15.987  0.0616 -0.1089  0.0712
13744TIP3    H162647   3.675   2.597  15.920 -1.5938  0.1833  1.7095
13744TIP3    H262648   3.786   2.648  16.009  0.6070 -0.2037 -0.7571
13745TIP3   OH262649   4.423   5.720   2.014  0.4246  0.1321 -0.8930
13745TIP3    H162650   4.382   5.772   2.083  1.3510 -3.7992  2.8377
13745TIP3    H262651   4.365   5.645   2.002  2.3275 -1.3058 -1.4023
13746TIP3   OH262652   0.380   3.237  12.458  0.2348 -0.1163  0.1311
13746TIP3    H162653   0.292   3.267  12.481 -0.6433 -0.4254 -2.6393
13746TIP3    H262654   0.406   3.295  12.387  1.4214 -1.3968 -0.4838
13747TIP3   OH262655   6.343   0.875   0.413 -0.3040 -0.2031 -0.0829
13747TIP3    H162656   6.342   0.969   0.395 -1.8291 -0.1632  0.1554
13747TIP3    H262657   6.260   0.842   0.378  1.0852 -1.8277 -2.0013
13748TIP3   OH262658   5.905   3.427   4.706 -0.0037 -0.6386 -0.0889
13748TIP3    H162659   5.976   3.487   4.727  1.1322 -2.4233  1.2680
13748TIP3    H262660   5.827   3.470   4.741  0.7670  0.1292  0.7235
13749TIP3   OH262661   2.780   0.003   2.468  0.1523 -0.2860  0.1875
13749TIP3    H162662   2.733  -0.075   2.441 -0.8695  0.4375 -0.1538
13749TIP3    H262663   2.762   0.011   2.562 -0.3359 -0.0556  0.0732
13750TIP3   OH262664   3.201   2.881  12.097 -0.4638 -0.0367 -0.2016
13750TIP3    H162665   3.130   2.926  12.051  0.5415  0.8785 -0.8959
13750TIP3    H262666   3.225   2.808  12.040 -0.5750 -0.1050 -0.1610
13751TIP3   OH262667   2.126   5.547   6.562 -0.1108  0.7153  0.2677
13751TIP3    H162668   2.067   5.473   6.551  0.7562  0.0212  0.2140
13751TIP3    H262669   2.076   5.611   6.612 -0.7888  0.0079  0.4985
13752TIP3   OH262670   5.493   2.839   2.166  0.3186  0.7489  0.0220
13752TIP3    H162671   5.435   2.764   2.154  1.2284  0.2396 -1.2199
13752TIP3    H262672   5.543   2.818   2.245  3.2046 -1.7201 -2.3412
13753TIP3   OH262673   5.839   5.319   1.980  0.3456 -0.4221  0.6033
13753TIP3    H162674   5.824   5.299   1.888 -0.5978  1.6823  0.2646
13753TIP3    H262675   5.921   5.369   1.980  1.0246 -1.5278  1.0584
13754TIP3   OH262676   2.870   3.778   5.757  0.0994 -0.0838 -0.7922
13754TIP3    H162677   2.932   3.841   5.720 -0.6322 -0.2758 -2.3790
13754TIP3    H262678   2.859   3.712   5.688 -0.2391 -1.1831  0.3093
13755TIP3   OH262679   2.996   6.486   3.827 -0.3056  0.2063  0.2333
13755TIP3    H162680   3.010   6.394   3.802  0.6457  0.2693  0.5031
13755TIP3    H262681   2.908   6.506   3.796  0.1502 -0.2687 -1.4040
13756TIP3   OH262682   4.414   6.104   4.385  0.6130  0.0995  0.1926
13756TIP3    H162683   4.326   6.118   4.349  0.4950 -0.7284  0.1544
13756TIP3    H262684   4.412   6.150   4.469 -0.1018 -0.5123  0.5235
13757TIP3   OH262685   3.697   4.222  12.693 -0.1360  0.6472 -0.5642
13757TIP3    H162686   3.730   4.296  12.743  3.2687 -0.7253 -0.6546
13757TIP3    H262687   3.766   4.201  12.631 -1.7539 -1.5079 -1.7363
13758TIP3   OH262688   6.595   0.343   0.435  0.2340  0.1353  0.0252
13758TIP3    H162689   6.517   0.378   0.477 -0.3093  0.4274 -1.2097
13758TIP3    H262690   6.658   0.416   0.438  0.4137 -0.0480  0.8715
13759TIP3   OH262691   0.507   3.306  15.718 -0.1013 -0.1540 -0.3799
13759TIP3    H162692   0.526   3.313  15.811  0.0677 -0.1549 -0.4143
13759TIP3    H262693   0.559   3.376  15.677  0.7876 -0.9522 -0.6117
13760TIP3   OH262694   6.231   3.024  11.598 -0.0469  0.3836 -0.1510
13760TIP3    H162695   6.175   3.097  11.623 -0.0691  0.4415 -0.3720
13760TIP3    H262696   6.193   2.948  11.644 -0.7681  0.2792 -0.8989
13761TIP3   OH262697   1.104   5.194  14.775 -0.1240 -0.0282  0.6209
13761TIP3    H162698   1.103   5.214  14.682  0.2598 -1.0262  0.3990
13761TIP3    H262699   1.158   5.264  14.814 -0.5472  0.5661  0.1509
13762TIP3   OH262700   5.098   4.183   4.367  0.4157  0.0590  0.4383
13762TIP3    H162701   5.088   4.112   4.431 -1.0945 -0.6720 -0.5813
13762TIP3    H262702   5.142   4.142   4.293  0.7424  0.5300  0.3696
13763TIP3   OH262703   4.570   2.047   3.405 -0.1047  0.2373  0.8893
13763TIP3    H162704   4.505   2.021   3.339 -2.3900  2.6579  2.0886
13763TIP3    H262705   4.587   1.966   3.453  0.0724 -1.1053 -1.3681
13764TIP3   OH262706   0.967   2.396  12.669 -0.4365  0.4506 -0.2884
13764TIP3    H162707   1.058   2.422  12.655  0.3010 -1.1955  1.1258
13764TIP3    H262708   0.955   2.404  12.764 -1.3352 -0.5998 -0.3063
13765TIP3   OH262709   2.449   5.916  12.758 -0.3405  0.6549  0.3322
13765TIP3    H162710   2.489   5.863  12.689 -3.0101  1.4667 -1.9009
13765TIP3    H262711   2.450   5.859  12.835  1.4966 -0.7419 -0.6826
13766TIP3   OH262712   3.387   1.004   6.296 -0.3629  0.1457 -0.0167
13766TIP3    H162713   3.320   1.051   6.247 -0.0938  2.4074  1.7029
13766TIP3    H262714   3.458   1.067   6.307 -0.1657 -0.4875  2.6922
13767TIP3   OH262715   0.675   1.365   0.863 -0.2960  0.3479  0.1264
13767TIP3    H162716   0.728   1.444   0.874 -1.1118  1.1402 -1.4675
13767TIP3    H262717   0.594   1.396   0.822 -1.2219 -1.1113  0.8300
13768TIP3   OH262718   2.981   5.938   3.356  0.4065  0.4544 -0.1426
13768TIP3    H162719   2.904   5.893   3.391  0.8993 -0.1422  0.1964
13768TIP3    H262720   2.952   6.027   3.339 -0.5298  0.0689 -0.6121
13769TIP3   OH262721   4.564   5.631   1.000  0.1060  0.4043 -0.4055
13769TIP3    H162722   4.504   5.628   1.074  1.8211  2.3855  1.1340
13769TIP3    H262723   4.532   5.703   0.946 -0.6082 -0.4499 -1.1370
13770TIP3   OH262724   3.871   5.204   0.631  0.5046  0.1934  0.0663
13770TIP3    H162725   3.860   5.284   0.681 -0.4884 -0.9750  1.7804
13770TIP3    H262726   3.857   5.229   0.540 -1.6141  1.6063  0.7646
13771TIP3   OH262727   3.554   0.224  14.269  0.1837  0.3500  0.3286
13771TIP3    H162728   3.578   0.272  14.348  1.4252  0.6566 -0.2312
13771TIP3    H262729   3.506   0.288  14.216 -0.7215  0.1204  0.8595
13772TIP3   OH262730   3.082   5.634  13.264  0.0160 -0.6170 -0.3092
13772TIP3    H162731   3.120   5.550  13.237 -0.0010 -0.1895 -1.6471
13772TIP3    H262732   3.147   5.699  13.240  0.6960 -0.3456  2.0778
13773TIP3   OH262733   0.167   3.925   0.997 -0.2129 -0.0048 -0.6349
13773TIP3    H162734   0.170   4.017   0.972  2.4668  0.6200  1.8084
13773TIP3    H262735   0.197   3.878   0.919  0.0783  1.2968 -1.3226
13774TIP3   OH262736   1.385   6.112   1.479  0.3330 -0.1431  0.0874
13774TIP3    H162737   1.343   6.198   1.484  1.2231  0.4068 -1.4237
13774TIP3    H262738   1.342   6.068   1.405  0.5360 -0.6197  0.2510
13775TIP3   OH262739   0.570   0.545  13.695 -0.8159 -0.0143 -0.2180
13775TIP3    H162740   0.575   0.541  13.599  0.1042  0.0132 -0.1757
13775TIP3    H262741   0.485   0.586  13.713  0.1833  2.5130 -1.0627
13776TIP3   OH262742   6.646   1.510  17.163 -0.0180 -0.5520  0.0321
13776TIP3    H162743   6.669   1.542  17.076  0.6012 -1.0561  0.0108
13776TIP3    H262744   6.679   1.420  17.165 -0.5834 -0.7523  0.5621
13777TIP3   OH262745   5.780   5.102   3.551 -0.0684 -0.1205 -0.4888
13777TIP3    H162746   5.844   5.171   3.570  0.1058 -0.5791  0.6262
13777TIP3    H262747   5.829   5.037   3.501 -0.6936  1.4003 -3.1852
13778TIP3   OH262748   6.185   3.137  15.522 -0.3623  0.6141  0.1099
13778TIP3    H162749   6.151   3.057  15.562  0.6500 -0.6020 -1.4067
13778TIP3    H262750   6.115   3.201  15.534  0.0091  0.4180  4.0795
13779TIP3   OH262751   1.944   0.575   2.989  0.5542  0.1140  0.7021
13779TIP3    H162752   1.865   0.574   2.934  0.8326  1.0581  0.2788
13779TIP3    H262753   2.012   0.539   2.932  0.5555 -0.1373  0.8653
13780TIP3   OH262754   4.530   0.740   0.680 -0.3388 -0.7658 -0.1679
13780TIP3    H162755   4.582   0.711   0.755  1.1364 -1.2416 -1.3383
13780TIP3    H262756   4.591   0.790   0.627 -1.9302  1.3903 -0.0097
13781TIP3   OH262757   4.244   5.227  14.473  0.2491 -0.0645 -0.3289
13781TIP3    H162758   4.267   5.168  14.546 -1.7310 -1.1491 -0.5448
13781TIP3    H262759   4.328   5.265  14.446  1.1002 -0.0847  2.1375
13782TIP3   OH262760   5.261   0.943   4.632  0.0232 -0.1151 -0.5497
13782TIP3    H162761   5.236   0.967   4.542 -1.0411  1.2929  0.0984
13782TIP3    H262762   5.213   0.862   4.649  0.7561 -0.7546 -1.4835
13783TIP3   OH262763   0.293   3.808  13.128 -0.0962 -0.2714  0.6064
13783TIP3    H162764   0.248   3.869  13.186  1.4604  0.3210  1.2080
13783TIP3    H262765   0.239   3.729  13.130 -2.0043  0.9763 -0.0037
13784TIP3   OH262766   2.029   3.914  14.004 -0.0156  0.1041  0.0194
13784TIP3    H162767   2.123   3.929  13.997  0.0692 -0.6959 -0.5752
13784TIP3    H262768   2.020   3.820  14.016 -0.6299  0.4390  2.4850
13785TIP3   OH262769   2.134   3.144  15.896  0.0878  0.3852  0.7011
13785TIP3    H162770   2.098   3.077  15.955  1.8942 -1.3096 -0.0562
13785TIP3    H262771   2.174   3.208  15.955  0.6643 -0.5828  1.3849
13786TIP3   OH262772   4.007   5.870  10.855  0.0390  0.1785 -0.0216
13786TIP3    H162773   4.083   5.893  10.908  0.6214  1.0241 -1.2030
13786TIP3    H262774   3.968   5.954  10.832 -0.6128 -0.2162 -0.3558
13787TIP3   OH262775   1.795   2.650  16.376  0.2583  0.5196  0.0868
13787TIP3    H162776   1.769   2.584  16.441  1.3143  1.8235  1.8412
13787TIP3    H262777   1.715   2.701  16.361 -0.1813 -0.2387 -0.2196
13788TIP3   OH262778   4.964   4.226  12.125  0.7084 -0.4587 -0.5849
13788TIP3    H162779   5.048   4.237  12.170  0.9247 -2.3079 -0.4926
13788TIP3    H262780   4.942   4.134  12.139 -1.0400 -0.1316 -1.1405
13789TIP3   OH262781   4.744   1.638  12.311 -0.2769 -0.0758  0.1737
13789TIP3    H162782   4.663   1.587  12.311  0.5562 -1.4277 -0.2871
13789TIP3    H262783   4.807   1.583  12.357  0.9027  0.0815 -1.2144
13790TIP3   OH262784   0.572   1.801  13.462  0.0569  0.3528 -0.1651
13790TIP3    H162785   0.479   1.777  13.454  0.3857 -1.0162  0.0407
13790TIP3    H262786   0.619   1.721  13.441  1.1755  0.5665  1.4664
13791TIP3   OH262787   5.502   2.513  11.486 -0.1163  0.2903 -0.2267
13791TIP3    H162788   5.422   2.472  11.520 -0.3336  0.6226 -0.3435
13791TIP3    H262789   5.563   2.440  11.476  0.4466  0.3500  2.2605
13792TIP3   OH262790   0.015   3.426  13.711  0.4648 -0.1105 -0.7860
13792TIP3    H162791   0.094   3.382  13.679  1.3987  1.0128 -0.0634
13792TIP3    H262792   0.037   3.454  13.800 -0.2469  1.4497 -1.0817
13793TIP3   OH262793   3.525   4.153  11.494  0.1123  0.3334 -0.2064
13793TIP3    H162794   3.581   4.076  11.507 -3.5925 -2.4615 -0.1336
13793TIP3    H262795   3.524   4.196  11.580  0.2818 -0.8952  0.4260
13794TIP3   OH262796   2.241   0.208   6.611 -0.0698  0.3151 -0.0694
13794TIP3    H162797   2.160   0.255   6.632  0.0651  0.1826  0.7505
13794TIP3    H262798   2.219   0.116   6.625 -0.2937  0.1303 -1.5464
13795TIP3   OH262799   6.751   0.765   5.425 -0.5298  0.0682 -0.3811
13795TIP3    H162800   6.736   0.702   5.496 -0.3752  0.3063 -0.1341
13795TIP3    H262801   6.824   0.819   5.456 -0.8810  0.5818 -0.4476
13796TIP3   OH262802   6.543   3.215  14.822 -0.0081 -0.5619  0.2496
13796TIP3    H162803   6.518   3.306  14.807 -0.3269 -0.6306  0.3517
13796TIP3    H262804   6.587   3.188  14.741 -1.4283 -0.8370 -0.4575
13797TIP3   OH262805   6.585   2.430   5.389 -0.5193  0.5495 -0.5586
13797TIP3    H162806   6.513   2.411   5.449  0.9521  0.5040  1.2550
13797TIP3    H262807   6.613   2.344   5.357 -0.6122  0.4886 -0.4755
13798TIP3   OH262808   2.954   1.561  12.445 -0.6503 -0.2459  0.5238
13798TIP3    H162809   2.929   1.629  12.508 -2.9642 -0.2193 -0.3825
13798TIP3    H262810   2.996   1.494  12.499 -0.7871  0.6807  1.8209
13799TIP3   OH262811   0.200   2.081   1.293 -1.0179 -0.2085  0.0998
13799TIP3    H162812   0.190   2.106   1.201  0.1030  0.0591  0.0433
13799TIP3    H262813   0.211   2.164   1.339 -5.2561 -0.0142  1.0166
13800TIP3   OH262814   3.844   3.264  14.777 -0.3807  0.0539  0.2210
13800TIP3    H162815   3.775   3.209  14.814  0.4885  0.0074  1.8083
13800TIP3    H262816   3.909   3.273  14.847  0.0003  2.2399 -0.3479
13801TIP3   OH262817   5.855   0.344   4.034  0.0302 -0.0201 -0.1533
13801TIP3    H162818   5.840   0.382   3.948 -0.4166 -1.3624 -0.6923
13801TIP3    H262819   5.869   0.419   4.092  0.6413  0.8772 -1.4465
13802TIP3   OH262820   0.806   3.573  14.383 -0.4806 -0.2327 -0.3445
13802TIP3    H162821   0.741   3.529  14.437  0.6015 -1.1850  0.2174
13802TIP3    H262822   0.774   3.663  14.375 -0.0573  0.3058  2.9771
13803TIP3   OH262823   3.511   4.527   2.048 -0.1189 -0.0112  0.4097
13803TIP3    H162824   3.451   4.586   2.093  0.5422  0.7472  0.2961
13803TIP3    H262825   3.537   4.463   2.115 -0.7905 -0.1455  0.5418
13804TIP3   OH262826   2.533   3.934  14.711  0.3501 -0.5134  0.5192
13804TIP3    H162827   2.463   3.898  14.656 -0.3627  0.8315  0.5536
13804TIP3    H262828   2.613   3.904  14.668 -0.2243 -1.1348 -0.1428
13805TIP3   OH262829   6.393   6.201   5.054  0.4182  0.4938  0.4365
13805TIP3    H162830   6.346   6.126   5.089 -0.8723  0.8116 -0.6034
13805TIP3    H262831   6.397   6.186   4.959  2.9109  0.1877  0.5353
13806TIP3   OH262832   2.355   0.882  14.428  0.3326  0.1050 -0.0294
13806TIP3    H162833   2.444   0.901  14.400  1.0767 -0.3430  1.9503
13806TIP3    H262834   2.300   0.936  14.371  1.9288  1.4601 -0.3317
13807TIP3   OH262835   5.525   6.195   4.417  0.4658  0.5513  0.4009
13807TIP3    H162836   5.562   6.275   4.454  1.0127  0.1560  0.7020
13807TIP3    H262837   5.438   6.188   4.458 -1.0408  2.8465 -2.1992
13808TIP3   OH262838   0.657   5.448   3.369 -0.1708 -0.6740  0.1645
13808TIP3    H162839   0.589   5.401   3.415  0.3933 -1.9045 -0.2280
13808TIP3    H262840   0.642   5.428   3.276  0.6408 -0.8442  0.0661
13809TIP3   OH262841   2.319   3.253   0.899  0.5817 -0.2268  0.0003
13809TIP3    H162842   2.266   3.319   0.942  0.9704  0.1041 -0.0238
13809TIP3    H262843   2.322   3.280   0.808 -1.0267 -1.4388 -0.4452
13810TIP3   OH262844   2.035   6.720   3.441  0.1226 -0.3269  0.4462
13810TIP3    H162845   2.041   6.672   3.358  0.6342  1.2360 -0.4391
13810TIP3    H262846   2.065   6.808   3.420  0.5670  0.0058  2.3773
13811TIP3   OH262847   1.467   3.870  10.987 -0.2442  0.1740 -0.7761
13811TIP3    H162848   1.501   3.808  10.923  1.6067  1.4047 -1.0322
13811TIP3    H262849   1.409   3.927  10.936 -0.0252  0.1664 -1.0340
13812TIP3   OH262850   0.697   6.517   2.805 -0.2746 -0.2744  0.2747
13812TIP3    H162851   0.744   6.436   2.826  0.6551  0.0063 -0.7427
13812TIP3    H262852   0.605   6.492   2.812 -0.0677 -0.2816  4.4871
13813TIP3   OH262853   6.007   3.494  16.186  0.1242  0.1434  0.4109
13813TIP3    H162854   6.009   3.429  16.116 -0.8554 -0.0079  0.5062
13813TIP3    H262855   6.040   3.574  16.146  0.2861 -0.1401 -0.0178
13814TIP3   OH262856   2.107   2.323   2.687 -0.3799  0.5814  0.3532
13814TIP3    H162857   2.052   2.272   2.628 -0.2148 -0.1238  0.8043
13814TIP3    H262858   2.106   2.411   2.651  0.2303  0.0184 -1.0611
13815TIP3   OH262859   3.298   5.183  11.577 -0.3791  0.4873  0.1072
13815TIP3    H162860   3.249   5.174  11.659 -1.9035 -5.3072 -1.2008
13815TIP3    H262861   3.390   5.170  11.602 -0.8088 -0.9624  1.0031
13816TIP3   OH262862   6.314   4.027   1.079  0.3069 -0.5623 -0.1132
13816TIP3    H162863   6.318   3.931   1.079  0.9179 -0.5774 -2.5537
13816TIP3    H262864   6.405   4.056   1.082  0.2369 -0.1215 -1.5356
13817TIP3   OH262865   2.718   3.801  14.407 -0.5575 -0.0690 -0.1617
13817TIP3    H162866   2.683   3.728  14.459 -1.3087 -0.9982 -1.9174
13817TIP3    H262867   2.646   3.825  14.349  0.0662  1.3535 -0.3694
13818TIP3   OH262868   5.209   6.493  10.872 -0.0021  1.1856  0.0031
13818TIP3    H162869   5.170   6.443  10.944  0.9597  0.2166 -0.1254
13818TIP3    H262870   5.285   6.441  10.846  0.3207  2.1183 -0.9489
13819TIP3   OH262871   3.770   6.189  11.221  0.5401 -0.1218  0.1577
13819TIP3    H162872   3.687   6.150  11.250 -0.3731  1.4490 -0.2778
13819TIP3    H262873   3.833   6.117  11.227 -1.2041 -1.8332 -1.1260
13820TIP3   OH262874   0.851   4.835  10.845 -0.5841  0.2622 -1.0073
13820TIP3    H162875   0.916   4.854  10.777  0.9773  0.7770  0.5853
13820TIP3    H262876   0.794   4.913  10.847  0.2726  0.8882 -0.7219
13821TIP3   OH262877   0.699   4.917   2.828 -0.9125  0.7626 -0.5247
13821TIP3    H162878   0.705   4.905   2.733 -2.0120  0.2316 -0.5349
13821TIP3    H262879   0.789   4.910   2.859 -0.7766 -1.2006 -1.2875
13822TIP3   OH262880   0.354   1.807   3.617 -0.1686  0.2140  0.2130
13822TIP3    H162881   0.308   1.748   3.676 -2.3166  1.2868 -0.3266
13822TIP3    H262882   0.304   1.803   3.536  1.9828 -0.2413 -1.1303
13823TIP3   OH262883   0.780   0.546   1.287 -0.7082  0.2225  0.6115
13823TIP3    H162884   0.842   0.501   1.232 -1.8553  0.3883 -0.8562
13823TIP3    H262885   0.750   0.620   1.234  1.8025  3.2877  3.2678
13824TIP3   OH262886   4.141   4.822   5.253  0.6210  0.0472 -0.1142
13824TIP3    H162887   4.229   4.825   5.291  0.9276 -3.2585 -0.4068
13824TIP3    H262888   4.129   4.730   5.229 -2.7964  0.5194 -0.3904
13825TIP3   OH262889   3.740   3.059  15.561  0.5130 -0.1532 -0.0268
13825TIP3    H162890   3.748   3.132  15.621  1.0570  0.6358 -1.0385
13825TIP3    H262891   3.826   3.016  15.563  0.6435  0.0796 -0.4892
13826TIP3   OH262892   6.260   2.952   1.259 -0.4351 -0.3488 -0.1615
13826TIP3    H162893   6.215   2.868   1.273 -0.3500 -0.3861 -0.1137
13826TIP3    H262894   6.272   2.988   1.347 -4.9545  2.0673 -0.3764
13827TIP3   OH262895   4.265   6.721   1.095  0.3858  0.2200  0.1781
13827TIP3    H162896   4.186   6.756   1.137 -0.5693 -1.6509 -0.0356
13827TIP3    H262897   4.293   6.790   1.035 -0.7187  1.1510  0.7272
13828TIP3   OH262898   2.853   4.392  16.307 -0.1327  0.3074  0.0271
13828TIP3    H162899   2.853   4.297  16.297  2.4274  0.1445  1.1686
13828TIP3    H262900   2.810   4.407  16.391  0.8405  0.0490  0.5748
13829TIP3   OH262901   0.438   6.156   2.433  0.4402 -0.0313  1.1227
13829TIP3    H162902   0.399   6.178   2.518  1.0169 -0.2553  1.4450
13829TIP3    H262903   0.415   6.230   2.377 -0.8908 -0.3962  1.1675
13830TIP3   OH262904   0.796   6.750   5.461  0.8861 -0.0198 -0.2949
13830TIP3    H162905   0.869   6.739   5.399  1.8289 -1.4224  1.0186
13830TIP3    H262906   0.839   6.761   5.546 -0.4507 -1.5884  0.6049
13831TIP3   OH262907   5.365   2.461  14.428  0.2286  0.3332 -0.2128
13831TIP3    H162908   5.281   2.503  14.412  0.7555  1.3877 -0.2164
13831TIP3    H262909   5.415   2.525  14.478  0.2755 -1.1025  1.6625
13832TIP3   OH262910   2.279   4.939   1.342 -0.4166  0.1074 -0.0806
13832TIP3    H162911   2.284   4.846   1.365 -3.7255 -0.5947 -1.7369
13832TIP3    H262912   2.318   4.944   1.255  2.5177  0.8608  1.2355
13833TIP3   OH262913   4.179   1.526   0.953 -0.4044  0.0851 -0.0889
13833TIP3    H162914   4.273   1.537   0.945 -0.4377  0.3114 -0.1836
13833TIP3    H262915   4.153   1.478   0.875 -0.0140 -2.2157  1.1489
13834TIP3   OH262916   2.440   1.713  13.218 -0.2131 -0.2028 -0.2209
13834TIP3    H162917   2.491   1.775  13.167 -0.2857 -0.0316 -0.0846
13834TIP3    H262918   2.475   1.627  13.194  0.1049 -0.0885 -0.1629
13835TIP3   OH262919   6.395   4.312   5.406  0.7092 -0.1661  0.1162
13835TIP3    H162920   6.388   4.284   5.498 -1.1149 -3.3513 -0.9326
13835TIP3    H262921   6.307   4.342   5.384  1.1388  0.5508 -0.6496
13836TIP3   OH262922   2.282   0.495   3.473  0.1472 -0.0778  0.0109
13836TIP3    H162923   2.252   0.578   3.438  0.1943 -0.5555 -1.1945
13836TIP3    H262924   2.320   0.517   3.559 -1.0441  0.9249  0.2901
13837TIP3   OH262925   2.405   1.890  10.609 -0.0498  0.7654  0.0636
13837TIP3    H162926   2.356   1.961  10.567 -2.2720 -1.1638 -0.7646
13837TIP3    H262927   2.447   1.844  10.537  1.3443  1.2057  0.5889
13838TIP3   OH262928   2.614   6.540  13.059  0.3030 -0.2476  0.3488
13838TIP3    H162929   2.636   6.523  12.968 -1.7063  0.3285 -0.2758
13838TIP3    H262930   2.679   6.604  13.088  0.6386 -0.0270 -0.8450
13839TIP3   OH262931   2.188   0.906  11.571 -0.1628 -0.0331  0.6108
13839TIP3    H162932   2.189   0.954  11.488  0.7155  1.3453  1.3825
13839TIP3    H262933   2.176   0.815  11.547  4.0175 -0.1529 -1.2981
13840TIP3   OH262934   1.711   4.154  15.914  0.2729  0.6403 -0.0735
13840TIP3    H162935   1.660   4.074  15.901 -0.8705  1.3346  0.0390
13840TIP3    H262936   1.744   4.147  16.004  0.3426  0.2088 -0.1325
13841TIP3   OH262937   0.858   6.607  16.536  0.0179 -0.0767  0.3241
13841TIP3    H162938   0.912   6.686  16.532  0.8588 -0.6141  0.7782
13841TIP3    H262939   0.869   6.575  16.626  0.7020 -1.3868 -0.2049
13842TIP3   OH262940   4.861   6.497   4.335  0.4888  0.1298  0.5508
13842TIP3    H162941   4.770   6.498   4.306  0.5696  2.5145  0.2274
13842TIP3    H262942   4.857   6.489   4.430 -0.0578  0.3252  0.5423
13843TIP3   OH262943   2.512   0.569   3.197  0.3726  0.2059 -0.6674
13843TIP3    H162944   2.470   0.624   3.263 -1.5111 -1.2400 -0.5737
13843TIP3    H262945   2.463   0.587   3.117 -0.3816 -1.4158 -0.5918
13844TIP3   OH262946   2.136   1.873  14.877 -0.5645  0.5032  0.4149
13844TIP3    H162947   2.212   1.844  14.929 -0.2392 -0.2063 -0.4551
13844TIP3    H262948   2.170   1.944  14.824 -0.3202 -0.2880 -0.5004
13845TIP3   OH262949   0.645   0.718  16.500 -0.1412  0.0512  0.7916
13845TIP3    H162950   0.585   0.650  16.530  0.3349  0.3121  2.3685
13845TIP3    H262951   0.603   0.800  16.525  0.1500  0.2884  0.5075
13846TIP3   OH262952   3.224   4.360   1.056 -0.3938 -0.1233  0.5255
13846TIP3    H162953   3.266   4.387   0.974  1.8754  0.3332  1.7924
13846TIP3    H262954   3.137   4.329   1.029 -0.1541  1.1443 -1.8928
13847TIP3   OH262955   4.014   3.105   3.615  0.3666 -0.6009 -0.1346
13847TIP3    H162956   3.974   3.149   3.539  0.8227 -0.6614 -0.4100
13847TIP3    H262957   4.108   3.118   3.604  0.3420  1.5512  1.7521
13848TIP3   OH262958   2.850   5.826   1.802  0.2908  0.4686 -0.5619
13848TIP3    H162959   2.899   5.866   1.874  0.6390  0.9550 -1.0648
13848TIP3    H262960   2.913   5.766   1.761 -0.9947 -2.7063  1.8378
13849TIP3   OH262961   4.965   2.940   0.074  0.6220  0.0299 -0.1387
13849TIP3    H162962   5.003   2.927   0.161  0.7787  0.5696 -0.1279
13849TIP3    H262963   4.935   2.853   0.048  1.5915 -0.3480 -0.0192
13850TIP3   OH262964   2.563   3.541   4.369 -0.2783 -0.1723  0.3924
13850TIP3    H162965   2.483   3.548   4.317  0.0556 -1.7846 -0.3508
13850TIP3    H262966   2.626   3.597   4.324  0.0928 -1.7741 -1.1257
13851TIP3   OH262967   4.809   1.530   4.424  0.0172  0.4615  0.5805
13851TIP3    H162968   4.823   1.570   4.510 -0.1015  1.3484  0.1858
13851TIP3    H262969   4.861   1.449   4.427  0.5562  0.8264  1.2347
13852TIP3   OH262970   3.303   4.561   3.450  0.0928 -0.0614 -0.1217
13852TIP3    H162971   3.240   4.526   3.388  0.7255 -3.3671  1.0016
13852TIP3    H262972   3.386   4.564   3.402  0.2440 -1.0969  0.0637
13853TIP3   OH262973   0.667   2.777   2.591  0.0557  0.0897  0.2502
13853TIP3    H162974   0.638   2.843   2.529 -0.6060  0.4461  0.9314
13853TIP3    H262975   0.741   2.816   2.636  0.7186 -0.2805 -0.5118
13854TIP3   OH262976   5.063   0.267  13.438  0.5859  0.5209 -0.3091
13854TIP3    H162977   5.089   0.359  13.433 -0.2880  0.9542  2.2101
13854TIP3    H262978   4.969   0.269  13.455  0.4731 -0.8487 -0.6705
13855TIP3   OH262979   0.651   0.886   4.943  0.3390 -0.0220 -0.3495
13855TIP3    H162980   0.601   0.930   5.011  0.4904  0.2824 -0.4363
13855TIP3    H262981   0.729   0.939   4.932  0.4649 -0.2439 -0.5405
13856TIP3   OH262982   3.421   6.527  13.489 -0.6183 -0.0387  0.5725
13856TIP3    H162983   3.364   6.501  13.561 -0.8116 -0.2083  0.3615
13856TIP3    H262984   3.366   6.522  13.411 -0.5273  0.5695  0.4690
13857TIP3   OH262985   0.956   0.691   4.783  0.0720 -0.6275 -0.2291
13857TIP3    H162986   0.920   0.768   4.826  2.1992  1.5245 -2.1837
13857TIP3    H262987   0.888   0.663   4.722  0.2891  1.2693 -1.3603
13858TIP3   OH262988   1.337   4.711  16.257  0.1943  0.1391  0.0635
13858TIP3    H162989   1.353   4.795  16.299 -1.6392  0.1582  0.7499
13858TIP3    H262990   1.273   4.730  16.188  0.7155 -0.4768 -0.6061
13859TIP3   OH262991   5.564   5.448  11.068  0.0553  0.2848 -0.4454
13859TIP3    H162992   5.605   5.518  11.119  2.0566  0.5130 -2.2853
13859TIP3    H262993   5.593   5.367  11.109  3.3225  0.4141 -2.3481
13860TIP3   OH262994   3.765   5.484  12.478 -0.2142  0.2096  0.3232
13860TIP3    H162995   3.719   5.417  12.528  0.6286 -0.3354  0.3873
13860TIP3    H262996   3.854   5.449  12.469  0.0359  0.9970 -0.2529
13861TIP3   OH262997   5.861   0.975  15.316 -0.5122 -0.4378 -0.3489
13861TIP3    H162998   5.922   0.921  15.266  0.0043  0.3178 -0.5397
13861TIP3    H262999   5.842   0.924  15.394  0.6308 -0.5229 -0.1299
13862TIP3   OH263000   2.288   6.471  16.011  0.2719 -0.2107  0.0657
13862TIP3    H163001   2.201   6.494  15.979  0.6512 -0.1978 -0.9832
13862TIP3    H263002   2.297   6.377  15.993  0.2723 -0.3273  0.6571
13863TIP3   OH263003   4.852   2.767  15.521  0.2773  0.5677 -0.1051
13863TIP3    H163004   4.850   2.844  15.463 -1.1563  0.1652 -0.6115
13863TIP3    H263005   4.760   2.740  15.528  0.6218 -0.3226  1.1194
13864TIP3   OH263006   4.907   3.546  14.813  0.0765  0.0771 -0.1081
13864TIP3    H163007   4.976   3.529  14.877 -0.8044 -1.0538  0.5621
13864TIP3    H263008   4.953   3.559  14.730  0.9847 -2.8467 -0.1072
13865TIP3   OH263009   1.632   1.525   1.034  0.4311  0.0130 -0.1701
13865TIP3    H163010   1.600   1.560   1.117  0.8474  1.0628 -0.4537
13865TIP3    H263011   1.715   1.569   1.019  1.0875 -1.2843 -0.4027
13866TIP3   OH263012   5.819   1.657   2.260  0.2107  0.7604  0.3659
13866TIP3    H163013   5.895   1.600   2.252 -1.0127 -0.9375  0.4911
13866TIP3    H263014   5.759   1.626   2.193 -1.5293  0.1752  2.1441
13867TIP3   OH263015   5.929   1.122  13.997 -0.6315 -0.2274 -0.5254
13867TIP3    H163016   5.877   1.067  14.055  1.7519 -1.3931  0.5567
13867TIP3    H263017   5.962   1.192  14.053  1.7237 -1.3851 -0.3897
13868TIP3   OH263018   6.632   3.445   3.291 -0.1054  0.2036  0.4442
13868TIP3    H163019   6.698   3.490   3.238 -0.5153  1.2723  0.8264
13868TIP3    H263020   6.548   3.472   3.252 -0.3293 -1.0582  0.0321
13869TIP3   OH263021   6.002   2.605   3.756  0.7598 -0.3288 -0.3233
13869TIP3    H163022   6.000   2.583   3.849  2.7409 -0.5806 -0.3269
13869TIP3    H263023   6.048   2.532   3.715  1.9675  0.8979 -1.1827
13870TIP3   OH263024   3.514   2.657  14.920 -0.2283 -0.0071 -0.0600
13870TIP3    H163025   3.495   2.751  14.914 -2.2864 -0.4285 -0.6394
13870TIP3    H263026   3.528   2.641  15.013  2.3814  1.2613 -0.1910
13871TIP3   OH263027   1.350   5.002   2.941  0.1140  0.2041  0.0370
13871TIP3    H163028   1.306   4.921   2.917  1.0229 -0.1095 -0.5798
13871TIP3    H263029   1.278   5.063   2.960 -0.6008 -0.0618 -1.7374
13872TIP3   OH263030   0.938   0.097   5.073 -0.1404 -0.0622  0.0700
13872TIP3    H163031   0.905   0.020   5.026  2.2216  0.1819 -2.1200
13872TIP3    H263032   0.907   0.171   5.022  2.0415  0.2202 -0.9120
13873TIP3   OH263033   2.799   0.862   4.018  0.2542 -0.6343 -0.0656
13873TIP3    H163034   2.706   0.855   3.999  0.3884  0.1152 -1.0239
13873TIP3    H263035   2.819   0.783   4.068 -0.8014 -1.0249 -0.2524
13874TIP3   OH263036   3.371   1.333  10.924  0.0754  0.2856  0.0993
13874TIP3    H163037   3.352   1.319  11.017 -1.0554  0.6938 -0.0625
13874TIP3    H263038   3.444   1.274  10.905  1.9940  2.0259  1.8553
13875TIP3   OH263039   3.274   0.183  11.903  0.1924  0.5887 -0.5761
13875TIP3    H163040   3.201   0.126  11.926 -1.3919  2.3676 -1.1450
13875TIP3    H263041   3.351   0.126  11.907 -1.3842 -1.6260 -1.3099
13876TIP3   OH263042   0.487   4.326   6.151 -0.0121 -0.7400 -0.1720
13876TIP3    H163043   0.543   4.386   6.102 -0.3855 -0.2872 -0.0422
13876TIP3    H263044   0.443   4.274   6.084  1.4823 -1.9359 -0.2467
13877TIP3   OH263045   2.591   5.182   0.172  0.3132  0.3522 -0.2633
13877TIP3    H163046   2.630   5.098   0.149 -2.6951 -1.2125  0.0454
13877TIP3    H263047   2.593   5.184   0.268 -3.2599 -1.3274 -0.0453
13878TIP3   OH263048   0.002   1.403  11.946  0.3184  0.1521  0.2465
13878TIP3    H163049  -0.029   1.386  12.035 -0.8619 -0.2050 -0.2167
13878TIP3    H263050  -0.035   1.331  11.894  0.0598  0.9811 -0.7266
13879TIP3   OH263051   6.021   6.588  12.957  0.6571 -0.0451 -0.0112
13879TIP3    H163052   5.960   6.591  13.031 -0.6942  1.5203 -1.1412
13879TIP3    H263053   6.048   6.679  12.946  0.8881 -0.2807 -1.4014
13880TIP3   OH263054   3.720   2.687   3.738 -0.2167  0.0647  0.3485
13880TIP3    H163055   3.769   2.723   3.664 -1.6625  0.8195 -0.2430
13880TIP3    H263056   3.670   2.614   3.701 -2.5723  1.7566  0.1133
13881TIP3   OH263057   4.090   5.856  15.234 -0.3915  0.1385 -0.4995
13881TIP3    H163058   4.182   5.838  15.219  0.1462  1.0616  1.5202
13881TIP3    H263059   4.064   5.794  15.302 -1.4943 -0.6800 -1.6317
13882TIP3   OH263060   0.396   3.825  17.172  0.0999  0.3744 -0.3750
13882TIP3    H163061   0.312   3.823  17.126 -0.1028 -2.4960  0.0667
13882TIP3    H263062   0.378   3.789  17.259  2.0319 -1.6324 -0.7485
13883TIP3   OH263063   4.625   4.749   0.293 -0.0683  0.2738 -0.1076
13883TIP3    H163064   4.544   4.711   0.260 -0.3022 -0.5330  1.3365
13883TIP3    H263065   4.693   4.684   0.273 -0.4462 -0.9048  2.2384
13884TIP3   OH263066   0.260   2.438   2.285  0.0780 -0.0031  0.1924
13884TIP3    H163067   0.350   2.450   2.314  0.1379  1.4031 -0.5342
13884TIP3    H263068   0.211   2.508   2.330 -0.8237 -1.3230  1.3075
13885TIP3   OH263069   0.245   5.710   3.192 -0.5849  0.2569  0.5900
13885TIP3    H163070   0.241   5.635   3.251  0.1320  0.1645  0.5190
13885TIP3    H263071   0.204   5.781   3.241  0.5337  0.3277  1.4227
13886TIP3   OH263072   1.618   2.441  14.942 -0.8139  0.7821 -0.1465
13886TIP3    H163073   1.552   2.421  15.008 -0.3236  1.2304  0.4781
13886TIP3    H263074   1.607   2.534  14.925  0.3214  1.0763  0.6916
13887TIP3   OH263075   2.150   1.634  13.934  0.6786  0.2553 -0.1615
13887TIP3    H163076   2.179   1.721  13.960  1.6321 -0.1621  0.1714
13887TIP3    H263077   2.210   1.574  13.978  0.2880 -0.5580 -0.7226
13888TIP3   OH263078   0.144   4.303   3.756  0.0129  0.1724  0.4910
13888TIP3    H163079   0.171   4.268   3.671 -2.8020 -0.0553 -0.3702
13888TIP3    H263080   0.051   4.280   3.763  0.3200 -0.3344  3.9107
13889TIP3   OH263081   6.664   0.608   0.709 -0.4405 -1.1060  0.3480
13889TIP3    H163082   6.569   0.623   0.708 -0.1929  0.6717 -1.5575
13889TIP3    H263083   6.697   0.669   0.776 -0.4307 -0.0634 -0.5910
13890TIP3   OH263084   6.417   2.851   0.979  0.0102  0.2182  1.0426
13890TIP3    H163085   6.368   2.795   1.039 -2.8412  0.6769 -0.7147
13890TIP3    H263086   6.424   2.799   0.899  1.9286  0.3990  1.0825
13891TIP3   OH263087   4.893   2.794  10.747 -0.6499  0.1614  0.0582
13891TIP3    H163088   4.845   2.712  10.734  0.5126 -0.4601 -0.3784
13891TIP3    H263089   4.897   2.834  10.660 -1.5931  0.8979  0.3518
13892TIP3   OH263090   5.298   0.820   5.926 -0.2308 -0.3607 -0.1059
13892TIP3    H163091   5.223   0.859   5.881 -0.1084 -0.2790 -0.2357
13892TIP3    H263092   5.288   0.848   6.017  0.0279  0.2316 -0.2575
13893TIP3   OH263093   0.230   5.473  14.765 -0.1552 -0.4745  0.2647
13893TIP3    H163094   0.217   5.401  14.826 -0.2058 -0.8576 -0.1956
13893TIP3    H263095   0.205   5.437  14.679  1.1875 -0.3515 -0.1938
13894TIP3   OH263096   2.563   0.342  15.627 -0.4344  0.3441  0.3498
13894TIP3    H163097   2.544   0.304  15.541 -0.0353  1.0634 -0.0599
13894TIP3    H263098   2.521   0.283  15.689 -1.7320  0.4679 -0.3958
13895TIP3   OH263099   3.426   1.734   4.333  0.2251  0.3404 -0.0260
13895TIP3    H163100   3.415   1.714   4.240  0.6242  0.4091 -0.0880
13895TIP3    H263101   3.520   1.724   4.349  0.1572  0.3184  0.3715
13896TIP3   OH263102   1.499   1.555   6.630  0.1969  0.5387  0.4447
13896TIP3    H163103   1.512   1.588   6.541 -3.3401 -0.1691 -0.4243
13896TIP3    H263104   1.505   1.632   6.686 -2.5525  1.8449 -0.9789
13897TIP3   OH263105   0.469   3.901  13.729  0.3225  0.3955 -0.7278
13897TIP3    H163106   0.395   3.856  13.689  1.3484 -0.2575 -1.8987
13897TIP3    H263107   0.521   3.832  13.769  0.3275  0.8474  0.0524
13898TIP3   OH263108   1.644   5.649  13.066 -0.3137 -0.4057 -0.5587
13898TIP3    H163109   1.597   5.732  13.063 -1.3232 -0.9618 -0.6286
13898TIP3    H263110   1.731   5.668  13.032 -0.2093  0.8318  0.3852
13899TIP3   OH263111   6.607   5.909   3.209  0.1253  0.7236 -0.9353
13899TIP3    H163112   6.598   5.995   3.168 -1.1164  1.4703  0.8006
13899TIP3    H263113   6.520   5.892   3.247  0.7709 -0.6541 -0.0505
13900TIP3   OH263114   3.737   5.223  15.792  0.3438 -0.1491  0.1554
13900TIP3    H163115   3.723   5.300  15.737 -0.6796  0.1153  0.7678
13900TIP3    H263116   3.766   5.259  15.876 -1.6898 -0.2969  0.9647
13901TIP3   OH263117   1.812   6.350  14.971 -0.0858  0.2541 -0.0076
13901TIP3    H163118   1.805   6.394  14.886 -0.1052  0.1719 -0.0483
13901TIP3    H263119   1.868   6.407  15.023 -2.1024  1.5914  0.7602
13902TIP3   OH263120   3.719   3.794  14.909  0.2496  0.5979  0.0685
13902TIP3    H163121   3.697   3.729  14.842 -0.7814  1.5892 -0.5745
13902TIP3    H263122   3.682   3.759  14.990  1.1731 -0.4266  0.0633
13903TIP3   OH263123   0.525   6.144   2.138  0.2269 -0.6423 -0.5351
13903TIP3    H163124   0.526   6.080   2.209 -0.8458 -0.2615 -0.1640
13903TIP3    H263125   0.594   6.115   2.078  0.3466 -1.6330  0.0697
13904TIP3   OH263126   6.296   6.080   3.599 -0.6989 -0.0521 -0.0199
13904TIP3    H163127   6.366   6.014   3.597 -0.0192  0.6515  0.0144
13904TIP3    H263128   6.342   6.163   3.587 -1.2233  0.6611  2.5668
13905TIP3   OH263129   3.819   1.452   4.957 -0.0266 -0.2054  0.0150
13905TIP3    H163130   3.855   1.412   5.036 -1.9127  2.2668  2.2709
13905TIP3    H263131   3.875   1.528   4.941 -0.8328  0.4454  0.2127
13906TIP3   OH263132   0.016   1.274  11.555  0.6290 -0.0002 -0.3070
13906TIP3    H163133   0.072   1.329  11.610  1.4698  0.4042 -1.5684
13906TIP3    H263134  -0.060   1.330  11.535  0.9302  0.2972 -0.6213
13907TIP3   OH263135   0.813   1.759   0.010 -0.1653  0.3112  0.5077
13907TIP3    H163136   0.748   1.729  -0.053 -2.0479 -1.0820  2.9984
13907TIP3    H263137   0.765   1.767   0.092  2.9710 -1.7954  2.7051
13908TIP3   OH263138   5.138   3.224   2.976 -0.1794  0.2122 -0.3397
13908TIP3    H163139   5.124   3.267   3.060  1.3590  2.4272 -1.1640
13908TIP3    H263140   5.175   3.138   2.998 -1.0215  0.2509  1.2549
13909TIP3   OH263141   4.776   4.094   3.703  0.0397  0.0700  0.1069
13909TIP3    H163142   4.711   4.110   3.634  1.0676  1.0876 -0.6396
13909TIP3    H263143   4.734   4.124   3.784 -0.2593  1.1325 -0.4396
13910TIP3   OH263144   1.544   5.752  11.417 -0.1397 -0.1098 -0.1195
13910TIP3    H163145   1.604   5.731  11.346 -0.7702 -1.4305 -0.2685
13910TIP3    H263146   1.512   5.840  11.396  2.7146  1.1495  0.6646
13911TIP3   OH263147   3.244   6.550  13.998 -1.0170  0.7214 -0.0428
13911TIP3    H163148   3.199   6.631  14.022 -0.9634  0.2036  1.8869
13911TIP3    H263149   3.270   6.512  14.082  1.0694 -0.0966 -1.0433
13912TIP3   OH263150   6.196   0.278   3.062 -0.7043  0.1108 -0.3842
13912TIP3    H163151   6.229   0.200   3.106 -0.1670 -0.1906 -1.2967
13912TIP3    H263152   6.242   0.351   3.105  0.9377 -0.2812 -1.4102
13913TIP3   OH263153   3.835   3.799   5.295 -0.3165 -0.5236 -0.0893
13913TIP3    H163154   3.919   3.767   5.262  0.2566  0.2949  0.5486
13913TIP3    H263155   3.775   3.790   5.221  0.0521 -2.1770 -0.2104
13914TIP3   OH263156   1.364   3.173   6.585  0.7673  0.5115  0.6734
13914TIP3    H163157   1.416   3.240   6.630 -0.4177  1.9218  0.0225
13914TIP3    H263158   1.400   3.171   6.497  0.7738  0.3310  0.6814
13915TIP3   OH263159   2.917   4.311   3.791 -0.2105 -0.1782  0.2829
13915TIP3    H163160   2.906   4.402   3.819 -0.3511  0.4423 -1.7113
13915TIP3    H263161   2.896   4.312   3.697 -1.5072 -2.4973  0.5005
13916TIP3   OH263162   3.840   3.053   0.456 -0.1806 -0.2909 -0.0360
13916TIP3    H163163   3.816   3.103   0.534  1.4167 -1.1557  1.0289
13916TIP3    H263164   3.916   3.001   0.483  2.0448  1.3403 -2.9065
13917TIP3   OH263165   5.678   4.852  14.629 -0.7897 -0.1594  0.4717
13917TIP3    H163166   5.745   4.813  14.573 -0.1637 -0.4347  1.4043
13917TIP3    H263167   5.723   4.870  14.712 -2.2589 -1.8916  1.6934
13918TIP3   OH263168   6.393   5.825  15.253 -0.0835 -0.1725 -0.2462
13918TIP3    H163169   6.353   5.909  15.229 -0.5647 -0.4171 -0.3124
13918TIP3    H263170   6.362   5.764  15.186  1.1680 -0.1631 -0.8517
13919TIP3   OH263171   6.004   6.602  15.563  0.0371 -0.3524  0.2332
13919TIP3    H163172   6.040   6.681  15.521  0.7272 -0.0346  1.3907
13919TIP3    H263173   6.077   6.567  15.614 -1.0268 -0.2466  1.8471
13920TIP3   OH263174   1.395   2.407  11.735  0.4246 -0.2120  0.5366
13920TIP3    H163175   1.441   2.324  11.720  0.2579 -0.3331  0.6962
13920TIP3    H263176   1.394   2.416  11.831  0.1370 -0.1981  0.5318
13921TIP3   OH263177   0.565   1.481   6.499 -0.2812 -0.6104  0.6786
13921TIP3    H163178   0.526   1.558   6.540  1.0580  0.4491  0.0170
13921TIP3    H263179   0.654   1.478   6.533 -0.2541 -1.7369  0.5159
13922TIP3   OH263180   6.319   5.622   1.261  0.5097  0.0120  0.1360
13922TIP3    H163181   6.259   5.553   1.233 -1.0126  1.4449 -0.2202
13922TIP3    H263182   6.401   5.604   1.216  0.0214 -1.3548 -0.2128
13923TIP3   OH263183   4.722   6.357  14.984 -0.1957  0.6563 -0.1848
13923TIP3    H163184   4.640   6.321  14.949  1.1291 -0.7785 -1.9212
13923TIP3    H263185   4.783   6.284  14.982  1.2461  1.8101  0.7213
13924TIP3   OH263186   3.307   1.561   1.283  0.1948 -0.0259  0.4262
13924TIP3    H163187   3.318   1.655   1.267 -0.5121 -0.0660 -0.3265
13924TIP3    H263188   3.371   1.520   1.224  1.2476  0.0183  1.5281
13925TIP3   OH263189   5.969   3.122   1.419 -0.1304  0.0195  0.5257
13925TIP3    H163190   5.902   3.092   1.480  2.1792 -3.5499  1.4872
13925TIP3    H263191   6.043   3.144   1.475  0.1129  2.2467 -0.6293
13926TIP3   OH263192   4.744   5.296  11.553  0.2414 -0.3663  0.1004
13926TIP3    H163193   4.735   5.219  11.609  0.4205 -0.8305 -0.5047
13926TIP3    H263194   4.657   5.308  11.515  0.7418 -1.5789 -1.4943
13927TIP3   OH263195   5.463   1.919   4.763 -0.2865 -0.5592  0.4012
13927TIP3    H163196   5.508   1.909   4.846  2.2143  1.4585 -0.6663
13927TIP3    H263197   5.510   1.860   4.703 -3.6345 -3.9500  0.8981
13928TIP3   OH263198   4.960   0.742  13.145  0.6102 -0.6564  0.0757
13928TIP3    H163199   4.961   0.834  13.173  0.7050 -0.6235 -0.0365
13928TIP3    H263200   5.020   0.698  13.206  1.0834 -0.5228 -0.2859
13929TIP3   OH263201   4.970   6.289   4.089 -0.1612 -0.0953 -0.2067
13929TIP3    H163202   5.010   6.205   4.113 -0.1433  0.4387  1.7242
13929TIP3    H263203   5.044   6.343   4.060  0.1514 -0.0147  0.7185
13930TIP3   OH263204   0.712   2.878  14.669 -0.3600  0.3391 -0.1808
13930TIP3    H163205   0.692   2.968  14.693 -1.8044 -0.4614  1.7893
13930TIP3    H263206   0.791   2.856  14.719 -1.0109 -0.0218  0.7067
13931TIP3   OH263207   5.007   6.320   0.186 -0.1035  0.6261 -0.2891
13931TIP3    H163208   5.029   6.381   0.116 -1.7743  2.2226  0.5123
13931TIP3    H263209   5.058   6.242   0.167  2.3669  2.3763 -1.1622
13932TIP3   OH263210   4.152   0.745   6.173 -0.1198 -0.4920  0.3503
13932TIP3    H163211   4.087   0.778   6.235 -1.3837 -1.2974 -0.5173
13932TIP3    H263212   4.112   0.666   6.137  0.1273  0.5577 -2.2906
13933TIP3   OH263213   4.546   0.844   5.788 -0.2118  0.4866  0.0336
13933TIP3    H163214   4.517   0.804   5.870  1.2285  1.1623  0.9019
13933TIP3    H263215   4.637   0.869   5.805  1.1017 -2.0906 -2.7892
13934TIP3   OH263216   3.756   2.432  10.766 -0.4428  0.2090  0.1565
13934TIP3    H163217   3.844   2.396  10.778  0.0431  0.4345 -2.4219
13934TIP3    H263218   3.768   2.527  10.766 -0.4093  0.2240 -1.8915
13935TIP3   OH263219   4.163   3.223  14.453 -0.4118  0.4504  0.2525
13935TIP3    H163220   4.074   3.216  14.418 -1.2476  1.8676  2.0188
13935TIP3    H263221   4.174   3.143  14.505 -0.6516  0.2887  0.0590
13936TIP3   OH263222   0.593   5.922  11.227  0.1437  0.0785 -0.2571
13936TIP3    H163223   0.662   5.856  11.217 -0.8648 -0.6736 -2.4806
13936TIP3    H263224   0.530   5.901  11.159 -0.8663  2.5463 -0.1228
13937TIP3   OH263225   2.086   0.898   4.712  0.0282  0.0156  0.1568
13937TIP3    H163226   2.039   0.823   4.677 -0.4459 -0.4207  1.7028
13937TIP3    H263227   2.031   0.974   4.691  0.7993  0.0365 -1.9436
13938TIP3   OH263228   2.446   6.188  14.579 -0.8606  0.5398 -0.9017
13938TIP3    H163229   2.357   6.166  14.609 -0.0030  0.5055  1.7313
13938TIP3    H263230   2.494   6.206  14.659  1.6291  0.2217 -2.2843
13939TIP3   OH263231   2.398   6.004  13.362 -0.4293  0.0497 -0.6094
13939TIP3    H163232   2.482   6.021  13.320  0.0642  1.6201  0.9635
13939TIP3    H263233   2.419   5.963  13.445 -1.3718 -2.2343 -1.4520
13940TIP3   OH263234   5.550   4.719   2.787 -0.1216 -0.2307  0.5002
13940TIP3    H163235   5.599   4.801   2.795 -0.0665  0.0296 -2.1316
13940TIP3    H263236   5.473   4.732   2.842  0.0443  1.4744  0.3734
13941TIP3   OH263237   2.388   6.107   4.353 -0.5689  0.0672  0.2257
13941TIP3    H163238   2.417   6.177   4.294  0.4209  0.6101  1.3244
13941TIP3    H263239   2.427   6.130   4.438 -1.4492 -1.0346  0.9434
13942TIP3   OH263240   1.127   2.596  15.713  0.1853  0.4522  0.1163
13942TIP3    H163241   1.131   2.688  15.736 -0.2213  0.1232  1.5356
13942TIP3    H263242   1.167   2.550  15.787 -0.2481 -0.5514 -0.2527
13943TIP3   OH263243   0.040   2.356  12.647 -0.1100 -0.4432  0.8835
13943TIP3    H163244   0.133   2.359  12.670  0.8125 -0.3085 -2.5814
13943TIP3    H263245   0.030   2.275  12.596 -1.3742  0.6228 -0.6416
13944TIP3   OH263246   2.561   1.904   3.910 -0.2922 -0.3508  0.3349
13944TIP3    H163247   2.543   1.978   3.969  0.4561  0.5136 -0.5100
13944TIP3    H263248   2.608   1.841   3.965 -0.9287 -0.2069  1.0602
13945TIP3   OH263249   5.851   2.735   0.701 -0.4062  0.3982  0.2141
13945TIP3    H163250   5.936   2.691   0.701 -1.1602 -1.1280 -0.2936
13945TIP3    H263251   5.827   2.738   0.608 -0.7625  1.0950  0.3320
13946TIP3   OH263252   3.885   5.914  14.683  0.1393 -0.0896 -0.2926
13946TIP3    H163253   3.934   5.860  14.620 -0.4147 -1.0645  0.1056
13946TIP3    H263254   3.812   5.949  14.632 -0.7803 -1.5536  0.0119
13947TIP3   OH263255   1.340   6.241   3.987 -0.6066 -0.3691 -0.2321
13947TIP3    H163256   1.410   6.179   4.006  1.7794  2.8738  2.2000
13947TIP3    H263257   1.309   6.269   4.073 -2.1883  1.1444 -1.2629
13948TIP3   OH263258   4.029   0.628  14.119  0.3998 -0.1172  0.1989
13948TIP3    H163259   4.079   0.708  14.103 -0.2287  0.0208 -1.1413
13948TIP3    H263260   4.038   0.612  14.213  1.1168  1.1345  0.3486
13949TIP3   OH263261   1.500   0.160  14.076 -0.3203  0.5265 -0.4219
13949TIP3    H163262   1.527   0.252  14.076  0.3971  0.3559  2.5859
13949TIP3    H263263   1.411   0.162  14.113  0.6509 -0.2055  2.0232
13950TIP3   OH263264   4.747   5.584  15.595  0.2986  0.2423  0.4188
13950TIP3    H163265   4.727   5.609  15.505  0.1878 -1.0402  0.0894
13950TIP3    H263266   4.752   5.668  15.642 -2.3092  0.8027 -0.2201
13951TIP3   OH263267   3.548   1.369  13.203 -0.5235  0.3577 -0.5554
13951TIP3    H163268   3.611   1.398  13.137  0.7524 -0.9782  0.0451
13951TIP3    H263269   3.554   1.434  13.272  1.0220 -0.3405 -0.0119
13952TIP3   OH263270   5.076   2.911  12.222 -0.0399  0.6745 -0.1778
13952TIP3    H163271   5.132   2.986  12.206 -0.6507  1.3318  0.6951
13952TIP3    H263272   5.071   2.905  12.318  1.0988 -1.2986 -0.2161
13953TIP3   OH263273   3.002   2.270  13.584 -0.7077  0.1355 -0.0056
13953TIP3    H163274   3.073   2.308  13.532 -0.9634 -0.0031 -0.4685
13953TIP3    H263275   3.008   2.312  13.669 -0.2905  0.3830 -0.1594
13954TIP3   OH263276   5.672   5.938  13.130 -0.3495  0.3798 -0.1000
13954TIP3    H163277   5.767   5.939  13.143 -0.3536 -1.1576  0.0901
13954TIP3    H263278   5.658   5.888  13.050 -1.1804 -2.4782  1.7598
13955TIP3   OH263279   3.565   2.874   3.451  0.3212 -0.1477 -0.3824
13955TIP3    H163280   3.602   2.822   3.379 -0.8886 -1.2175 -0.2368
13955TIP3    H263281   3.634   2.875   3.517  0.7525 -0.6752 -0.8186
13956TIP3   OH263282   0.712   6.426   5.208 -0.6144 -0.1959  0.0004
13956TIP3    H163283   0.807   6.436   5.213 -0.5812 -0.3684 -0.2600
13956TIP3    H263284   0.681   6.450   5.295 -0.2965 -0.5218  0.2067
13957TIP3   OH263285   5.154   3.584   0.611 -0.2848 -0.4166 -0.2540
13957TIP3    H163286   5.103   3.650   0.659  1.4162  0.9866 -0.3037
13957TIP3    H263287   5.175   3.517   0.676 -1.9620 -0.8783 -0.1785
13958TIP3   OH263288   6.578   4.540  13.755  0.0011 -0.4280  0.1996
13958TIP3    H163289   6.533   4.620  13.731  0.7690 -0.6579 -2.0991
13958TIP3    H263290   6.667   4.568  13.776 -0.2507 -0.4351  1.3082
13959TIP3   OH263291   4.189   0.376   3.013 -0.0515  0.0444 -0.1057
13959TIP3    H163292   4.198   0.403   2.921  0.0839  1.5321  0.3333
13959TIP3    H263293   4.153   0.453   3.057  0.4666 -0.4511  1.2061
13960TIP3   OH263294   5.929   5.806  11.848 -0.3402 -0.8225 -0.2555
13960TIP3    H163295   5.970   5.892  11.836 -1.7048 -0.0186  0.6906
13960TIP3    H263296   5.875   5.794  11.771 -1.1031 -0.2813  0.1955
13961TIP3   OH263297   3.281   5.822  13.274  0.2775 -0.2179 -0.1951
13961TIP3    H163298   3.317   5.800  13.188  0.0204 -0.9298 -0.1265
13961TIP3    H263299   3.357   5.822  13.332  0.5165  0.7057 -0.4998
13962TIP3   OH263300   2.519   4.815  13.219  0.1115 -0.5323  0.4938
13962TIP3    H163301   2.459   4.884  13.189 -0.9625 -1.4397  0.5164
13962TIP3    H263302   2.542   4.767  13.140  0.7259 -0.2541  0.5026
13963TIP3   OH263303   6.015   6.718   4.197 -0.3592 -0.0044  0.5868
13963TIP3    H163304   5.975   6.694   4.113 -1.4741  0.7504  0.8898
13963TIP3    H263305   6.108   6.702   4.184 -0.6650 -1.0775 -0.3852
13964TIP3   OH263306   4.388   1.243   0.872  0.1218  0.2989  0.5957
13964TIP3    H163307   4.329   1.184   0.919  0.3280  0.8988  1.6182
13964TIP3    H263308   4.465   1.190   0.852  0.3190  0.2342  1.5405
13965TIP3   OH263309   1.134   0.115   0.545 -0.0324  0.4134  0.2042
13965TIP3    H163310   1.218   0.162   0.540  0.9362 -1.4168 -1.0179
13965TIP3    H263311   1.090   0.137   0.463 -0.6672  1.1894  0.7466
13966TIP3   OH263312   5.645   0.229   4.683  0.7335  0.4445 -0.0002
13966TIP3    H163313   5.677   0.160   4.741 -0.6762  0.6653  1.0591
13966TIP3    H263314   5.595   0.181   4.616 -0.7409  0.4597  1.0675
13967TIP3   OH263315   0.064   6.580   2.020 -0.7749 -0.6508 -0.4678
13967TIP3    H163316   0.153   6.601   1.992 -1.4489  1.7037 -0.9572
13967TIP3    H263317   0.073   6.501   2.073  1.7450  0.1039  0.3022
13968TIP3   OH263318   2.640   1.720  13.461 -0.5116  0.1468 -0.0500
13968TIP3    H163319   2.563   1.776  13.463 -0.3050  0.4207  2.4572
13968TIP3    H263320   2.604   1.631  13.464 -0.7798  0.2045 -1.4275
13969TIP3   OH263321   1.165   2.118   4.654  0.4148  0.3534 -0.0325
13969TIP3    H163322   1.076   2.122   4.690  0.6969  0.6534  0.6432
13969TIP3    H263323   1.186   2.208   4.631  0.0973  0.1127 -1.3231
13970TIP3   OH263324   5.698   4.758   3.936  0.0836  0.5369 -0.0752
13970TIP3    H163325   5.728   4.827   3.876  1.3842 -1.1789 -1.4486
13970TIP3    H263326   5.619   4.723   3.894  0.2255  0.2422 -0.0984
13971TIP3   OH263327   0.343   3.890  14.706  0.0844  0.1703 -0.2019
13971TIP3    H163328   0.276   3.945  14.666  0.2018  0.1148 -0.4761
13971TIP3    H263329   0.386   3.947  14.769  0.6233  0.5789 -0.9378
13972TIP3   OH263330   1.000   3.561   5.458  0.1414  0.8056 -0.7229
13972TIP3    H163331   1.023   3.654   5.465  1.9490  0.2367  1.5598
13972TIP3    H263332   0.940   3.546   5.531  3.2499 -0.7245  1.6327
13973TIP3   OH263333   3.850   1.698   0.574 -0.1571  0.8765 -0.2160
13973TIP3    H163334   3.837   1.648   0.493  2.5642  1.5121 -1.0933
13973TIP3    H263335   3.796   1.777   0.562 -2.2663 -0.4884 -0.0101
13974TIP3   OH263336   2.675   3.419   1.952  0.3933 -0.0851 -0.1817
13974TIP3    H163337   2.723   3.369   2.019 -0.3913 -2.2697 -1.2055
13974TIP3    H263338   2.740   3.479   1.917  1.6802 -1.1177  0.3612
13975TIP3   OH263339   1.205   0.585   0.106 -0.8281  0.3685  0.1360
13975TIP3    H163340   1.175   0.644   0.036 -1.9749 -0.5328 -0.1622
13975TIP3    H263341   1.281   0.541   0.069 -0.5722  0.9268 -0.0130
13976TIP3   OH263342   1.511   0.831   5.444  0.2789  0.2177  0.8219
13976TIP3    H163343   1.590   0.802   5.399  0.1616 -0.4509  1.0402
13976TIP3    H263344   1.473   0.897   5.386  2.0156  1.9634  1.5936
13977TIP3   OH263345   5.193   6.608  10.545  0.1952 -0.1004  0.3704
13977TIP3    H163346   5.148   6.655  10.475  0.1488  0.4936  0.7933
13977TIP3    H263347   5.229   6.677  10.601  0.1170 -0.5641  1.0011
13978TIP3   OH263348   1.451   5.836   5.848 -0.0052  0.1688 -0.3448
13978TIP3    H163349   1.546   5.827   5.839 -0.0093  1.2890 -1.8359
13978TIP3    H263350   1.439   5.926   5.878 -0.6332  0.3342 -1.0793
13979TIP3   OH263351   4.636   2.586  11.504  0.1186  0.0691 -0.3113
13979TIP3    H163352   4.712   2.587  11.562  0.3954 -2.2171 -0.5761
13979TIP3    H263353   4.662   2.529  11.431 -2.3068 -1.8609  0.2635
13980TIP3   OH263354   2.187   1.869  14.055 -0.7100  0.6813  0.2259
13980TIP3    H163355   2.102   1.900  14.085  0.3291  1.2389  2.6805
13980TIP3    H263356   2.246   1.943  14.071  0.7010 -0.5646  0.8350
13981TIP3   OH263357   6.386   4.237   3.891  0.1523  0.4194  0.9523
13981TIP3    H163358   6.296   4.222   3.862  0.6443 -0.6759 -0.0630
13981TIP3    H263359   6.382   4.318   3.942 -1.4975  0.0982  1.3510
13982TIP3   OH263360   1.375   4.512  10.690  0.1499 -0.0212  0.2215
13982TIP3    H163361   1.348   4.562  10.614 -1.5199  1.4680  1.7504
13982TIP3    H263362   1.469   4.498  10.679 -0.1840 -0.3428 -2.3689
13983TIP3   OH263363   0.053   4.853  14.396 -0.2384  0.8971  0.5671
13983TIP3    H163364   0.144   4.828  14.380  0.0769  2.8758 -0.9841
13983TIP3    H263365   0.059   4.933  14.448 -1.1492 -0.0480  2.1623
13984TIP3   OH263366   5.344   2.987  14.664 -0.0382 -0.1874 -0.3411
13984TIP3    H163367   5.303   2.948  14.742  1.0142 -0.9041 -0.1402
13984TIP3    H263368   5.308   3.076  14.661 -1.0542 -0.5625  0.2407
13985TIP3   OH263369   1.387   1.462  12.603 -0.2997  0.0849  0.0360
13985TIP3    H163370   1.305   1.415  12.613 -0.3487  0.3264  0.8006
13985TIP3    H263371   1.374   1.543  12.653  0.4456  0.0673  0.2621
13986TIP3   OH263372   2.945   4.867   3.023  0.2118  0.1027  0.5964
13986TIP3    H163373   2.880   4.922   3.068 -0.9993 -0.8101 -0.0305
13986TIP3    H263374   2.908   4.779   3.026  2.0073 -0.6464  1.3265
13987TIP3   OH263375   6.323   1.430  16.925 -0.1017 -0.2388 -0.3653
13987TIP3    H163376   6.310   1.460  17.015 -1.6791 -0.0450 -0.6412
13987TIP3    H263377   6.239   1.391  16.901  0.4520 -0.6727 -1.6101
13988TIP3   OH263378   6.446   2.771   4.987 -0.2569 -0.5591  0.1944
13988TIP3    H163379   6.397   2.702   4.942  0.4932 -0.7334 -0.3728
13988TIP3    H263380   6.465   2.735   5.073  0.0246 -1.0202 -0.0549
13989TIP3   OH263381   5.830   0.502   5.927  0.1776 -0.7276  0.0989
13989TIP3    H163382   5.738   0.484   5.947  0.2694 -0.9747  0.3048
13989TIP3    H263383   5.879   0.448   5.989  0.4751 -2.3338 -1.4853
13990TIP3   OH263384   5.528   4.695   2.259  0.2200 -0.3170 -0.5327
13990TIP3    H163385   5.455   4.740   2.302  0.9756  0.5197 -0.1080
13990TIP3    H263386   5.491   4.611   2.230 -0.2915 -0.9455  1.8172
13991TIP3   OH263387   2.230   1.756   0.542  0.5443  0.7238  0.1172
13991TIP3    H163388   2.176   1.709   0.606  2.3158 -0.9918  0.3925
13991TIP3    H263389   2.167   1.788   0.477 -0.9405 -0.1388  1.0948
13992TIP3   OH263390   1.769   6.518  12.390  0.3856  0.3743  0.6196
13992TIP3    H163391   1.726   6.440  12.354  1.7994  0.0069 -0.3062
13992TIP3    H263392   1.828   6.484  12.457 -0.6284  0.8671  1.7915
13993TIP3   OH263393   4.603   1.405   3.259  0.0743 -0.3732  0.0428
13993TIP3    H163394   4.608   1.355   3.341 -0.6927 -1.2562 -0.4451
13993TIP3    H263395   4.540   1.475   3.278 -1.8959 -1.9522 -0.4955
13994TIP3   OH263396   2.650   2.422   5.945  0.0391  0.0513  0.5670
13994TIP3    H163397   2.608   2.430   5.859  0.5445  0.6537  0.3693
13994TIP3    H263398   2.583   2.384   6.001 -0.6794  0.7265  0.1816
13995TIP3   OH263399   2.205   5.622  16.960 -0.0216 -0.2005 -0.2450
13995TIP3    H163400   2.278   5.655  17.011  0.0466  2.2486 -1.8609
13995TIP3    H263401   2.243   5.551  16.908  0.9690  0.3613 -0.2990
13996TIP3   OH263402   4.879   1.068   4.500  0.3760  0.1478  0.0762
13996TIP3    H163403   4.788   1.065   4.530 -0.4735 -0.2419 -2.4234
13996TIP3    H263404   4.912   1.152   4.532 -1.5920  1.3649 -0.9890
13997TIP3   OH263405   6.685   3.881   0.940 -0.1400 -0.4394  0.8319
13997TIP3    H163406   6.775   3.906   0.960  0.0475 -0.5697  0.1751
13997TIP3    H263407   6.647   3.855   1.024 -0.0142  1.0392  1.3706
13998TIP3   OH263408   5.790   3.066  16.088  0.3147  0.2840 -0.0333
13998TIP3    H163409   5.821   2.981  16.120  2.2002  0.9301 -0.1005
13998TIP3    H263410   5.715   3.045  16.033 -0.8413 -1.1238  2.0167
13999TIP3   OH263411   4.023   3.344  12.818  0.2998 -0.2366 -0.7760
13999TIP3    H163412   4.105   3.342  12.768 -0.6604 -2.8428 -2.3791
13999TIP3    H263413   3.956   3.367  12.753 -0.3019  1.5764  0.4541
14000TIP3   OH263414   2.057   6.411  13.038 -0.0463 -0.2583  0.1950
14000TIP3    H163415   2.026   6.495  13.005 -4.3442 -2.3778 -1.5624
14000TIP3    H263416   2.046   6.417  13.133  1.5434  1.8282  0.2650
14001TIP3   OH263417   5.683   6.637  11.012  0.0013  0.0285 -0.4770
14001TIP3    H163418   5.739   6.648  10.936  0.7849 -0.2490  0.0570
14001TIP3    H263419   5.629   6.716  11.014 -0.3888 -0.1998 -1.6177
14002TIP3   OH263420   2.910   3.388   4.686 -0.2535 -0.5837 -0.5178
14002TIP3    H163421   2.828   3.434   4.703 -0.4425 -0.6573 -1.2442
14002TIP3    H263422   2.973   3.429   4.746 -0.2045  1.2562 -1.8037
14003TIP3   OH263423   6.610   5.559   2.409  0.1978 -0.1943  0.0968
14003TIP3    H163424   6.552   5.613   2.463  1.2972  0.2281  0.8774
14003TIP3    H263425   6.669   5.517   2.471  1.1529 -0.1002 -0.7265
14004TIP3   OH263426   0.170   4.783  12.084 -0.0552  0.1199 -0.4150
14004TIP3    H163427   0.182   4.854  12.147  1.5281 -1.5287  1.2033
14004TIP3    H263428   0.120   4.823  12.012 -1.7308  2.1024  1.7523
14005TIP3   OH263429   5.560   2.901  10.886  0.1214  0.0046 -0.1313
14005TIP3    H163430   5.641   2.933  10.847  0.7881 -1.0536  0.3746
14005TIP3    H263431   5.513   2.861  10.813  0.6058 -0.4775 -0.1755
14006TIP3   OH263432   5.867   2.335  13.326 -0.9325  0.4169 -0.1334
14006TIP3    H163433   5.856   2.322  13.231 -1.7457 -3.2132  0.3575
14006TIP3    H263434   5.961   2.332  13.339 -0.9153 -2.1324 -0.5343
14007TIP3   OH263435   2.849   5.369  17.054 -0.2973  0.0745  0.1310
14007TIP3    H163436   2.866   5.308  16.982  1.2537 -0.5615  1.0027
14007TIP3    H263437   2.925   5.427  17.055 -0.9419  0.9296  0.4119
14008TIP3   OH263438   0.038   3.341   3.699  0.7820  0.1334  0.3400
14008TIP3    H163439   0.010   3.296   3.779  1.1870  1.6753  1.3729
14008TIP3    H263440   0.100   3.407   3.730  1.5254  0.2407 -1.3450
14009TIP3   OH263441   0.410   4.866  16.494 -0.6505 -0.3776  0.0090
14009TIP3    H163442   0.483   4.892  16.550 -1.5718 -0.0312  1.0656
14009TIP3    H263443   0.417   4.770  16.488 -0.0998 -0.3424  0.0791
14010TIP3   OH263444   1.192   2.298   5.895  0.2437 -0.1319  0.5652
14010TIP3    H163445   1.165   2.286   5.986 -0.8382  1.0369  0.4225
14010TIP3    H263446   1.195   2.393   5.885  0.3449 -0.2623 -0.6169
14011TIP3   OH263447   1.975   3.519  12.019 -0.0534  0.7892  0.1154
14011TIP3    H163448   1.999   3.543  11.930  1.0642 -0.5576  0.0452
14011TIP3    H263449   2.054   3.479  12.056 -0.8471  0.3067  1.3421
14012TIP3   OH263450   0.718   4.719  15.781 -0.0057  0.7694 -0.0955
14012TIP3    H163451   0.652   4.772  15.827 -0.0454  1.4554 -0.9245
14012TIP3    H263452   0.771   4.783  15.734  0.2261  0.1003 -0.7542
14013TIP3   OH263453   0.373   5.206   5.133  0.1428 -0.2708 -0.1136
14013TIP3    H163454   0.462   5.204   5.170  0.2406  1.9684 -0.1686
14013TIP3    H263455   0.368   5.127   5.079  1.2342 -1.7218  1.8458
14014TIP3   OH263456   2.116   3.845   3.852  0.4257  0.1436 -0.0065
14014TIP3    H163457   2.091   3.937   3.856  3.9775  1.1491  0.8325
14014TIP3    H263458   2.033   3.797   3.853 -1.6796  3.3731 -3.7944
14015TIP3   OH263459   0.049   4.952   3.312  0.1054  0.6150  0.1244
14015TIP3    H163460   0.035   4.858   3.329  0.7122  0.3733 -0.6737
14015TIP3    H263461   0.109   4.954   3.238  0.9889  1.6450  0.8482
14016TIP3   OH263462   3.534   6.490  14.831 -0.0828  0.1123 -0.2609
14016TIP3    H163463   3.448   6.533  14.840  0.0919  0.3424  0.3742
14016TIP3    H263464   3.595   6.562  14.814 -0.1718 -0.1646 -1.8401
14017TIP3   OH263465   4.473   5.077   3.050  0.0361 -0.3774 -0.5523
14017TIP3    H163466   4.502   5.074   2.959  1.2237 -1.4950 -0.1532
14017TIP3    H263467   4.540   5.127   3.096 -1.0833  1.0866 -0.4509
14018TIP3   OH263468   4.103   3.869   5.492  0.6447  0.1063  0.4132
14018TIP3    H163469   4.054   3.949   5.471 -1.8090 -1.2075  1.0107
14018TIP3    H263470   4.163   3.858   5.418 -0.3297  1.4548 -0.6092
14019TIP3   OH263471   0.227   4.639   1.210 -0.4221 -0.4110  0.0773
14019TIP3    H163472   0.152   4.648   1.269  1.0575 -1.1540  2.1287
14019TIP3    H263473   0.293   4.591   1.261  1.6362  0.6336 -1.5012
14020TIP3   OH263474   5.273   3.648   1.983  0.2152  1.3447  0.3560
14020TIP3    H163475   5.304   3.564   2.018  1.9985  1.6875 -0.3653
14020TIP3    H263476   5.221   3.624   1.906  1.7294  0.9469 -0.5627
14021TIP3   OH263477   3.125   1.407   0.272  0.1149  0.3814 -0.6254
14021TIP3    H163478   3.068   1.431   0.199  1.0048 -0.5871 -1.6318
14021TIP3    H263479   3.064   1.373   0.338 -0.6896  1.2739 -0.8836
14022TIP3   OH263480   0.255   0.260   2.178 -0.1364  0.4226 -0.2123
14022TIP3    H163481   0.191   0.195   2.203 -1.2382  0.5601 -2.5505
14022TIP3    H263482   0.239   0.276   2.085  1.8359  2.0775 -0.3223
14023TIP3   OH263483   6.757   4.403  12.598  0.4570 -0.3651 -0.3972
14023TIP3    H163484   6.771   4.498  12.592 -0.5913 -0.0876  1.1809
14023TIP3    H263485   6.843   4.368  12.622 -0.1271  0.6972  3.5637
14024TIP3   OH263486   3.060   5.476   2.140 -0.4916 -0.0510  0.2519
14024TIP3    H163487   2.979   5.524   2.121 -0.3859  1.0902  2.5756
14024TIP3    H263488   3.054   5.454   2.232  1.6313 -0.3898  0.3316
14025TIP3   OH263489   2.782   1.186   1.500  0.0334  0.0622  0.2557
14025TIP3    H163490   2.842   1.135   1.555  0.6602  1.0352  0.5017
14025TIP3    H263491   2.837   1.257   1.465 -0.3932 -0.4348 -1.4888
14026TIP3   OH263492   1.179   3.855   0.985 -0.6061  0.4764  0.4417
14026TIP3    H163493   1.142   3.913   1.052  3.2918  3.1662  0.4264
14026TIP3    H263494   1.219   3.784   1.034 -0.4287  0.8135  0.7868
14027TIP3   OH263495   5.395   2.103   3.748  0.2072  0.6335 -0.3278
14027TIP3    H163496   5.469   2.124   3.805 -0.4360 -0.9468  1.0959
14027TIP3    H263497   5.343   2.183   3.747  1.4999  1.5022 -0.7264
14028TIP3   OH263498   4.141   1.238   0.441  0.1605  0.0305  0.0779
14028TIP3    H163499   4.123   1.144   0.442 -1.6129  0.3669  1.9912
14028TIP3    H263500   4.069   1.275   0.390 -0.8961  0.6733  2.0090
14029TIP3   OH263501   2.456   2.215  10.504 -0.4885 -0.1609 -0.6794
14029TIP3    H163502   2.423   2.156  10.436  2.1352 -2.1940 -0.2929
14029TIP3    H263503   2.525   2.265  10.459 -0.4897  0.2965 -0.1693
14030TIP3   OH263504   1.581   4.118   2.921  0.1985 -0.2776 -0.0229
14030TIP3    H163505   1.518   4.152   2.984 -0.9797  2.1230 -2.3939
14030TIP3    H263506   1.548   4.030   2.900  0.0601 -0.7033  1.9120
14031TIP3   OH263507   1.613   1.741  13.572  0.5865 -0.2509  0.1590
14031TIP3    H163508   1.653   1.656  13.590  0.7836 -0.0770  0.5410
14031TIP3    H263509   1.527   1.736  13.612  0.3111 -0.5401 -0.4611
14032TIP3   OH263510   0.965   0.855   4.432 -0.8602  0.4542  0.0264
14032TIP3    H163511   1.043   0.845   4.378 -0.5142  0.2064  0.5601
14032TIP3    H263512   0.893   0.864   4.370 -0.8358 -2.5362 -0.5253
14033TIP3   OH263513   2.313   0.144   6.006  0.5661 -0.4418  0.1141
14033TIP3    H163514   2.274   0.120   5.922 -0.3482  1.7188 -0.1004
14033TIP3    H263515   2.240   0.177   6.058  1.1219 -1.7679  1.7959
14034TIP3   OH263516   2.535   1.623   1.732 -0.0217 -0.1697  0.1227
14034TIP3    H163517   2.498   1.605   1.645  0.1658 -0.0985  0.0276
14034TIP3    H263518   2.613   1.675   1.714 -0.5341  0.7014  0.4011
14035TIP3   OH263519   3.270   2.187  15.881 -0.5114 -0.1657  0.3315
14035TIP3    H163520   3.211   2.245  15.929 -2.2446 -0.7623 -1.0161
14035TIP3    H263521   3.259   2.213  15.789 -1.5500 -2.8393 -0.3278
14036TIP3   OH263522   1.531   6.272   0.960 -0.1697 -0.0871  0.0360
14036TIP3    H163523   1.545   6.277   0.865  1.8078  3.3591  0.4313
14036TIP3    H263524   1.617   6.252   0.996 -0.4055  0.9721  1.2352
14037TIP3   OH263525   2.538   0.502  11.600 -0.6359 -0.7069  0.6238
14037TIP3    H163526   2.564   0.467  11.685  0.0054 -2.1164 -0.1417
14037TIP3    H263527   2.568   0.437  11.537 -0.5798  0.6180 -0.7345
14038TIP3   OH263528   5.553   6.036   0.653 -0.1327 -0.1442  0.1153
14038TIP3    H163529   5.636   5.996   0.680 -0.7121 -1.8579 -0.5909
14038TIP3    H263530   5.492   6.013   0.724 -0.2985  0.0930  0.0490
14039TIP3   OH263531   4.199   2.724   0.022 -0.4919 -0.1781 -0.2855
14039TIP3    H163532   4.170   2.799  -0.029  1.4195 -0.2375 -1.5127
14039TIP3    H263533   4.119   2.677   0.044 -1.6637  1.8605 -0.0184
14040TIP3   OH263534   5.978   0.652  14.540  0.3783 -0.1070 -0.8128
14040TIP3    H163535   5.915   0.631  14.609  0.1223  1.6498 -0.4709
14040TIP3    H263536   5.925   0.659  14.461  0.2094  0.8143 -0.6276
14041TIP3   OH263537   5.836   4.321  14.469 -0.3003 -0.1031  0.4359
14041TIP3    H163538   5.858   4.376  14.394  0.1979 -1.9255 -0.7764
14041TIP3    H263539   5.875   4.366  14.544 -0.4290  1.5051 -0.4458
14042TIP3   OH263540   3.574   2.935  13.217  0.2391  0.9136 -0.4270
14042TIP3    H163541   3.482   2.958  13.230 -0.0346  0.0261 -0.7475
14042TIP3    H263542   3.593   2.959  13.126  0.1171  0.4395 -0.5807
14043TIP3   OH263543   3.107   3.682   0.849  0.1778  0.3603  0.2332
14043TIP3    H163544   3.051   3.638   0.785  1.3780 -1.2684  0.2925
14043TIP3    H263545   3.175   3.725   0.796  2.2823 -2.5494  0.4483
14044TIP3   OH263546   5.685   0.344   3.505 -0.0480 -0.0448  0.4235
14044TIP3    H163547   5.743   0.410   3.467 -1.4592  0.3479 -1.1072
14044TIP3    H263548   5.659   0.289   3.431 -1.2179 -0.5288  1.1801
14045TIP3   OH263549   0.108   0.010   0.591  0.2639  0.6856 -0.1660
14045TIP3    H163550   0.085  -0.083   0.597  0.4349  0.6855  0.5150
14045TIP3    H263551   0.077   0.037   0.504  0.0762  0.0311 -0.3026
14046TIP3   OH263552   6.166   3.869  10.451 -0.2598  0.2389  0.3594
14046TIP3    H163553   6.249   3.870  10.403 -0.2887 -0.9526  0.2805
14046TIP3    H263554   6.166   3.785  10.497 -1.9678 -0.3163 -0.5926
14047TIP3   OH263555   6.731   1.784   1.754 -0.2764  0.0084 -0.0001
14047TIP3    H163556   6.678   1.811   1.678 -0.5292 -0.1818  0.1062
14047TIP3    H263557   6.669   1.785   1.827  0.1187  0.8477  0.3329
14048TIP3   OH263558   5.289   0.435  15.218 -0.1589 -0.3437 -0.3080
14048TIP3    H163559   5.308   0.509  15.160 -0.8838  0.2635  0.2180
14048TIP3    H263560   5.340   0.362  15.182 -0.8355 -0.0561 -1.8909
14049TIP3   OH263561   6.665   3.805   2.805  0.2302  0.4811  0.2569
14049TIP3    H163562   6.591   3.766   2.852  0.4949  0.1097  0.3668
14049TIP3    H263563   6.720   3.731   2.782 -0.7439  0.4623 -2.1816
14050TIP3   OH263564   1.032   1.272   5.538 -0.1265  0.1124 -0.1582
14050TIP3    H163565   0.987   1.268   5.622  0.2447 -1.5730 -0.0372
14050TIP3    H263566   1.024   1.184   5.502 -0.2059  0.7996 -1.8520
14051TIP3   OH263567   2.680   5.238   5.012 -0.0072 -0.5195 -0.8873
14051TIP3    H163568   2.731   5.207   4.937  1.0703  0.1957 -0.4503
14051TIP3    H263569   2.744   5.246   5.083 -0.9028 -0.5420 -0.0678
14052TIP3   OH263570   0.873   4.556   3.900 -0.1305 -0.0464  0.1856
14052TIP3    H163571   0.789   4.571   3.858  0.4857 -0.5430 -1.2595
14052TIP3    H263572   0.912   4.483   3.850  0.8731 -0.2385  1.2289
14053TIP3   OH263573   1.010   4.140  15.309  0.2354  0.5334 -0.7213
14053TIP3    H163574   0.933   4.195  15.322  0.7561  1.1681 -0.2988
14053TIP3    H263575   1.065   4.157  15.386 -0.1521 -1.5118  0.0519
14054TIP3   OH263576   2.948   6.710  11.693 -0.4325  0.1906  0.0142
14054TIP3    H163577   2.905   6.628  11.714 -1.1944  0.7268  0.5906
14054TIP3    H263578   3.039   6.686  11.677 -0.8521 -0.8993 -0.8285
14055TIP3   OH263579   0.417   6.480  14.860 -0.1926 -0.0640  0.5398
14055TIP3    H163580   0.359   6.467  14.785 -0.8902 -0.0507  1.0709
14055TIP3    H263581   0.391   6.412  14.923 -2.7271  2.7539  2.6465
14056TIP3   OH263582   1.609   6.567   1.787 -0.1826  0.2869  0.4308
14056TIP3    H163583   1.637   6.658   1.777  0.0307  0.2350  0.5522
14056TIP3    H263584   1.515   6.572   1.801 -0.4211  0.3956 -1.0708
14057TIP3   OH263585   4.116   3.355  15.223  0.1230  0.0064 -0.1268
14057TIP3    H163586   4.165   3.417  15.169 -0.3268 -0.8022 -1.4926
14057TIP3    H263587   4.037   3.336  15.172 -0.1706 -0.9964  0.6887
14058TIP3   OH263588   1.267   6.221   0.779 -0.6090 -0.7755 -0.4901
14058TIP3    H163589   1.244   6.163   0.707 -0.4360 -2.8044  1.0442
14058TIP3    H263590   1.357   6.248   0.759 -0.7925 -0.8074 -1.3747
14059TIP3   OH263591   4.930   2.379  11.071  0.0946 -0.2974 -0.0080
14059TIP3    H163592   4.991   2.449  11.046 -0.5664  0.4774  0.5416
14059TIP3    H263593   4.882   2.360  10.990  0.2320 -0.0593 -0.1467
14060TIP3   OH263594   3.282   3.856   0.754  0.2978 -0.4863 -0.3471
14060TIP3    H163595   3.375   3.861   0.730 -0.0031  0.3475 -1.4162
14060TIP3    H263596   3.249   3.946   0.741 -0.7065 -0.8215 -0.1876
14061TIP3   OH263597   0.592   2.319  15.004 -0.1006 -0.2794 -0.1838
14061TIP3    H163598   0.658   2.386  15.020 -1.2012  0.3157  2.0118
14061TIP3    H263599   0.637   2.236  15.023  0.3498  0.0336  0.1112
14062TIP3   OH263600   2.415   1.346  13.066  0.0547 -0.0273  0.4414
14062TIP3    H163601   2.384   1.274  13.011 -0.5549  0.3760  0.2583
14062TIP3    H263602   2.378   1.424  13.026  0.5303  0.3720  0.7760
14063TIP3   OH263603   1.629   3.865  16.046 -0.1669 -0.4058 -0.1606
14063TIP3    H163604   1.595   3.776  16.060  2.1631 -1.1412  1.1822
14063TIP3    H263605   1.696   3.876  16.113  0.5998  1.8394 -1.2323
14064TIP3   OH263606   0.771   6.551   2.078 -0.0694 -0.6440  0.4772
14064TIP3    H163607   0.683   6.514   2.077 -1.0834  1.7084 -1.2120
14064TIP3    H263608   0.760   6.641   2.106  1.6962 -0.0830 -0.5034
14065TIP3   OH263609   2.762   2.039  11.375 -0.0565  0.1421 -0.0985
14065TIP3    H163610   2.807   2.041  11.291 -0.0353 -2.1399 -0.1917
14065TIP3    H263611   2.776   2.126  11.413  2.0941  0.3599 -1.3264
14066TIP3   OH263612   3.329   0.165   5.204  0.1501 -0.5434  0.0795
14066TIP3    H163613   3.393   0.204   5.264 -2.2530  1.0723  1.6533
14066TIP3    H263614   3.375   0.161   5.120  2.4372  0.2120  1.2397
14067TIP3   OH263615   3.880   1.560  16.291  0.0111 -0.4604 -0.3553
14067TIP3    H163616   3.826   1.481  16.283 -1.7026  0.6855 -0.2889
14067TIP3    H263617   3.928   1.564  16.208 -1.4850 -0.4331 -1.2392
14068TIP3   OH263618   6.668   3.776   3.823 -0.5735 -0.1080 -0.7738
14068TIP3    H163619   6.672   3.694   3.774 -1.2835 -0.8720  0.4002
14068TIP3    H263620   6.743   3.827   3.792  0.6943 -1.7845 -0.5104
14069TIP3   OH263621   1.288   1.949  12.030 -0.0274  0.6339 -0.1747
14069TIP3    H163622   1.327   1.961  12.116  0.3289 -1.0453 -0.1027
14069TIP3    H263623   1.195   1.935  12.048  0.2009 -0.7046  0.0188
14070TIP3   OH263624   0.624   6.663  14.509 -0.8143  0.0458 -0.6118
14070TIP3    H163625   0.554   6.676  14.573  0.2301  0.2691  0.5041
14070TIP3    H263626   0.588   6.601  14.446 -2.3352  0.8348 -0.5475
14071TIP3   OH263627   4.238   5.637  16.438  0.1744  0.0486 -0.1143
14071TIP3    H163628   4.306   5.655  16.374 -0.0726 -0.0866 -0.4152
14071TIP3    H263629   4.284   5.625  16.520  0.3902  1.5570 -0.0048
14072TIP3   OH263630   3.752   4.798  14.249  0.1854 -0.1928  0.3120
14072TIP3    H163631   3.660   4.820  14.269  0.0243 -0.7396  0.1678
14072TIP3    H263632   3.749   4.759  14.162  0.7539  1.1522 -0.3203
14073TIP3   OH263633   2.043   5.155  12.238 -0.7325 -0.0091  0.2308
14073TIP3    H163634   2.134   5.170  12.214  0.4478 -2.7422  2.6555
14073TIP3    H263635   2.034   5.195  12.324 -1.6405 -0.2700  0.2644
14074TIP3   OH263636   1.603   5.164   2.911  0.5075  0.1665  0.1779
14074TIP3    H163637   1.523   5.112   2.902  0.5859 -0.1201  1.0391
14074TIP3    H263638   1.589   5.239   2.854 -0.0098 -0.3220 -0.3434
14075TIP3   OH263639   4.537   6.178   1.038 -0.1682 -0.3092 -0.4421
14075TIP3    H163640   4.599   6.249   1.020  1.7571 -1.5006  1.3332
14075TIP3    H263641   4.492   6.205   1.118 -1.2018  0.0513 -1.1362
14076TIP3   OH263642   1.221   3.283   3.345  0.2602  0.0150  0.1103
14076TIP3    H163643   1.296   3.257   3.292  0.2651  2.1643 -0.9597
14076TIP3    H263644   1.256   3.293   3.434  1.4164  1.8017 -0.5347
14077TIP3   OH263645   6.171   4.043  14.655  0.7216  0.0723 -0.1616
14077TIP3    H163646   6.229   4.008  14.588  0.0823 -0.7589 -0.2829
14077TIP3    H263647   6.086   4.052  14.612  0.4971  0.2760  0.3136
14078TIP3   OH263648   4.227   4.044   5.012  0.6182  0.2688 -0.0053
14078TIP3    H163649   4.229   3.951   4.986  0.4865  0.6289 -1.3321
14078TIP3    H263650   4.263   4.044   5.101 -0.2102 -1.1661  0.3613
14079TIP3   OH263651   0.732   4.487  11.056 -0.0090  0.7011  0.4318
14079TIP3    H163652   0.724   4.505  11.149  0.9123  0.1897  0.6076
14079TIP3    H263653   0.811   4.434  11.048  0.3576  1.4040 -0.7300
14080TIP3   OH263654   0.877   6.462   0.485 -0.2314 -0.1028  0.0474
14080TIP3    H163655   0.848   6.486   0.397  2.0421 -0.1874 -0.7633
14080TIP3    H263656   0.804   6.413   0.522 -1.5965  0.7995 -1.4288
14081TIP3   OH263657   4.692   6.114  11.494 -0.1212  0.2764  0.0307
14081TIP3    H163658   4.606   6.119  11.536 -0.9630 -1.2915 -1.4211
14081TIP3    H263659   4.752   6.092  11.565 -0.9549  1.1059  1.0140
14082TIP3   OH263660   4.616   1.954   0.068  0.0161  0.1580  0.1824
14082TIP3    H163661   4.661   1.870   0.075  1.1927  0.8866  1.6211
14082TIP3    H263662   4.534   1.934   0.024  0.0357 -1.8371  1.0227
14083TIP3   OH263663   1.240   2.462   2.510  0.2261  0.0038 -0.2184
14083TIP3    H163664   1.165   2.406   2.492  0.7248 -0.3725 -1.1373
14083TIP3    H263665   1.315   2.403   2.512  0.7116  0.5812 -0.8987
14084TIP3   OH263666   6.692   3.060   0.862  0.0374  0.5012 -0.2465
14084TIP3    H163667   6.694   2.968   0.836 -0.4225  0.5246 -0.3740
14084TIP3    H263668   6.726   3.061   0.951 -0.2778  0.1634 -0.1191
14085TIP3   OH263669   4.461   6.629  10.601  0.1598  0.3495 -0.1001
14085TIP3    H163670   4.516   6.572  10.655 -1.3754 -2.6733 -1.6120
14085TIP3    H263671   4.423   6.691  10.663 -0.2668 -2.0087  2.0879
14086TIP3   OH263672   0.496   2.182  14.441 -0.0542 -0.0830  0.2112
14086TIP3    H163673   0.417   2.225  14.410 -0.7008 -1.5487 -0.2486
14086TIP3    H263674   0.468   2.130  14.516  0.5394 -0.3328  0.2687
14087TIP3   OH263675   3.498   0.515  16.352  0.1794  0.0582 -0.5483
14087TIP3    H163676   3.482   0.449  16.420  1.7866  0.1869 -0.0171
14087TIP3    H263677   3.532   0.590  16.400  2.2515 -0.1883 -1.5786
14088TIP3   OH263678   0.725   6.710   1.609 -0.0558 -0.2643 -0.5350
14088TIP3    H163679   0.732   6.741   1.699  1.6332 -0.6239 -0.5296
14088TIP3    H263680   0.798   6.751   1.563  0.7113 -2.2096 -1.1134
14089TIP3   OH263681   2.412   5.887  14.569 -0.4333  0.0007 -0.7380
14089TIP3    H163682   2.353   5.960  14.587  0.5492 -0.3575  4.4611
14089TIP3    H263683   2.355   5.810  14.567 -0.5405  0.0099  1.4134
14090TIP3   OH263684   4.940   1.309  13.124  0.0246 -0.7363  0.2743
14090TIP3    H163685   5.015   1.324  13.182 -0.3678  0.4616  0.4907
14090TIP3    H263686   4.865   1.344  13.173 -0.3659 -0.0368 -0.8194
14091TIP3   OH263687   4.507   6.219  14.830  0.6026  0.0543 -0.1582
14091TIP3    H163688   4.422   6.258  14.810  0.3147 -0.4910 -0.0052
14091TIP3    H263689   4.509   6.138  14.778 -0.2425 -1.4906  2.1538
14092TIP3   OH263690   0.863   4.110  14.980  0.1845 -0.3262 -0.6915
14092TIP3    H163691   0.915   4.056  15.039 -2.1903 -0.8432  0.9824
14092TIP3    H263692   0.821   4.047  14.921  0.4604  0.0166 -1.2682
14093TIP3   OH263693   0.967   4.718  14.601 -0.4997 -0.3653  0.2552
14093TIP3    H163694   1.015   4.773  14.663 -0.4224  1.3547 -1.3046
14093TIP3    H263695   0.875   4.740  14.616 -0.4121  0.9545 -1.0539
14094TIP3   OH263696   0.955   3.980  16.608 -0.1130 -0.0864  1.0664
14094TIP3    H163697   0.913   3.973  16.694 -1.8826  0.0867  0.2538
14094TIP3    H263698   0.971   3.889  16.582 -2.6421 -0.3071  0.1573
14095TIP3   OH263699   2.699   5.469   2.898  0.4179  0.5065 -0.0261
14095TIP3    H163700   2.680   5.387   2.943  0.3216  0.3585 -0.3292
14095TIP3    H263701   2.625   5.526   2.919 -0.4618 -0.1160 -1.3123
14096TIP3   OH263702   1.328   4.638   1.524  0.4743 -0.0738 -0.4645
14096TIP3    H163703   1.253   4.695   1.541 -1.6465 -2.1053 -2.6053
14096TIP3    H263704   1.373   4.679   1.450 -1.5188 -1.5127 -2.5455
14097TIP3   OH263705   2.889   2.016  13.146 -0.2493 -0.1053  0.2466
14097TIP3    H163706   2.869   1.990  13.235 -3.3087 -1.7292 -0.8402
14097TIP3    H263707   2.912   1.935  13.101  0.3271  0.5597 -0.6820
14098TIP3   OH263708   3.176   1.169   3.352  0.6890 -0.2075 -0.0587
14098TIP3    H163709   3.236   1.095   3.356 -0.5386 -1.2852 -1.0893
14098TIP3    H263710   3.117   1.156   3.426  1.5037  0.6709  0.7580
14099TIP3   OH263711   3.194   5.657  16.801 -0.4957  0.4581 -0.3460
14099TIP3    H163712   3.189   5.748  16.831 -1.4474  0.6925 -1.1603
14099TIP3    H263713   3.250   5.661  16.723 -1.1884  0.4949 -0.8541
14100TIP3   OH263714   0.524   5.518   1.939 -0.1379  0.0391 -0.2755
14100TIP3    H163715   0.526   5.613   1.954 -0.9174  0.1768 -1.0142
14100TIP3    H263716   0.572   5.481   2.013  0.0342  1.0010  0.1005
14101TIP3   OH263717   5.920   1.041   0.146 -0.5368 -0.1514 -0.2113
14101TIP3    H163718   5.916   1.136   0.158 -0.3710 -0.1648 -0.0432
14101TIP3    H263719   5.959   1.029   0.060  0.5016 -0.0781  0.2349
14102TIP3   OH263720   2.436   3.323   4.682  0.0551  0.1967  0.1242
14102TIP3    H163721   2.359   3.367   4.718  0.4607  0.7539  0.3055
14102TIP3    H263722   2.494   3.394   4.654  0.3280 -0.2215 -0.3922
14103TIP3   OH263723   1.067   6.734  14.264 -0.3323 -0.3946 -0.2933
14103TIP3    H163724   0.978   6.701  14.253 -1.6026  3.5328 -3.3571
14103TIP3    H263725   1.067   6.775  14.350 -1.6373 -0.1644 -0.3900
14104TIP3   OH263726   1.545   3.849  12.487 -0.5754  0.3775 -0.3650
14104TIP3    H163727   1.590   3.873  12.569  0.4429  0.0196 -0.8051
14104TIP3    H263728   1.500   3.767  12.508 -1.0642  0.7650  0.0996
14105TIP3   OH263729   1.760   6.097  11.938  0.2126  0.5924 -0.0795
14105TIP3    H163730   1.688   6.149  11.905  0.2454  1.5198  1.2666
14105TIP3    H263731   1.839   6.145  11.912  0.2491  1.1066  0.9392
14106TIP3   OH263732   2.426   5.946   0.986 -0.3919  0.4273  0.8362
14106TIP3    H163733   2.438   5.960   0.892 -0.7510  0.8658  0.8532
14106TIP3    H263734   2.488   6.007   1.027  1.8929 -1.8471  0.8638
14107TIP3   OH263735   2.932   4.817  12.053 -0.3571  0.0004 -0.3721
14107TIP3    H163736   2.900   4.753  11.990 -0.7805 -0.3950  0.2340
14107TIP3    H263737   2.913   4.778  12.138  1.2217  0.0143  0.0123
14108TIP3   OH263738   4.766   3.030   4.492  0.5548  0.4493  0.7644
14108TIP3    H163739   4.784   2.996   4.580  0.7499 -1.9296 -0.1487
14108TIP3    H263740   4.671   3.031   4.485  0.5499 -0.5890  0.5696
14109TIP3   OH263741   5.455   4.921  12.344  0.5501  0.6773 -0.2201
14109TIP3    H163742   5.513   4.880  12.408  0.6399 -0.7976 -1.2208
14109TIP3    H263743   5.474   5.015  12.351 -0.7947  0.7557  3.2304
14110TIP3   OH263744   0.361   5.232   4.083  0.0534 -0.4785 -0.0661
14110TIP3    H163745   0.339   5.152   4.035  1.3638  0.0011 -1.5048
14110TIP3    H263746   0.311   5.301   4.039  3.1000  0.3667 -2.3841
14111TIP3   OH263747   0.665   1.140  11.595  0.4104 -0.1975 -0.1063
14111TIP3    H163748   0.589   1.162  11.542  1.3268  1.3792 -0.8120
14111TIP3    H263749   0.632   1.134  11.684 -0.4931  0.7124 -0.3816
14112TIP3   OH263750   1.082   3.517  11.816  0.0143 -0.5773 -1.0336
14112TIP3    H163751   1.104   3.441  11.761  1.0215  0.3718 -1.9825
14112TIP3    H263752   1.167   3.552  11.842 -0.4584 -0.8192  0.8889
14113TIP3   OH263753   6.643   2.216   5.246 -0.4605  0.2705  0.1410
14113TIP3    H163754   6.702   2.238   5.173 -1.6756 -0.2355 -1.0145
14113TIP3    H263755   6.657   2.122   5.260  1.8474  0.8922  2.4769
14114TIP3   OH263756   3.915   0.735   6.555  0.0113 -0.2612  0.4891
14114TIP3    H163757   3.960   0.783   6.486  2.3735 -0.2232  1.9829
14114TIP3    H263758   3.892   0.802   6.620  0.1932 -0.6454  0.9577
14115TIP3   OH263759   1.527   3.259   2.029 -0.0267 -0.2030  0.5245
14115TIP3    H163760   1.566   3.322   1.968 -0.5693  0.9528  1.3307
14115TIP3    H263761   1.438   3.292   2.043 -0.7845 -1.9457 -0.1134
14116TIP3   OH263762   5.510   1.128   4.388  0.0475  0.3612 -0.6910
14116TIP3    H163763   5.439   1.070   4.359 -0.3673  0.3377  0.3154
14116TIP3    H263764   5.563   1.074   4.446  0.8095  0.4274 -1.3195
14117TIP3   OH263765   3.467   1.312  11.722  0.8959 -0.0412 -0.7761
14117TIP3    H163766   3.529   1.363  11.670  1.5636  1.2237  1.1940
14117TIP3    H263767   3.519   1.278  11.795 -0.3881 -0.3650  0.0031
14118TIP3   OH263768   2.188   2.043   2.525  0.3672  0.4624 -0.5465
14118TIP3    H163769   2.279   2.069   2.516  0.9993 -2.1165 -2.1474
14118TIP3    H263770   2.185   1.953   2.492 -2.7507  0.5074 -0.5602
14119TIP3   OH263771   0.106   2.903  10.774 -0.1596 -0.1355  0.0605
14119TIP3    H163772   0.119   2.998  10.782 -3.2229  0.2900  0.6916
14119TIP3    H263773   0.082   2.891  10.682 -0.0364 -0.2622  0.0457
14120TIP3   OH263774   4.223   2.790  15.821 -0.2794  0.8777 -0.2196
14120TIP3    H163775   4.203   2.833  15.904  2.0729 -0.5079  1.1250
14120TIP3    H263776   4.248   2.861  15.762 -1.0532  1.7754  0.5118
14121TIP3   OH263777   1.381   5.834   4.166  0.1011 -0.6022  0.2165
14121TIP3    H163778   1.336   5.837   4.251  0.1482 -2.2472  0.3230
14121TIP3    H263779   1.457   5.891   4.177 -0.4494  0.0107  0.9411
14122TIP3   OH263780   5.493   1.132   0.889  0.0045  0.0244  0.0857
14122TIP3    H163781   5.492   1.047   0.932  3.1358  0.5051  1.2109
14122TIP3    H263782   5.520   1.114   0.799  1.1026 -0.1520  0.4431
14123TIP3   OH263783   5.267   2.290   1.340 -0.3428 -0.0626 -0.8897
14123TIP3    H163784   5.221   2.232   1.281 -0.9474  0.8184 -1.2858
14123TIP3    H263785   5.276   2.372   1.292  1.4159 -0.1423 -0.7320
14124TIP3   OH263786   4.783   6.670  11.586  0.1297 -0.8885 -0.0372
14124TIP3    H163787   4.852   6.616  11.625 -0.7681 -1.8403  0.2664
14124TIP3    H263788   4.794   6.756  11.628 -0.0088 -1.5365  1.3825
14125TIP3   OH263789   3.690   5.989   0.995  0.0802 -0.1807 -0.3852
14125TIP3    H163790   3.626   6.017   1.061  1.1167 -0.1235  0.6256
14125TIP3    H263791   3.750   6.063   0.986  0.8572 -0.7744 -0.2215
14126TIP3   OH263792   3.807   0.020  16.458 -0.3420  0.4580  0.2394
14126TIP3    H163793   3.891  -0.001  16.418  0.6205  2.8254  0.9242
14126TIP3    H263794   3.819   0.002  16.551 -1.3052 -1.2664  0.0450
14127TIP3   OH263795   2.290   3.942  16.201  0.0982  0.4743  0.2204
14127TIP3    H163796   2.242   3.876  16.251 -2.0952  0.7948 -1.3776
14127TIP3    H263797   2.341   3.989  16.267  0.6878 -1.9626  1.5299
14128TIP3   OH263798   3.889   3.012  11.868  0.0558 -0.3691  0.4964
14128TIP3    H163799   3.822   2.980  11.929 -0.5599 -2.5419 -1.2588
14128TIP3    H263800   3.841   3.071  11.810  0.1895 -0.0042  0.7551
14129TIP3   OH263801   5.436   6.004   2.904  0.2225  0.3785 -0.4091
14129TIP3    H163802   5.418   5.968   2.991 -2.2320  1.9914 -0.2143
14129TIP3    H263803   5.420   5.931   2.845  0.6405 -0.3759  0.3961
14130TIP3   OH263804   1.341   2.883   2.415  0.0993  0.2802 -0.0099
14130TIP3    H163805   1.408   2.900   2.349 -0.7902 -3.3464 -2.0137
14130TIP3    H263806   1.287   2.962   2.417  2.0077  1.6486 -1.3196
14131TIP3   OH263807   4.447   5.246  14.711 -0.2889 -0.2076 -0.5828
14131TIP3    H163808   4.514   5.287  14.656  0.8037 -0.6947  0.3712
14131TIP3    H263809   4.416   5.317  14.768 -0.8489  0.0980 -1.2434
14132TIP3   OH263810   4.424   3.444   6.476 -0.6495 -0.0770 -0.1609
14132TIP3    H163811   4.496   3.502   6.449  0.5665 -1.1703  0.6511
14132TIP3    H263812   4.398   3.478   6.562 -0.1191 -0.5677  0.1948
14133TIP3   OH263813   6.010   6.321   3.887 -0.3171  0.1411  0.7310
14133TIP3    H163814   5.936   6.333   3.827 -1.3961 -1.1907  1.7702
14133TIP3    H263815   6.053   6.242   3.856  1.3921  1.5422 -0.5721
14134TIP3   OH263816   3.721   3.810   2.268  0.7366  1.0675  0.0044
14134TIP3    H163817   3.636   3.853   2.256 -0.4978 -0.8452  1.5264
14134TIP3    H263818   3.750   3.838   2.354  1.0316  0.7413  0.0129
14135TIP3   OH263819   0.852   5.943   4.817  0.5347  0.0607  0.4476
14135TIP3    H163820   0.774   5.947   4.873  1.1725 -0.9484  1.4387
14135TIP3    H263821   0.918   5.994   4.865  0.0813  2.1715 -1.0964
14136TIP3   OH263822   5.898   5.323   5.483 -0.2214 -0.1385  0.1970
14136TIP3    H163823   5.901   5.418   5.498 -0.8814  0.0181 -0.6240
14136TIP3    H263824   5.981   5.302   5.442 -0.2587  0.1631 -0.0339
14137TIP3   OH263825   4.694   3.638   1.098  0.3408  0.4262 -0.0503
14137TIP3    H163826   4.782   3.608   1.076  0.6173  0.4027  1.0520
14137TIP3    H263827   4.645   3.558   1.118  1.0085  0.6262  2.6324
14138TIP3   OH263828   1.294   4.128   4.597 -0.1553 -0.5387 -0.1762
14138TIP3    H163829   1.309   4.222   4.608  0.1680 -0.6329  0.2069
14138TIP3    H263830   1.290   4.094   4.686 -0.8355 -0.8022 -0.3035
14139TIP3   OH263831   1.426   0.434   4.257  0.2474  0.2364 -0.1436
14139TIP3    H163832   1.446   0.523   4.230  1.2824 -0.0346 -0.2835
14139TIP3    H263833   1.336   0.438   4.289  0.0275  1.1647 -0.8744
14140TIP3   OH263834   4.217   0.790   2.117  0.4137 -0.1891  0.0348
14140TIP3    H163835   4.197   0.874   2.159 -0.9736 -0.4552 -0.1031
14140TIP3    H263836   4.236   0.814   2.026  0.5064  0.0328  0.1107
14141TIP3   OH263837   4.329   0.344   4.987  0.0671  0.4252  0.0606
14141TIP3    H163838   4.263   0.279   4.962 -0.1008  0.3461  0.6983
14141TIP3    H263839   4.290   0.428   4.964 -0.2576  0.3782  0.4453
14142TIP3   OH263840   1.766   6.583  13.417 -0.2587 -0.0477  0.4394
14142TIP3    H163841   1.672   6.596  13.409 -0.1988  0.0609 -0.0626
14142TIP3    H263842   1.804   6.642  13.352  0.1489 -0.2501  0.4927
14143TIP3   OH263843   5.438   2.595  12.147  0.2483  0.2771  1.1497
14143TIP3    H163844   5.467   2.659  12.211 -2.7173  1.5206  1.2801
14143TIP3    H263845   5.396   2.646  12.078 -0.4052 -1.3642  0.2972
14144TIP3   OH263846   1.719   0.081  11.736  0.1843 -0.4109 -0.4973
14144TIP3    H163847   1.675   0.055  11.817  0.8547 -0.6999 -0.2251
14144TIP3    H263848   1.778   0.009  11.716  0.8401  0.1572 -0.6327
14145TIP3   OH263849   2.569   2.661  14.454  0.1640 -0.3206 -0.0930
14145TIP3    H163850   2.483   2.696  14.476  1.2618  0.7285  2.7834
14145TIP3    H263851   2.601   2.718  14.384 -1.0091 -0.0293 -0.4021
14146TIP3   OH263852   1.381   0.646  13.764  0.3034 -0.5608  0.2094
14146TIP3    H163853   1.407   0.721  13.711  0.7476 -0.6535  0.2944
14146TIP3    H263854   1.318   0.598  13.710  0.2864 -0.3189  0.0187
14147TIP3   OH263855   4.466   1.075   3.711  0.0185 -0.3399  0.4470
14147TIP3    H163856   4.446   1.137   3.641 -1.2255  0.7559  1.7521
14147TIP3    H263857   4.449   1.123   3.792  0.5489 -1.8866  1.5008
14148TIP3   OH263858   4.789   6.018   3.310 -0.3393 -0.1710  0.2977
14148TIP3    H163859   4.825   6.038   3.223  1.1444  1.6840  1.3077
14148TIP3    H263860   4.707   5.972   3.291 -0.1744  0.4315 -2.0918
14149TIP3   OH263861   0.269   1.688  11.264  0.1913  0.1121 -0.3032
14149TIP3    H163862   0.345   1.646  11.224  0.5408  1.9155 -1.6374
14149TIP3    H263863   0.288   1.782  11.258 -1.4692  0.5384  0.7132
14150TIP3   OH263864   3.604   3.241  16.315  0.6367  0.8841 -0.0952
14150TIP3    H163865   3.557   3.280  16.241 -2.0273  1.0659  1.6070
14150TIP3    H263866   3.612   3.148  16.292  1.0589  1.1936 -1.2193
14151TIP3   OH263867   3.519   0.555  11.825 -0.3187  0.1354  0.1586
14151TIP3    H163868   3.552   0.467  11.807  2.8159  1.2101  0.3317
14151TIP3    H263869   3.500   0.554  11.919 -1.5621 -0.7324 -0.0931
14152TIP3   OH263870   3.699   1.317   1.097 -0.1713 -0.1955 -0.5685
14152TIP3    H163871   3.713   1.259   1.172 -0.2536 -0.6347 -0.8891
14152TIP3    H263872   3.780   1.310   1.046 -0.2838 -0.2269 -0.7421
14153TIP3   OH263873   1.378   3.821   4.273  0.4172  0.3640 -0.2232
14153TIP3    H163874   1.454   3.823   4.214  0.8188 -2.8590  0.0790
14153TIP3    H263875   1.411   3.861   4.354  1.3750  0.3132 -0.5719
14154TIP3   OH263876   4.212   1.421  15.196 -0.0207 -0.1792 -0.1334
14154TIP3    H163877   4.188   1.331  15.217 -2.5294  0.5972  0.5861
14154TIP3    H263878   4.128   1.468  15.194  1.2064  2.0590 -0.8575
14155TIP3   OH263879   0.554   6.757  13.399  0.3639  0.1299  0.3166
14155TIP3    H163880   0.494   6.684  13.414  1.1716 -0.5933  0.0714
14155TIP3    H263881   0.607   6.761  13.479  0.7109  0.0626  0.0936
14156TIP3   OH263882   0.561   3.573   4.264  0.0485 -0.1398  0.0805
14156TIP3    H163883   0.559   3.624   4.345  0.7188 -1.3067  0.8355
14156TIP3    H263884   0.600   3.489   4.289 -1.6913 -1.2971 -0.9835
14157TIP3   OH263885   5.543   2.333   0.064 -0.5189  0.1800 -0.3327
14157TIP3    H163886   5.457   2.310   0.030 -1.8971  2.6960  1.3290
14157TIP3    H263887   5.578   2.397   0.002  0.2375 -0.9591 -1.0923
14158TIP3   OH263888   2.640   4.556   4.058 -0.1505 -0.7069 -0.3111
14158TIP3    H163889   2.727   4.574   4.025 -0.8411  0.5672 -1.4910
14158TIP3    H263890   2.596   4.511   3.986 -0.5593 -1.0831  0.1703
14159TIP3   OH263891   0.603   4.599   3.356  0.1298  0.6569 -0.4567
14159TIP3    H163892   0.576   4.516   3.318  0.3291  0.5355 -0.3396
14159TIP3    H263893   0.592   4.663   3.286  1.1919  0.3108 -0.9604
14160TIP3   OH263894   2.493   2.886  15.925  0.0711 -0.1234 -0.6615
14160TIP3    H163895   2.455   2.956  15.978 -0.9450 -0.8274 -0.4444
14160TIP3    H263896   2.482   2.807  15.979  1.2571 -0.4388 -0.8785
14161TIP3   OH263897   3.546   3.057   1.456  0.2789  0.4960  0.2409
14161TIP3    H163898   3.595   3.124   1.505  0.3406  0.2337  0.5368
14161TIP3    H263899   3.496   3.010   1.523 -0.5787  0.9269 -0.0860
14162TIP3   OH263900   3.708   4.604   0.604  0.5865  0.3760  0.0997
14162TIP3    H163901   3.657   4.685   0.597  0.1737  0.1716  0.6637
14162TIP3    H263902   3.767   4.619   0.678  1.1124  0.4826 -0.3373
14163TIP3   OH263903   0.194   2.986   6.022 -0.8080  0.2542  0.3229
14163TIP3    H163904   0.274   3.000   6.073 -0.8361 -0.4308  0.5765
14163TIP3    H263905   0.134   2.943   6.084 -0.5575 -1.3454 -0.4978
14164TIP3   OH263906   0.163   1.785  12.884  0.0213  0.3767  0.6122
14164TIP3    H163907   0.145   1.770  12.977  0.9523 -0.4126  0.6742
14164TIP3    H263908   0.076   1.789  12.843 -0.4320  2.0457  1.6936
14165TIP3   OH263909   0.089   2.999   4.793  0.6092  0.2494  0.1609
14165TIP3    H163910   0.049   3.009   4.879  1.2774  1.3768  0.3650
14165TIP3    H263911   0.058   2.915   4.760 -2.1185  1.2130  0.1847
14166TIP3   OH263912   1.667   2.915   0.911 -0.0285  0.3876  0.4842
14166TIP3    H163913   1.678   2.821   0.896  0.7533  0.4136  0.9097
14166TIP3    H263914   1.709   2.956   0.836  0.5145  0.4233  0.8079
14167TIP3   OH263915   1.079   2.543  15.213  0.3261  0.1335 -0.2518
14167TIP3    H163916   1.057   2.633  15.236 -1.5887 -0.1665 -0.8493
14167TIP3    H263917   1.081   2.497  15.297 -3.2335 -0.2105 -0.2742
14168TIP3   OH263918   2.059   1.179  11.530 -0.1069  0.0132  0.5433
14168TIP3    H163919   2.098   1.204  11.446  0.2438  2.5237  1.4065
14168TIP3    H263920   1.974   1.141  11.507 -0.5640  1.8174 -0.8998
14169TIP3   OH263921   2.878   1.777  16.711  0.1541  0.3022 -0.2150
14169TIP3    H163922   2.884   1.681  16.705 -0.2836  0.0023  3.1663
14169TIP3    H263923   2.804   1.800  16.655 -0.7242 -1.5395  0.1390
14170TIP3   OH263924   3.942   2.403  11.621  0.5536 -0.5945 -0.4230
14170TIP3    H163925   3.993   2.380  11.544  0.4899 -0.8457 -0.3899
14170TIP3    H263926   3.975   2.489  11.648 -0.4535  0.1891 -1.6282
14171TIP3   OH263927   5.803   0.569   1.435 -0.2820 -0.6447 -0.0748
14171TIP3    H163928   5.801   0.566   1.530  1.5616  0.0273  0.0155
14171TIP3    H263929   5.723   0.524   1.407 -2.3222  1.7153  1.8136
14172TIP3   OH263930   5.552   3.288  13.018  0.2752  0.0056  0.1444
14172TIP3    H163931   5.514   3.366  13.058 -1.0245 -1.2528  1.4084
14172TIP3    H263932   5.582   3.235  13.092 -0.9457 -1.7313 -0.5630
14173TIP3   OH263933   4.404   3.193   2.011  1.0019 -0.6877 -0.7257
14173TIP3    H163934   4.451   3.230   2.086 -0.0753  0.8161 -0.7621
14173TIP3    H263935   4.388   3.268   1.954 -1.8931 -1.0674 -0.4734
14174TIP3   OH263936   0.619   2.146   5.628  0.5957  0.1144 -0.2498
14174TIP3    H163937   0.670   2.175   5.553  3.0761  0.1377  1.3862
14174TIP3    H263938   0.533   2.186   5.616  1.5543  1.6722 -2.0854
14175TIP3   OH263939   5.958   1.881   5.645  0.4619  0.2402  0.8954
14175TIP3    H163940   5.987   1.863   5.556  0.5975  2.4297  0.4753
14175TIP3    H263941   5.863   1.865   5.643  0.6505 -0.9270  0.7061
14176TIP3   OH263942   0.439   1.281  16.519  0.1174 -0.4273  0.1835
14176TIP3    H163943   0.493   1.313  16.446  0.5502  0.6805  0.9768
14176TIP3    H263944   0.457   1.342  16.590 -2.0217 -0.1934  0.5300
14177TIP3   OH263945   3.720   6.454  12.720  0.5156 -0.4062 -0.3027
14177TIP3    H163946   3.681   6.508  12.789 -0.3571 -0.4458 -0.7480
14177TIP3    H263947   3.814   6.471  12.726  0.4042 -0.0933  0.6216
14178TIP3   OH263948   3.284   1.690  13.482  0.1199 -0.1618 -0.4436
14178TIP3    H163949   3.265   1.740  13.561  0.7064 -0.6956  0.0389
14178TIP3    H263950   3.268   1.752  13.411  2.5725  1.2740  0.2119
14179TIP3   OH263951   6.644   3.243   4.952 -0.2809 -0.0928 -0.2524
14179TIP3    H163952   6.587   3.299   5.005  0.4208 -1.1054  1.6249
14179TIP3    H263953   6.597   3.159   4.948 -0.4934  0.0871 -1.5417
14180TIP3   OH263954   1.318   6.452  15.474 -0.4467  0.5389  0.1451
14180TIP3    H163955   1.377   6.503  15.418  0.7426 -2.4049 -1.4052
14180TIP3    H263956   1.374   6.384  15.512 -1.8934  0.5820  2.4451
14181TIP3   OH263957   4.412   2.864   3.789 -0.2076  0.3848 -0.1776
14181TIP3    H163958   4.467   2.937   3.818 -0.7484  0.0522  1.7679
14181TIP3    H263959   4.357   2.844   3.865 -0.4138 -1.7116 -0.8533
14182TIP3   OH263960   1.361   4.501  12.436 -0.2600 -0.3234 -0.3393
14182TIP3    H163961   1.414   4.579  12.418 -1.2398  0.5598  0.4991
14182TIP3    H263962   1.355   4.456  12.352  0.7980  0.1992 -0.7084
14183TIP3   OH263963   5.449   2.200   4.801 -0.3394  0.4343  0.1921
14183TIP3    H163964   5.471   2.107   4.803 -1.0267  0.2781  0.7652
14183TIP3    H263965   5.530   2.244   4.773 -0.0630 -0.3464 -0.2289
14184TIP3   OH263966   5.280   3.862   5.827 -0.1922 -0.2306  0.2523
14184TIP3    H163967   5.256   3.785   5.776 -1.3752  0.7842 -0.7727
14184TIP3    H263968   5.248   3.843   5.915  3.0781 -2.5777  1.0302
14185TIP3   OH263969   3.646   3.551   5.160 -0.1500 -0.0850  0.3319
14185TIP3    H163970   3.696   3.616   5.111  1.1932 -0.9615  0.5177
14185TIP3    H263971   3.587   3.603   5.215  1.1401  0.9951  0.7215
14186TIP3   OH263972   2.069   3.883   4.472  0.3981  0.0087  0.2753
14186TIP3    H163973   2.027   3.913   4.553  2.0223  1.7605  0.4902
14186TIP3    H263974   2.144   3.832   4.502 -0.7313 -1.9390 -0.1280
14187TIP3   OH263975   3.121   2.464  15.119 -0.0208  0.1866  0.0650
14187TIP3    H163976   3.028   2.482  15.130 -0.0707 -0.9671  1.8610
14187TIP3    H263977   3.164   2.545  15.145 -0.5409  1.1197 -1.9032
14188TIP3   OH263978   6.730   4.172  11.812 -0.0276 -0.4395  0.0274
14188TIP3    H163979   6.673   4.096  11.801 -2.2128  1.0214  0.8528
14188TIP3    H263980   6.745   4.203  11.723  0.6029 -1.6219 -0.2907
14189TIP3   OH263981   1.746   5.540  13.708 -0.0280 -0.2484  0.5377
14189TIP3    H163982   1.692   5.616  13.730  0.4203  0.4644 -0.8361
14189TIP3    H263983   1.810   5.572  13.645  0.4315 -1.6654  0.2608
14190TIP3   OH263984   2.953   4.924   1.646 -0.4368 -0.0653  0.1288
14190TIP3    H163985   2.933   4.970   1.727 -0.2332 -0.1091  0.2043
14190TIP3    H263986   3.038   4.959   1.618 -0.7288  0.2941 -0.3173
14191TIP3   OH263987   6.378   1.638   2.092 -0.1142  0.2343  0.2847
14191TIP3    H163988   6.365   1.643   1.997  1.8106  0.9823  0.0265
14191TIP3    H263989   6.324   1.708   2.128 -1.0775 -0.2381 -0.2228
14192TIP3   OH263990   6.134   5.253   3.282 -0.5085 -0.3228 -0.0302
14192TIP3    H163991   6.043   5.226   3.268 -0.4563  0.3389 -1.6815
14192TIP3    H263992   6.131   5.348   3.286  0.1523 -0.2830 -0.3682
14193TIP3   OH263993   2.414   4.035  12.007 -0.0221 -0.8126 -0.5328
14193TIP3    H163994   2.441   4.056  11.918  0.8834  0.7755  0.1094
14193TIP3    H263995   2.343   4.095  12.026 -1.2072 -2.1371 -0.6908
14194TIP3   OH263996   5.680   0.027  15.493 -0.4134 -0.0557 -0.3783
14194TIP3    H163997   5.684   0.103  15.551 -1.6794 -1.0021  0.9986
14194TIP3    H263998   5.726   0.054  15.414  0.2411  1.7030  0.5851
14195TIP3   OH263999   0.664   5.473  11.863  0.1532  0.3491 -0.5875
14195TIP3    H164000   0.599   5.541  11.848  0.9150  1.7378  1.9858
14195TIP3    H264001   0.627   5.420  11.934  0.9555  0.0013 -0.4274
14196TIP3   OH264002   2.656   0.442  13.700  0.0219 -0.0116 -0.1347
14196TIP3    H164003   2.631   0.389  13.775 -1.3028  0.9668  0.1342
14196TIP3    H264004   2.702   0.382  13.641  0.6845 -0.8762  1.2502
14197TIP3   OH264005   2.935   0.743  15.120 -0.2798  0.2346 -0.1626
14197TIP3    H164006   2.920   0.666  15.066  5.3075 -1.0504 -0.1186
14197TIP3    H264007   2.935   0.710  15.210 -1.4526  0.9451  0.1065
14198TIP3   OH264008   1.657   4.730  15.087  0.1394  0.1311 -0.2189
14198TIP3    H164009   1.667   4.679  15.007 -0.7039 -1.7204  0.8150
14198TIP3    H264010   1.612   4.671  15.148  0.8217  1.4691  1.6432
14199TIP3   OH264011   0.290   1.762  14.572  0.2805  0.5354 -0.7879
14199TIP3    H164012   0.383   1.764  14.595  0.2315 -2.3998 -0.0859
14199TIP3    H264013   0.285   1.808  14.488  2.6916 -0.8400 -1.7463
14200TIP3   OH264014   3.325   4.469  17.180 -0.0071  0.3319 -0.7271
14200TIP3    H164015   3.337   4.378  17.207  1.0862  0.7646  0.2916
14200TIP3    H264016   3.400   4.487  17.123 -0.1435  0.6515 -0.8052
14201TIP3   OH264017   3.763   2.402   3.933 -0.7345 -0.6390  0.2628
14201TIP3    H164018   3.774   2.493   3.907 -1.4463 -0.9731 -1.2490
14201TIP3    H264019   3.714   2.406   4.015  0.4772  0.3815  0.9596
14202TIP3   OH264020   1.853   2.864   5.468  0.0292  0.0388 -0.3368
14202TIP3    H164021   1.834   2.773   5.445 -0.1697 -0.4014  1.5202
14202TIP3    H264022   1.893   2.901   5.389 -1.9439 -1.0210 -1.8785
14203TIP3   OH264023   1.455   1.633   6.984  0.4411 -0.5849  0.6034
14203TIP3    H164024   1.461   1.543   6.954 -2.2258 -0.0279 -1.7845
14203TIP3    H264025   1.507   1.683   6.921 -1.9620  0.0877 -0.9208
14204TIP3   OH264026   5.552   6.586  12.510 -0.2078 -0.1468  0.5199
14204TIP3    H164027   5.521   6.674  12.533  1.3934  0.3635  0.7979
14204TIP3    H264028   5.589   6.596  12.422  1.5969 -0.1191  1.2573
14205TIP3   OH264029   5.104   6.764   4.816 -0.0103  0.2576  0.0659
14205TIP3    H164030   5.026   6.805   4.851  0.9441  0.4896  1.9719
14205TIP3    H264031   5.152   6.835   4.773 -0.5612  0.2115 -0.6512
14206TIP3   OH264032   4.191   4.068  14.196 -0.0859 -0.4472 -0.0404
14206TIP3    H164033   4.130   4.127  14.152  1.3763  1.1628  0.0575
14206TIP3    H264034   4.197   3.992  14.137 -1.4639 -0.2177 -0.4943
14207TIP3   OH264035   0.674   5.026  14.063 -0.2856  0.2291 -0.3456
14207TIP3    H164036   0.597   5.075  14.033 -1.6242 -0.4472  1.9032
14207TIP3    H264037   0.645   4.981  14.141  2.0199 -1.2032 -0.2694
14208TIP3   OH264038   1.184   2.742   4.118  0.0351  0.6308 -0.2535
14208TIP3    H164039   1.191   2.695   4.035  1.8210 -1.4526  1.0209
14208TIP3    H264040   1.242   2.818   4.108 -1.5869  1.7039 -1.7309
14209TIP3   OH264041   2.907   1.003  16.047  0.5490  0.4187 -0.4132
14209TIP3    H164042   2.831   0.946  16.039 -1.2003  2.5499  0.3513
14209TIP3    H264043   2.982   0.949  16.021 -1.2175 -1.7347 -1.1022
14210TIP3   OH264044   3.007   4.353  17.163 -0.2211 -0.2974  0.7807
14210TIP3    H164045   3.078   4.330  17.102  1.0858  1.3692  1.6280
14210TIP3    H264046   2.944   4.282  17.154  0.5686 -0.7526 -1.5483
14211TIP3   OH264047   3.024   3.581   6.222  0.1980 -1.4185 -0.2776
14211TIP3    H164048   2.937   3.603   6.255  0.1972 -2.2409  0.2760
14211TIP3    H264049   3.080   3.654   6.250 -0.3090 -0.8881 -0.6430
14212TIP3   OH264050   0.791   5.819   6.104  0.0599  0.2787 -0.3846
14212TIP3    H164051   0.695   5.826   6.105  0.0193  1.2183 -4.1223
14212TIP3    H264052   0.808   5.725   6.107 -0.9954  0.0722 -0.6682
14213TIP3   OH264053   0.861   0.372  12.242  0.2433 -0.6402  0.1845
14213TIP3    H164054   0.914   0.402  12.315 -1.8502  0.0962  1.4247
14213TIP3    H264055   0.872   0.277  12.241  0.5850 -0.6096  1.2281
14214TIP3   OH264056   3.546   2.524  12.509 -0.5441 -0.0981 -0.4002
14214TIP3    H164057   3.506   2.586  12.448  1.2734  1.4386 -0.0910
14214TIP3    H264058   3.634   2.559  12.524 -0.8581 -0.5692  2.9228
14215TIP3   OH264059   1.421   0.837  14.981 -0.4740  0.3059 -0.4471
14215TIP3    H164060   1.482   0.900  15.018  0.5707 -0.1375 -1.4008
14215TIP3    H264061   1.421   0.856  14.887 -0.4053 -0.8960 -0.6957
14216TIP3   OH264062   5.465   6.253   2.973 -0.4064 -0.2999 -0.1026
14216TIP3    H164063   5.465   6.255   3.069  2.3620 -2.6188  0.0083
14216TIP3    H264064   5.458   6.160   2.951  3.4325 -0.2313 -2.0416
14217TIP3   OH264065   4.548   0.035   4.884 -0.1144  0.0040 -0.1463
14217TIP3    H164066   4.559   0.120   4.925  0.4263 -0.5035  0.7697
14217TIP3    H264067   4.482  -0.009   4.938  0.4494 -0.5907  0.0615
14218TIP3   OH264068   3.349   4.257   0.209 -0.6279 -0.5312 -0.6054
14218TIP3    H164069   3.362   4.169   0.244 -0.2702  0.8608  2.9046
14218TIP3    H264070   3.438   4.291   0.196 -0.7754  0.0342 -0.1070
14219TIP3   OH264071   1.705   6.718   2.826  0.2436 -0.4808  0.0024
14219TIP3    H164072   1.633   6.678   2.777  0.1713 -1.3353  0.7973
14219TIP3    H264073   1.678   6.711   2.918  1.6964 -1.5204  0.3630
14220TIP3   OH264074   5.167   3.825  14.166  0.2922  0.3231 -0.7504
14220TIP3    H164075   5.250   3.785  14.142 -0.6753 -2.4283  0.3241
14220TIP3    H264076   5.110   3.811  14.090 -0.4631 -1.6647  0.1373
14221TIP3   OH264077   0.650   1.713  11.651  0.0482 -0.5373  0.1380
14221TIP3    H164078   0.562   1.749  11.657  0.2842  0.3400 -1.3987
14221TIP3    H264079   0.708   1.788  11.665  0.5435 -0.9292  0.1935
14222TIP3   OH264080   0.876   0.016   4.094 -0.4999 -0.0577  0.2121
14222TIP3    H164081   0.869  -0.074   4.126  3.0486 -0.7557 -0.7131
14222TIP3    H264082   0.942   0.056   4.150 -1.0581  1.5773 -0.2660
14223TIP3   OH264083   0.668   3.649  13.639 -0.2819  0.2118  0.0112
14223TIP3    H164084   0.691   3.737  13.610  3.5664  0.0538  2.2536
14223TIP3    H264085   0.691   3.593  13.565 -0.5499  0.8409 -0.5553
14224TIP3   OH264086   5.848   5.538   0.751  0.0293  0.3896  0.1212
14224TIP3    H164087   5.915   5.529   0.819 -0.5866  2.8117  1.1143
14224TIP3    H264088   5.796   5.459   0.757  1.4926 -0.5341  0.8025
14225TIP3   OH264089   0.288   6.026  11.349 -0.1474  0.4293  0.3391
14225TIP3    H164090   0.246   6.025  11.263 -1.5650  1.0607  1.0222
14225TIP3    H264091   0.264   5.942  11.388 -1.8072  1.3003  1.2170
14226TIP3   OH264092   5.697   6.352  13.940  0.0325  0.0490  0.0813
14226TIP3    H164093   5.636   6.311  13.879 -0.8301  0.8086  0.4234
14226TIP3    H264094   5.777   6.364  13.889  0.2957 -2.0019 -0.0277
14227TIP3   OH264095   5.784   0.758   2.863  0.1447 -0.1052  0.1865
14227TIP3    H164096   5.765   0.843   2.902 -1.7753  0.6516 -2.2758
14227TIP3    H264097   5.732   0.696   2.915 -0.0250  0.4806  0.7221
14228TIP3   OH264098   1.978   4.246   2.147  0.0503  0.2591 -1.0315
14228TIP3    H164099   1.889   4.264   2.180  0.0911  0.6543 -1.1410
14228TIP3    H264100   1.977   4.276   2.056  0.0683 -0.4449 -1.2651
14229TIP3   OH264101   0.871   3.494  12.719 -0.1019 -0.8353  0.1948
14229TIP3    H164102   0.849   3.484  12.626  2.4211 -0.3237 -0.4809
14229TIP3    H264103   0.865   3.588  12.734  2.7385 -0.5482 -0.3103
14230TIP3   OH264104   3.630   5.236  12.560 -0.6570  0.8741  0.3087
14230TIP3    H164105   3.542   5.229  12.522  0.1572  1.4714 -1.7357
14230TIP3    H264106   3.630   5.172  12.631 -3.2345  1.8879  1.3212
14231TIP3   OH264107   3.139   2.826  12.831 -0.2604  0.0508  0.0169
14231TIP3    H164108   3.117   2.869  12.914 -0.7939  0.0866 -0.1442
14231TIP3    H264109   3.206   2.882  12.792 -0.4350  0.3512  0.1478
14232TIP3   OH264110   5.926   4.059  11.512  0.1006  0.1129  0.4039
14232TIP3    H164111   6.009   4.017  11.531 -0.0690 -0.5704 -0.3126
14232TIP3    H264112   5.862   4.013  11.567  0.0768  0.0983  0.3650
14233TIP3   OH264113   5.609   5.289  10.661  0.3889  0.1431 -0.3651
14233TIP3    H164114   5.649   5.211  10.623  1.6938 -0.2666  1.8309
14233TIP3    H264115   5.656   5.362  10.620  1.3646 -0.2847 -0.0215
14234TIP3   OH264116   4.358   0.531  16.856  0.0823 -0.2735  0.6552
14234TIP3    H164117   4.359   0.445  16.815  0.3684  0.3560 -0.6877
14234TIP3    H264118   4.429   0.528  16.919 -0.7029 -1.4395  1.5112
14235TIP3   OH264119   4.845   5.015   3.018 -0.2942 -0.4633  0.6809
14235TIP3    H164120   4.787   5.079   3.058 -1.2788 -0.2808 -0.9936
14235TIP3    H264121   4.788   4.962   2.962  1.1798 -0.1436 -1.1532
14236TIP3   OH264122   5.565   2.557  14.602  0.0375 -0.8022 -0.3744
14236TIP3    H164123   5.560   2.624  14.669 -0.4545 -0.1290 -1.0669
14236TIP3    H264124   5.630   2.590  14.539  1.2567 -1.9071  0.2828
14237TIP3   OH264125   5.944   1.502  16.623 -0.1640 -0.3720  0.3819
14237TIP3    H164126   5.944   1.414  16.584 -0.0119 -0.0504 -0.3422
14237TIP3    H264127   5.876   1.497  16.691  0.6137 -1.3833  1.1165
14238TIP3   OH264128   3.054   0.250  16.537  0.3416 -0.1501 -0.1415
14238TIP3    H164129   3.106   0.260  16.458  1.4322 -0.7104  0.4871
14238TIP3    H264130   3.099   0.181  16.587 -0.8534 -0.4557  0.5301
14239TIP3   OH264131   3.114   3.533  16.342  0.2503  0.4294 -0.1764
14239TIP3    H164132   3.067   3.492  16.415 -0.4029  1.9314  0.2619
14239TIP3    H264133   3.065   3.506  16.264  0.5322 -0.5944 -0.0160
14240TIP3   OH264134   6.393   4.774  11.849  0.4650 -0.0465  0.1882
14240TIP3    H164135   6.418   4.863  11.826 -2.0314  0.0276 -2.5886
14240TIP3    H264136   6.453   4.718  11.800 -1.7438  0.1415 -2.8466
14241TIP3   OH264137   6.691   5.120  14.952 -0.7798  0.1704 -0.1119
14241TIP3    H164138   6.626   5.050  14.939  0.8508 -1.5063  0.5288
14241TIP3    H264139   6.662   5.165  15.031 -1.2013 -0.5319  0.1433
14242TIP3   OH264140   4.262   5.013   6.585  0.5650 -0.5841 -0.1975
14242TIP3    H164141   4.334   5.049   6.533  1.5655 -0.6389  1.1153
14242TIP3    H264142   4.280   4.919   6.590  1.1513 -0.4097  1.2454
14243TIP3   OH264143   2.896   3.435   1.423 -0.5989 -0.6976 -0.5406
14243TIP3    H164144   2.965   3.434   1.489 -1.0366 -0.5380 -0.0796
14243TIP3    H264145   2.832   3.371   1.455 -1.5055  0.4455 -0.0606
14244TIP3   OH264146   2.993   3.546   3.891  0.4234  0.0530  0.1723
14244TIP3    H164147   2.941   3.514   3.965  0.3254 -0.6691 -0.2054
14244TIP3    H264148   2.944   3.620   3.858 -0.7373 -1.0523 -0.6139
14245TIP3   OH264149   1.127   0.929   5.923 -0.1277 -0.6622 -0.7397
14245TIP3    H164150   1.222   0.935   5.932 -0.2397 -0.1047  0.0984
14245TIP3    H264151   1.102   0.857   5.982 -0.1173 -1.4956 -1.7369
14246TIP3   OH264152   3.495   3.403  11.430 -0.3485  0.1367  0.0980
14246TIP3    H164153   3.430   3.404  11.360  2.1308 -0.2981 -2.2933
14246TIP3    H264154   3.459   3.342  11.495 -3.1024  1.2347 -0.3591
14247TIP3   OH264155   0.611   2.286  15.783  0.0381 -0.1353 -0.2340
14247TIP3    H164156   0.688   2.258  15.734  0.5408 -2.2635  1.6739
14247TIP3    H264157   0.541   2.291  15.718  0.7778 -2.4168 -1.2378
14248TIP3   OH264158   6.640   0.281   4.892  0.3175  0.1178 -0.8522
14248TIP3    H164159   6.581   0.319   4.957  0.5615  2.9951 -2.2637
14248TIP3    H264160   6.706   0.236   4.945 -0.5173  0.8402  0.8636
14249TIP3   OH264161   1.347   5.297  11.189  0.4516 -0.3806  0.0172
14249TIP3    H164162   1.295   5.307  11.109 -1.6427 -2.6317  1.0553
14249TIP3    H264163   1.334   5.379  11.237 -1.4882 -0.6037 -0.1228
14250TIP3   OH264164   5.188   2.128   4.057 -0.6137  0.7680  0.4083
14250TIP3    H164165   5.244   2.204   4.045  0.1884 -0.1483 -1.8549
14250TIP3    H264166   5.101   2.156   4.028 -1.0778  1.7649  2.6267
14251TIP3   OH264167   2.032   3.534   0.412 -0.4819  0.1224 -0.0284
14251TIP3    H164168   1.961   3.483   0.451  1.8177 -1.3057  2.3993
14251TIP3    H264169   2.058   3.595   0.480 -1.4796  2.9302 -2.0372
14252TIP3   OH264170   2.047   3.741  15.847  0.7427  0.0730 -0.3250
14252TIP3    H164171   2.105   3.801  15.802 -0.3641  0.5257 -1.1535
14252TIP3    H264172   2.019   3.679  15.780 -1.5784  1.2509 -0.4901
14253TIP3   OH264173   6.071   5.193  13.537 -0.1387 -0.7374  0.0775
14253TIP3    H164174   6.003   5.125  13.531 -0.5338 -0.4420  1.1281
14253TIP3    H264175   6.060   5.230  13.625  1.1287 -0.4153  0.1082
14254TIP3   OH264176   5.839   4.574  13.381  0.3216  0.0614 -0.4591
14254TIP3    H164177   5.837   4.668  13.366 -0.5614  0.0081 -0.6689
14254TIP3    H264178   5.769   4.558  13.445 -1.5899 -0.8614 -2.7241
14255TIP3   OH264179   4.972   0.401   6.466 -0.3859  0.4800 -0.2652
14255TIP3    H164180   5.042   0.368   6.523  0.6907  0.4610 -1.5810
14255TIP3    H264181   4.909   0.329   6.463 -0.0455  0.1493  0.2330
14256TIP3   OH264182   1.607   2.527   2.618 -0.3790  0.3477  0.5426
14256TIP3    H164183   1.525   2.575   2.634  0.3292  1.5701  0.6035
14256TIP3    H264184   1.670   2.569   2.676  0.4231 -0.2308  0.0881
14257TIP3   OH264185   0.337   0.670   5.393  0.2710  0.5499 -0.6597
14257TIP3    H164186   0.313   0.580   5.418  2.2086 -0.2254 -1.4726
14257TIP3    H264187   0.295   0.725   5.459  0.6125 -1.0851  0.9836
14258TIP3   OH264188   4.521   6.167   3.166  0.3125 -0.5351  0.4579
14258TIP3    H164189   4.592   6.189   3.227 -0.7636 -1.1001  1.9543
14258TIP3    H264190   4.444   6.210   3.203 -0.3479 -0.8253 -0.5547
14259TIP3   OH264191   3.723   0.990  16.438 -0.3390 -0.0238  0.4777
14259TIP3    H164192   3.695   1.042  16.363 -0.3559  0.1368  0.5961
14259TIP3    H264193   3.813   0.964  16.417 -1.1230 -1.9274 -0.6461
14260TIP3   OH264194   1.756   2.123   1.906  0.1591 -0.5163  0.0198
14260TIP3    H164195   1.719   2.058   1.847  1.5343 -1.5817  0.3029
14260TIP3    H264196   1.781   2.073   1.984  1.0035  0.3828  0.3316
14261TIP3   OH264197   0.096   2.754  15.739 -0.6672  0.3217  0.3884
14261TIP3    H164198   0.093   2.664  15.770  0.0993 -0.1387 -0.8293
14261TIP3    H264199   0.164   2.796  15.791 -2.6580  0.8707  2.6284
14262TIP3   OH264200   5.691   6.603   3.572  0.2619 -0.2999 -0.1968
14262TIP3    H164201   5.777   6.622   3.610  0.5182 -1.5145 -0.1486
14262TIP3    H264202   5.629   6.650   3.628  0.8056 -0.3394  0.4488
14263TIP3   OH264203   1.880   2.861  12.831 -0.3152 -0.0960  0.6353
14263TIP3    H164204   1.787   2.839  12.831 -0.1675 -0.7655  1.2515
14263TIP3    H264205   1.924   2.779  12.852  0.6642 -0.6614 -3.3421
14264TIP3   OH264206   5.279   4.166  15.468 -0.1310  0.3655  0.0439
14264TIP3    H164207   5.212   4.230  15.493 -0.2231 -0.8197  3.0618
14264TIP3    H264208   5.301   4.121  15.550  2.4912 -1.0483 -1.3637
14265TIP3   OH264209   3.101   2.302   1.357  0.8635 -0.0250  0.0160
14265TIP3    H164210   3.161   2.376   1.369  0.1519  1.0320 -2.5994
14265TIP3    H264211   3.157   2.228   1.333  1.4141  0.0947  0.9279
14266TIP3   OH264212   0.148   2.583  11.108  0.5448  0.3908 -0.1704
14266TIP3    H164213   0.222   2.555  11.055  0.3356 -2.4608  0.9840
14266TIP3    H264214   0.183   2.591  11.197 -0.3367 -0.0906  0.2197
14267TIP3   OH264215   6.133   5.628  14.030  0.1321 -0.7018  0.2719
14267TIP3    H164216   6.077   5.622  14.107 -1.1513  0.0913 -0.5893
14267TIP3    H264217   6.188   5.705  14.047  2.0130 -2.3123  1.7684
14268TIP3   OH264218   2.433   4.636   4.196 -0.0632 -0.1677  0.9619
14268TIP3    H164219   2.514   4.632   4.144 -0.6946  0.3298 -0.0836
14268TIP3    H264220   2.418   4.729   4.210 -2.3446 -0.0279 -1.9046
14269TIP3   OH264221   2.382   3.955   4.824 -0.2511  0.1999  0.3347
14269TIP3    H164222   2.357   3.882   4.881 -0.4131 -0.1496 -0.1846
14269TIP3    H264223   2.337   3.939   4.741 -1.2725  1.5356  0.6072
14270TIP3   OH264224   2.932   1.762  13.070  0.7594 -0.5558 -0.2819
14270TIP3    H164225   2.899   1.731  12.986  3.2400  2.5242 -2.5011
14270TIP3    H264226   3.004   1.701  13.091  0.6217 -0.8858 -0.7534
14271TIP3   OH264227   1.744   0.612   5.724 -0.1959 -0.2170 -0.4073
14271TIP3    H164228   1.734   0.519   5.743 -0.7063 -0.0988 -0.0855
14271TIP3    H264229   1.768   0.651   5.808 -1.6128  0.1844 -0.1856
14272TIP3   OH264230   4.656   1.117   4.666 -0.6172  0.3658  0.0321
14272TIP3    H164231   4.617   1.042   4.711 -0.1692  0.9514  1.4046
14272TIP3    H264232   4.720   1.152   4.727  0.3872  0.8685 -1.2686
14273TIP3   OH264233   3.437   5.305   3.202  0.2479  0.3120  0.0067
14273TIP3    H164234   3.530   5.322   3.216  0.1259  1.8532 -0.9646
14273TIP3    H264235   3.392   5.381   3.238 -0.5922 -0.0946 -0.1609
14274TIP3   OH264236   4.134   3.840  14.064  0.2560 -0.4243  0.2623
14274TIP3    H164237   4.160   3.756  14.025 -1.3705 -0.6436 -0.4002
14274TIP3    H264238   4.088   3.886  13.994 -0.9496  0.0219  1.3110
14275TIP3   OH264239   0.833   1.184  12.143  0.2673 -0.5360 -0.1757
14275TIP3    H164240   0.789   1.152  12.222  0.6258 -0.8901 -0.1170
14275TIP3    H264241   0.913   1.131  12.137  0.4705 -0.1944 -0.5213
14276TIP3   OH264242   1.215   1.799  14.182  0.1081 -0.5559  0.0105
14276TIP3    H164243   1.243   1.889  14.200 -0.7570 -0.3611  0.4243
14276TIP3    H264244   1.138   1.787  14.238  0.5872 -1.7562  0.4119
14277TIP3   OH264245   3.253   5.291   3.829  0.4050  0.5440  0.0740
14277TIP3    H164246   3.262   5.293   3.734  3.2530 -0.7405  0.2370
14277TIP3    H264247   3.276   5.201   3.853 -0.1539  0.8909  1.9823
14278TIP3   OH264248   0.013   6.027  13.637 -0.3216 -0.0734 -0.0170
14278TIP3    H164249  -0.058   5.992  13.690  0.2785  1.0171  1.5382
14278TIP3    H264250  -0.024   6.105  13.596 -0.6328 -0.6374 -0.8162
14279TIP3   OH264251   6.485   3.793  15.973  0.1773  0.4565 -0.0799
14279TIP3    H164252   6.494   3.770  15.881 -0.7130  0.1485 -0.0963
14279TIP3    H264253   6.546   3.865  15.986  0.9209 -0.0536 -0.7098
14280TIP3   OH264254   3.076   0.455  15.862 -0.1112  0.2424 -0.3219
14280TIP3    H164255   3.144   0.439  15.928 -1.0094  0.8185  0.7618
14280TIP3    H264256   3.020   0.377  15.865 -0.5719  0.5870  0.1213
14281TIP3   OH264257   1.451   6.281   2.927  0.0689 -0.2741  0.7897
14281TIP3    H164258   1.398   6.250   2.853  0.4929 -0.0188  0.3701
14281TIP3    H264259   1.526   6.222   2.929 -0.0731 -0.4430  1.1879
14282TIP3   OH264260   2.270   0.277  15.415  0.4903 -0.1219 -0.1283
14282TIP3    H164261   2.196   0.236  15.370 -0.1087  1.8798 -1.0478
14282TIP3    H264262   2.243   0.281  15.507 -1.4472  2.3483 -0.7416
14283TIP3   OH264263   2.405   0.629  14.560 -0.2553 -1.1031 -0.6463
14283TIP3    H164264   2.471   0.565  14.536  0.0723 -1.0632  0.1403
14283TIP3    H264265   2.422   0.704  14.504 -0.0849 -1.3701 -0.9501
14284TIP3   OH264266   4.500   5.862   3.336 -0.1016  0.2803  0.5228
14284TIP3    H164267   4.526   5.774   3.365  0.9052  0.6211  0.6690
14284TIP3    H264268   4.450   5.846   3.256 -0.8185 -0.4947  1.1114
14285TIP3   OH264269   0.008   1.112  16.592 -0.4766  0.0091 -0.5741
14285TIP3    H164270   0.011   1.198  16.635  1.1972  0.2760 -1.1886
14285TIP3    H264271  -0.076   1.075  16.619 -0.7591  1.4011  0.5398
14286TIP3   OH264272   6.287   1.140   0.377  0.0178  0.1874 -0.3567
14286TIP3    H164273   6.200   1.141   0.338  0.7090  0.2351 -1.9498
14286TIP3    H264274   6.313   1.232   0.380  0.0538  0.1657  0.0134
14287TIP3   OH264275   4.305   2.719   0.553  0.3568  0.0577 -0.4322
14287TIP3    H164276   4.322   2.787   0.488  1.7805  1.7354  1.6400
14287TIP3    H264277   4.276   2.766   0.631 -0.3395 -1.8306  0.4905
14288TIP3   OH264278   0.311   2.202  12.229  0.3257  0.1100  0.1733
14288TIP3    H164279   0.371   2.159  12.290 -0.5316 -2.7796 -0.9187
14288TIP3    H264280   0.239   2.232  12.284  0.9791  0.2109  0.9862
14289TIP3   OH264281   4.969   4.175   3.003 -0.7432 -0.3067  0.0306
14289TIP3    H164282   4.934   4.180   2.914  0.2329 -0.4486 -0.3749
14289TIP3    H264283   4.924   4.100   3.042 -1.5707  0.0852 -0.1693
14290TIP3   OH264284   5.874   3.533  17.117 -0.0020  0.1710 -0.1045
14290TIP3    H164285   5.820   3.603  17.153 -0.1276 -1.0147  2.1547
14290TIP3    H264286   5.947   3.577  17.074 -0.0956  1.6868  1.2692
14291TIP3   OH264287   5.997   5.108  11.264 -0.0973 -0.0852 -0.0601
14291TIP3    H164288   6.052   5.113  11.342 -0.0257 -1.2558 -0.0190
14291TIP3    H264289   5.963   5.197  11.252 -0.5813 -0.0107  1.6589
14292TIP3   OH264290   0.352   1.075   4.725 -0.2331 -0.6573  0.7866
14292TIP3    H164291   0.447   1.082   4.736 -0.1261  0.0335 -0.5682
14292TIP3    H264292   0.339   0.993   4.678 -0.4087 -1.4557  2.2092
14293TIP3   OH264293   5.596   6.699  13.803 -0.2620  0.0043  0.0403
14293TIP3    H164294   5.500   6.706  13.803 -0.3492 -1.1888 -1.3055
14293TIP3    H264295   5.623   6.732  13.718  0.5371  0.3832  0.4329
14294TIP3   OH264296   6.224   1.731  13.862 -0.0814  0.0078  0.1781
14294TIP3    H164297   6.188   1.735  13.951 -0.9694 -1.7291 -0.0935
14294TIP3    H264298   6.237   1.638  13.845  0.2125  0.3312 -1.4870
14295TIP3   OH264299   0.319   4.678   4.512 -0.3463  0.5069  0.3239
14295TIP3    H164300   0.373   4.631   4.449 -1.3433  0.5841 -0.6010
14295TIP3    H264301   0.301   4.763   4.471 -1.8082  0.1903  0.2689
14296TIP3   OH264302   3.130   1.707   0.505 -0.0429 -0.2290 -0.0800
14296TIP3    H164303   3.081   1.761   0.443 -0.9103 -0.0551  0.7334
14296TIP3    H264304   3.198   1.665   0.452  3.2646  4.7009 -0.0947
14297TIP3   OH264305   0.596   2.833  14.929 -0.3390 -0.1568 -0.5721
14297TIP3    H164306   0.568   2.904  14.872  0.5820  0.8025  0.1562
14297TIP3    H264307   0.571   2.753  14.882 -1.7457  0.6382 -1.2099
14298TIP3   OH264308   4.542   2.005   2.494  0.6396  0.1173 -0.1849
14298TIP3    H164309   4.563   2.072   2.559  0.7390 -0.2036  0.1158
14298TIP3    H264310   4.626   1.963   2.476  0.1851 -1.5647  1.4537
14299TIP3   OH264311   4.497   4.402   2.462 -0.0369  0.2189  0.1673
14299TIP3    H164312   4.576   4.379   2.511 -1.1108  1.1147  2.3763
14299TIP3    H264313   4.483   4.495   2.480 -0.1879  0.7171 -2.2796
14300TIP3   OH264314   2.169   1.603   5.110  0.6320 -0.1759  0.1940
14300TIP3    H164315   2.242   1.601   5.048 -0.5682  0.7717 -1.2722
14300TIP3    H264316   2.100   1.552   5.067 -0.4877  1.1717  0.3962
14301TIP3   OH264317   1.748   0.821   0.968  0.3588  0.3563 -0.1813
14301TIP3    H164318   1.747   0.830   1.063 -2.3114 -0.1613 -0.1272
14301TIP3    H264319   1.817   0.756   0.951  2.2600  1.9666  1.2160
14302TIP3   OH264320   1.713   5.556  17.030  0.3117  0.3831  0.2899
14302TIP3    H164321   1.670   5.476  17.058 -1.9122  0.8046 -1.7064
14302TIP3    H264322   1.804   5.546  17.057 -0.2501 -2.1740  1.3364
14303TIP3   OH264323   6.226   4.061   4.361 -0.0406 -0.2378 -0.0534
14303TIP3    H164324   6.255   4.146   4.393  0.4098 -0.8158  1.1035
14303TIP3    H264325   6.306   4.007   4.359 -0.0908 -0.2885 -1.9463
14304TIP3   OH264326   6.553   4.192   4.966 -0.4588 -0.0611  0.4641
14304TIP3    H164327   6.518   4.170   5.052  0.0233 -0.0708  0.6572
14304TIP3    H264328   6.569   4.286   4.970  1.0944 -0.3367  0.9396
14305TIP3   OH264329   0.283   1.951  12.075  0.9342  0.3200 -0.1933
14305TIP3    H164330   0.298   1.893  12.149  3.8855  0.8010 -0.3642
14305TIP3    H264331   0.227   2.020  12.109  0.8501 -0.3964  1.1202
14306TIP3   OH264332   4.848   0.491  16.312 -0.2073  0.3684  0.0632
14306TIP3    H164333   4.796   0.553  16.364 -1.2490 -1.6549  1.5565
14306TIP3    H264334   4.815   0.405  16.339  3.1581 -0.9569  0.1932
14307TIP3   OH264335   0.520   4.543   0.073  0.4517 -0.2960  0.3986
14307TIP3    H164336   0.527   4.628   0.030  1.6851 -0.6729 -0.1944
14307TIP3    H264337   0.526   4.562   0.166  0.4828  0.2905  0.2782
14308TIP3   OH264338   6.412   4.287  13.253 -0.0376 -0.3003  0.3054
14308TIP3    H164339   6.420   4.226  13.179  1.2570  0.3269 -0.0775
14308TIP3    H264340   6.449   4.241  13.327  2.4826  0.6095 -0.3370
14309TIP3   OH264341   6.573   6.227  12.477  0.1739  0.2120  0.2877
14309TIP3    H164342   6.646   6.239  12.538  0.1496 -0.4898  0.4490
14309TIP3    H264343   6.498   6.263  12.524 -0.3139 -2.4903  1.6534
14310TIP3   OH264344   6.265   1.124   5.388 -0.1126  0.1900  0.1400
14310TIP3    H164345   6.339   1.064   5.378  0.3974  0.6169  1.2602
14310TIP3    H264346   6.197   1.071   5.430  0.6674  0.6342  1.9950
14311TIP3   OH264347   3.015   1.665   6.018  0.0584  0.1200  0.1618
14311TIP3    H164348   3.058   1.722   5.955 -1.0008 -0.6916 -1.3150
14311TIP3    H264349   2.922   1.670   5.996 -0.3020 -0.3524  1.5142
14312TIP3   OH264350   4.503   3.407  14.253  0.1304 -0.2917 -0.1462
14312TIP3    H164351   4.439   3.337  14.239  0.1079 -0.4377  0.6641
14312TIP3    H264352   4.453   3.488  14.244 -0.0860 -0.3981  0.0947
14313TIP3   OH264353   4.543   3.269   3.721 -0.1855 -0.1289  0.6017
14313TIP3    H164354   4.563   3.362   3.729 -1.1300 -0.0701  2.4947
14313TIP3    H264355   4.600   3.226   3.784  1.5255 -1.0454 -1.5058
14314TIP3   OH264356   5.224   0.571  14.763  0.4391 -0.4445  0.0912
14314TIP3    H164357   5.202   0.570  14.670  0.7766 -3.2240 -0.0040
14314TIP3    H264358   5.305   0.622  14.768  0.0834  0.2441 -1.0630
14315TIP3   OH264359   4.868   2.579  15.960 -0.1557  0.0099 -0.1303
14315TIP3    H164360   4.903   2.537  15.881 -0.2435  0.4701 -0.4135
14315TIP3    H264361   4.859   2.507  16.023 -2.0487 -0.7378 -1.2163
14316TIP3   OH264362   4.185   6.062   2.990 -0.3338 -0.3294  0.0714
14316TIP3    H164363   4.161   5.974   3.016  0.7480 -0.3230  1.1083
14316TIP3    H264364   4.136   6.119   3.050  0.5327 -0.2770  0.7455
14317TIP3   OH264365   4.446   0.973   5.353  0.6404 -0.1718  0.4716
14317TIP3    H164366   4.537   1.003   5.352  0.4172  0.4957 -0.3221
14317TIP3    H264367   4.445   0.901   5.417  1.9920 -1.0414 -0.4752
14318TIP3   OH264368   0.149   0.395  12.581  0.3653 -0.4357 -0.2212
14318TIP3    H164369   0.084   0.463  12.562 -0.7952 -1.3250  0.5000
14318TIP3    H264370   0.145   0.336  12.505  1.9140  0.6920 -1.2023
14319TIP3   OH264371   4.503   1.148  16.198 -0.0670  0.2080  0.4187
14319TIP3    H164372   4.545   1.145  16.284  3.1598  0.3513 -1.0896
14319TIP3    H264373   4.485   1.057  16.177  2.1281 -0.1378 -0.1190
14320TIP3   OH264374   0.869   0.541  16.784 -0.5293  0.2906  0.5600
14320TIP3    H164375   0.934   0.581  16.725  0.7084  1.2260  2.5021
14320TIP3    H264376   0.913   0.462  16.817 -0.4614  0.7754  1.6574
14321TIP3   OH264377   1.359   0.561  12.351 -0.3764  0.0554  0.4159
14321TIP3    H164378   1.371   0.585  12.443 -2.3472  1.8480  0.2397
14321TIP3    H264379   1.429   0.606  12.305 -0.5987  0.7885  0.7931
14322TIP3   OH264380   4.496   3.483  14.892 -0.0611  0.0542 -0.5248
14322TIP3    H164381   4.573   3.429  14.908  0.2850  0.9740  1.0744
14322TIP3    H264382   4.426   3.420  14.874  0.2361 -0.9954  1.7293
14323TIP3   OH264383   5.290   6.351  10.552  0.4438  0.2747 -0.9493
14323TIP3    H164384   5.257   6.440  10.564  0.6853  0.2033  0.3150
14323TIP3    H264385   5.324   6.326  10.638 -0.6292 -1.4380 -0.9987
14324TIP3   OH264386   0.125   5.229   4.262  0.0513 -0.3046 -0.4296
14324TIP3    H164387   0.086   5.168   4.199  2.1779 -0.6369 -1.4547
14324TIP3    H264388   0.214   5.242   4.231  0.1660  2.0045  0.7476
14325TIP3   OH264389   3.384   3.112   1.235  0.1577 -0.5494  0.5007
14325TIP3    H164390   3.384   3.031   1.183  0.5310 -1.1536  1.4342
14325TIP3    H264391   3.444   3.094   1.307  3.4927  1.9935 -1.4670
14326TIP3   OH264392   4.662   6.024  10.342  0.3858 -0.2264  0.1116
14326TIP3    H164393   4.613   6.056  10.417 -0.3471 -0.6856 -0.1662
14326TIP3    H264394   4.634   6.080  10.269  0.7490 -0.0806  0.0811
14327TIP3   OH264395   6.185   1.129   3.094 -0.7954 -0.0323 -0.1093
14327TIP3    H164396   6.159   1.176   3.174 -0.6591 -0.0386 -0.0612
14327TIP3    H264397   6.152   1.040   3.107 -0.0275 -0.2649  0.3221
14328TIP3   OH264398   1.413   3.907   5.111 -0.0943 -0.0829 -0.0377
14328TIP3    H164399   1.395   3.903   5.205 -0.2838 -1.7803 -0.1305
14328TIP3    H264400   1.447   3.820   5.090 -1.5529 -0.2458 -1.8297
14329TIP3   OH264401   0.944   2.891   4.089  0.2790  0.5476  0.0973
14329TIP3    H164402   1.031   2.852   4.097  0.5169  1.0661  0.0486
14329TIP3    H264403   0.961   2.985   4.078 -0.2504  0.5438 -0.7847
14330TIP3   OH264404   3.883   0.597   0.576 -0.0049  0.0772 -0.5198
14330TIP3    H164405   3.952   0.538   0.546  0.1553 -0.1945  0.3496
14330TIP3    H264406   3.804   0.543   0.574 -0.1776  0.3546 -1.4055
14331TIP3   OH264407   1.943   0.165  14.098 -0.3731  0.0754  0.0637
14331TIP3    H164408   1.866   0.109  14.112 -1.3805  1.5828  0.6587
14331TIP3    H264409   1.909   0.241  14.052  0.9617  0.2916 -0.5885
14332TIP3   OH264410   0.641   0.428  11.491 -0.5223  0.0926 -0.0905
14332TIP3    H164411   0.548   0.427  11.471 -0.4677 -1.4954 -0.3015
14332TIP3    H264412   0.646   0.410  11.585 -0.4191 -0.0924 -0.1298
14333TIP3   OH264413   4.506   1.951   1.954 -0.6237 -0.0332  0.3311
14333TIP3    H164414   4.582   1.942   2.012 -0.0064 -1.0843 -0.6424
14333TIP3    H264415   4.431   1.942   2.012 -0.0064 -0.7756  1.0292
14334TIP3   OH264416   4.756   2.265   2.317  0.5970 -0.4417  0.1513
14334TIP3    H164417   4.741   2.220   2.233  0.7220 -2.5214  1.2091
14334TIP3    H264418   4.837   2.226   2.350  0.0934 -0.2309  1.6437
14335TIP3   OH264419   0.841   6.297   4.931  0.1872  0.0023  0.1382
14335TIP3    H164420   0.800   6.319   5.014  0.1412  1.7816 -0.3506
14335TIP3    H264421   0.768   6.296   4.868  0.4317  0.0797 -0.1467
14336TIP3   OH264422   2.159   2.238   1.865 -0.0807  0.4324  0.4314
14336TIP3    H164423   2.224   2.169   1.857  0.7391  1.4664 -2.5626
14336TIP3    H264424   2.211   2.319   1.871 -1.0551  1.1054 -0.0860
14337TIP3   OH264425   4.718   3.893   4.773 -0.3909  0.0068 -0.5348
14337TIP3    H164426   4.677   3.898   4.860 -1.1780  0.9158 -0.9409
14337TIP3    H264427   4.690   3.808   4.738  1.7332 -1.3349  0.9663
14338TIP3   OH264428   0.466   6.665   3.469  0.2368 -0.5336  0.7840
14338TIP3    H164429   0.499   6.678   3.380 -1.3366 -2.6143 -0.1505
14338TIP3    H264430   0.398   6.731   3.479  0.8731  0.1396  0.6827
14339TIP3   OH264431   2.823   0.612   4.126  0.0996 -0.8002 -0.1009
14339TIP3    H164432   2.845   0.536   4.073 -1.1117 -0.1553 -1.5685
14339TIP3    H264433   2.892   0.617   4.191  1.2675 -1.9915 -1.2271
14340TIP3   OH264434   1.506   3.656   5.075 -0.1377  0.0676 -0.2063
14340TIP3    H164435   1.524   3.597   5.148 -0.5236 -0.4654 -0.5385
14340TIP3    H264436   1.413   3.641   5.055  0.0366  0.0084 -0.9824
14341TIP3   OH264437   6.416   5.384  14.408 -0.5038  0.5549 -0.6489
14341TIP3    H164438   6.428   5.304  14.357 -0.2836 -0.6624  1.2734
14341TIP3    H264439   6.359   5.438  14.354 -1.2832 -1.2105 -1.6457
14342TIP3   OH264440   2.229   5.108  13.479  0.1785 -0.1213 -0.6478
14342TIP3    H164441   2.154   5.092  13.536 -0.3543  0.0165 -1.2972
14342TIP3    H264442   2.236   5.030  13.425  0.3597 -0.0398 -0.7437
14343TIP3   OH264443   1.693   4.232   2.246 -0.3574 -0.2946  0.3865
14343TIP3    H164444   1.667   4.207   2.158 -1.0150  1.8294 -0.0572
14343TIP3    H264445   1.668   4.158   2.301 -0.1598 -1.5353 -1.1699
14344TIP3   OH264446   3.827   0.488   1.784 -0.4854 -0.2501 -0.2004
14344TIP3    H164447   3.867   0.460   1.701  0.3194  0.3864 -0.0397
14344TIP3    H264448   3.734   0.501   1.762 -0.1656  0.5075 -1.1656
14345TIP3   OH264449   0.444   5.691  14.759 -0.1733  0.0887  0.1669
14345TIP3    H164450   0.364   5.647  14.730 -0.6925 -0.2127  1.9983
14345TIP3    H264451   0.417   5.782  14.773 -0.7834 -0.4719  2.9410
14346TIP3   OH264452   4.933   3.789   2.842 -0.5267  0.1621 -0.6549
14346TIP3    H164453   4.909   3.861   2.900 -1.7248  0.9363 -2.0615
14346TIP3    H264454   4.946   3.830   2.756  0.0028 -1.1254 -1.2211
14347TIP3   OH264455   2.780   0.767  13.251 -0.0125 -0.4390 -0.1388
14347TIP3    H164456   2.818   0.687  13.213 -0.8775 -0.4804 -0.9616
14347TIP3    H264457   2.732   0.806  13.178  1.8099  1.7402 -0.2090
14348TIP3   OH264458   3.725   0.272   1.336  0.5948  0.1166  0.8703
14348TIP3    H164459   3.662   0.280   1.407  1.2446 -0.5179  1.5388
14348TIP3    H264460   3.696   0.334   1.270 -2.6648 -2.5433 -0.3293
14349TIP3   OH264461   3.389   5.027  14.699 -0.0339  0.6917 -0.1014
14349TIP3    H164462   3.300   5.001  14.676  0.1554  0.5409 -0.6755
14349TIP3    H264463   3.434   5.035  14.614  0.5745  0.4911  0.2021
14350TIP3   OH264464   2.660   1.746   2.812 -0.4256 -0.2012 -0.4269
14350TIP3    H164465   2.587   1.684   2.811 -0.4253 -0.1985 -0.9390
14350TIP3    H264466   2.677   1.765   2.719  1.1527 -1.3059 -0.3973
14351TIP3   OH264467   6.165   4.667   1.550 -0.2750 -0.4500  0.0655
14351TIP3    H164468   6.128   4.584   1.582  0.2817 -1.1727 -1.1263
14351TIP3    H264469   6.231   4.640   1.485  0.9986  0.8741  0.7850
14352TIP3   OH264470   0.737   1.176   3.331  0.2446  0.3292 -0.7494
14352TIP3    H164471   0.645   1.160   3.353  0.8062 -1.1658  0.5662
14352TIP3    H264472   0.753   1.122   3.254 -0.5154  2.1943 -2.2743
14353TIP3   OH264473   2.928   5.000   1.933  0.0149 -0.1549  0.3641
14353TIP3    H164474   2.965   5.088   1.941  1.4970 -0.8729  1.6054
14353TIP3    H264475   2.885   4.984   2.017  1.0102 -1.1829  0.6836
14354TIP3   OH264476   6.292   2.073   0.018 -0.0502  0.2071  0.5733
14354TIP3    H164477   6.211   2.027  -0.005 -0.0213  0.0815  0.7214
14354TIP3    H264478   6.263   2.145   0.075  0.0375 -0.3638  1.3401
14355TIP3   OH264479   1.382   4.991  12.223 -0.2459  0.1809 -0.0100
14355TIP3    H164480   1.411   5.062  12.166  2.1326 -1.4186 -0.8817
14355TIP3    H264481   1.290   4.978  12.201 -0.4156  2.2370 -0.6001
14356TIP3   OH264482   5.120   0.642   0.628 -0.3054  0.7290  0.2721
14356TIP3    H164483   5.153   0.731   0.613  0.5641  0.4102  0.2928
14356TIP3    H264484   5.068   0.623   0.551  0.2957  0.8943 -0.1825
14357TIP3   OH264485   2.061   4.744  13.596  0.1507  0.7657  0.1154
14357TIP3    H164486   2.074   4.752  13.690  1.8579  2.2062 -0.2053
14357TIP3    H264487   2.094   4.656  13.575  0.9358  0.9131  0.6932
14358TIP3   OH264488   2.550   1.007   4.335 -0.1623 -0.7269 -0.0001
14358TIP3    H164489   2.580   0.951   4.263  0.6979 -2.6524  1.7895
14358TIP3    H264490   2.464   0.972   4.359  0.8334 -2.0469  1.8252
14359TIP3   OH264491   4.763   1.254  14.595 -0.1862  0.3184  0.0276
14359TIP3    H164492   4.850   1.234  14.562 -0.1586 -1.4933  1.1410
14359TIP3    H264493   4.756   1.206  14.677 -1.8017  1.3963  0.5622
14360TIP3   OH264494   4.464   5.707  10.631  0.0169  0.0806  0.3076
14360TIP3    H164495   4.441   5.614  10.638  0.0284  0.0230 -0.4290
14360TIP3    H264496   4.458   5.727  10.538 -0.0017  0.8280  0.4658
14361TIP3   OH264497   4.586   5.371  12.994  0.3151  0.0131  0.3229
14361TIP3    H164498   4.507   5.374  12.939 -0.9680  1.8828  2.2228
14361TIP3    H264499   4.658   5.360  12.931 -1.3017 -0.1928 -1.5522
14362TIP3   OH264500   0.993   5.685   1.193 -0.0626 -0.0130 -0.6478
14362TIP3    H164501   1.039   5.749   1.138  0.4561  0.2803  0.1184
14362TIP3    H264502   0.936   5.738   1.249 -1.8763 -0.4168 -2.0645
14363TIP3   OH264503   5.968   2.781  15.574 -0.6918 -0.0509  0.1858
14363TIP3    H164504   5.940   2.814  15.489  1.3926 -1.4205 -1.0742
14363TIP3    H264505   6.063   2.794  15.576 -0.7091  0.0098  2.3216
14364TIP3   OH264506   4.667   2.090   0.351  0.2134 -0.3094 -1.1330
14364TIP3    H164507   4.633   2.146   0.281 -2.2143 -0.4405 -0.0904
14364TIP3    H264508   4.602   2.021   0.361  1.5136 -1.4067 -0.0825
14365TIP3   OH264509   3.908   3.152   1.568 -0.0092 -0.0014  0.2992
14365TIP3    H164510   3.968   3.078   1.559  0.0293  0.2427 -1.8231
14365TIP3    H264511   3.896   3.183   1.478 -2.0149  0.9857  0.8869
14366TIP3   OH264512   4.252   4.093  15.964 -0.0565  0.5881  0.0956
14366TIP3    H164513   4.161   4.064  15.974  0.1122  0.0922  0.1972
14366TIP3    H264514   4.265   4.156  16.034  0.3457 -0.9650  1.4325
14367TIP3   OH264515   6.602   5.816  13.781 -0.1357 -0.0036  0.1855
14367TIP3    H164516   6.548   5.738  13.791  0.3862 -0.8877 -3.3143
14367TIP3    H264517   6.540   5.889  13.793 -1.1413 -0.9373  0.8418
14368TIP3   OH264518   3.495   4.798  14.517  0.6397  0.4589  0.0811
14368TIP3    H164519   3.498   4.893  14.507 -0.1760  0.5564  0.7424
14368TIP3    H264520   3.521   4.782  14.608 -0.9889  0.1754  0.5092
14369TIP3   OH264521   0.186   2.977   1.539  0.8608  0.1218 -0.3980
14369TIP3    H164522   0.240   3.027   1.478 -0.1302  1.0305 -0.5470
14369TIP3    H264523   0.139   2.914   1.484 -1.4025  2.1435 -0.8510
14370TIP3   OH264524   3.046   4.747  14.296  0.3206  0.4404 -0.2319
14370TIP3    H164525   3.090   4.666  14.319  1.3572  1.3952  1.2095
14370TIP3    H264526   3.040   4.744  14.200 -0.7106 -1.8571 -0.1280
14371TIP3   OH264527   4.485   4.926  13.815 -0.3214 -0.4300  1.1440
14371TIP3    H164528   4.512   4.852  13.870 -0.4579 -1.1440  0.2578
14371TIP3    H264529   4.567   4.963  13.783 -0.2674 -0.4795  1.2243
14372TIP3   OH264530   4.540   2.970   0.248 -0.3702 -0.0459 -0.3694
14372TIP3    H164531   4.454   2.932   0.262 -0.8342  1.1545  0.1471
14372TIP3    H264532   4.537   3.054   0.294  0.8159  0.3482 -0.9732
14373TIP3   OH264533   5.174   6.415  13.848  0.2180  0.2672 -0.5014
14373TIP3    H164534   5.183   6.323  13.873 -1.4486  0.2135 -0.0228
14373TIP3    H264535   5.171   6.414  13.752  0.2375 -0.1708 -0.4965
14374TIP3   OH264536   2.448   4.247   4.032 -0.7445  0.4968 -0.6598
14374TIP3    H164537   2.494   4.209   4.107 -1.2342 -0.8455 -1.0391
14374TIP3    H264538   2.506   4.232   3.957 -1.2986 -0.2220 -0.9495
14375TIP3   OH264539   1.678   0.029   1.676  0.4220  0.4365  0.1350
14375TIP3    H164540   1.616   0.101   1.674 -0.4677 -0.2877  1.0191
14375TIP3    H264541   1.654  -0.025   1.600 -0.9104 -0.5311  1.1985
14376TIP3   OH264542   1.210   1.557  11.550 -0.5304 -0.1088 -0.1983
14376TIP3    H164543   1.201   1.620  11.622  1.1076 -0.4646  0.3568
14376TIP3    H264544   1.165   1.598  11.477 -1.6556  0.5697  0.8556
14377TIP3   OH264545   4.531   0.550  12.275  0.0429 -0.1401 -0.7620
14377TIP3    H164546   4.481   0.476  12.240  0.0263 -0.1657 -0.6837
14377TIP3    H264547   4.469   0.623  12.275 -0.7620 -0.7761  1.7235
14378TIP3   OH264548   3.261   3.309   0.312  0.3876 -0.0851  0.1801
14378TIP3    H164549   3.291   3.384   0.260 -1.2549  1.1270  0.9343
14378TIP3    H264550   3.210   3.256   0.250  0.5112  0.0580 -0.0446
14379TIP3   OH264551   0.026   5.198   3.115 -0.1618  0.0833  0.4639
14379TIP3    H164552  -0.064   5.220   3.090 -0.9679  2.0765  4.6750
14379TIP3    H264553   0.016   5.124   3.175  0.6754  2.2716  3.3734
14380TIP3   OH264554   4.190   5.696   2.764  0.5685 -0.2910  0.6627
14380TIP3    H164555   4.246   5.722   2.691 -1.0610  0.9701 -0.1770
14380TIP3    H264556   4.251   5.667   2.832  2.1839  0.1386 -0.5739
14381TIP3   OH264557   0.037   3.614   0.101  0.0242  0.3697  0.0543
14381TIP3    H164558  -0.020   3.667   0.046  1.7775  0.9358 -1.2877
14381TIP3    H264559  -0.009   3.606   0.184 -2.4584 -0.0773 -1.3329
14382TIP3   OH264560   0.385   4.611  15.373  0.5194  0.0099  0.1882
14382TIP3    H164561   0.414   4.678  15.434 -0.3863 -0.9521  1.6998
14382TIP3    H264562   0.308   4.649  15.330  0.4184  0.2028  0.5439
14383TIP3   OH264563   5.095   1.171   4.659  0.0572 -0.0284  0.2983
14383TIP3    H164564   5.124   1.079   4.656 -1.8054 -0.6369  0.5511
14383TIP3    H264565   5.128   1.204   4.742  1.1225 -0.3332  0.0063
14384TIP3   OH264566   6.516   5.044   5.098  0.1923  0.4682  0.3114
14384TIP3    H164567   6.488   5.117   5.042  2.2754  0.5311 -0.7030
14384TIP3    H264568   6.496   5.074   5.187 -0.1827  1.7355 -0.1785
14385TIP3   OH264569   4.720   4.827   5.505 -0.4694 -0.3443  0.0895
14385TIP3    H164570   4.738   4.903   5.449 -1.0393 -0.6930 -0.5830
14385TIP3    H264571   4.667   4.862   5.576  1.7793  0.4511  1.4178
14386TIP3   OH264572   2.030   1.233   5.129 -0.0605 -0.3110  0.1941
14386TIP3    H164573   2.088   1.269   5.061  0.1217  2.5894  1.7892
14386TIP3    H264574   2.074   1.253   5.211 -2.4105  0.2798  1.3635
14387TIP3   OH264575   1.519   6.642  14.663  0.0683  0.2438  0.2364
14387TIP3    H164576   1.453   6.678  14.604  1.8278  1.6068 -0.9412
14387TIP3    H264577   1.512   6.547  14.652  0.1868  0.4804 -1.9886
14388TIP3   OH264578   1.004   2.643  13.912  0.6004 -0.2544  0.0275
14388TIP3    H164579   1.042   2.631  13.825 -0.7340  0.3012 -0.6354
14388TIP3    H264580   1.071   2.692  13.960  1.8758 -1.6357 -0.2853
14389TIP3   OH264581   2.231   2.752  16.170  0.2175 -0.2716  0.5552
14389TIP3    H164582   2.199   2.683  16.229  1.8640 -2.5182 -1.0659
14389TIP3    H264583   2.326   2.736  16.164  0.3175  0.8849 -1.4578
14390TIP3   OH264584   2.995   5.255  13.494 -0.3401 -0.1351  0.2485
14390TIP3    H164585   3.006   5.282  13.585  0.7486  1.5625 -0.3676
14390TIP3    H264586   2.902   5.270  13.476 -0.6217 -0.7517  1.1555
14391TIP3   OH264587   0.349   4.667   4.038 -0.2796  0.4950 -0.3102
14391TIP3    H164588   0.271   4.626   3.999 -0.7000  1.2828 -0.3133
14391TIP3    H264589   0.406   4.684   3.963 -0.3036  0.3429 -0.3641
14392TIP3   OH264590   6.255   6.715  14.299  0.5610  0.2713  0.2642
14392TIP3    H164591   6.242   6.704  14.205  1.3560 -0.2053  0.2081
14392TIP3    H264592   6.172   6.689  14.338  0.2892  0.2927 -0.2946
14393TIP3   OH264593   2.633   2.205  11.888 -0.4200  0.0187  0.0494
14393TIP3    H164594   2.595   2.220  11.801  0.0597 -0.4277 -0.2372
14393TIP3    H264595   2.587   2.128  11.920 -0.9858  0.5039  0.4208
14394TIP3   OH264596   1.267   2.286   6.198  0.3225 -0.3597 -1.0776
14394TIP3    H164597   1.346   2.258   6.153  2.2002  1.0511  1.1922
14394TIP3    H264598   1.255   2.223   6.269 -0.0104 -0.0053 -0.8088
14395TIP3   OH264599   6.482   2.701   1.622 -0.0368 -0.3770  0.8297
14395TIP3    H164600   6.464   2.793   1.643 -0.5580 -0.5852  1.3210
14395TIP3    H264601   6.540   2.672   1.693  1.5070  0.0303 -0.2355
14396TIP3   OH264602   4.742   0.100  15.635  0.2829 -0.0547  0.0820
14396TIP3    H164603   4.826   0.078  15.677  0.9391 -1.0635 -1.7061
14396TIP3    H264604   4.766   0.130  15.547 -1.3748 -2.5709 -1.2725
14397TIP3   OH264605   6.765   3.568  16.687  0.2007 -0.2435  0.1591
14397TIP3    H164606   6.675   3.543  16.708  0.7106 -0.6249  1.9720
14397TIP3    H264607   6.811   3.485  16.677  0.1703 -0.0594 -1.6770
14398TIP3   OH264608   6.694   3.965  15.403 -0.5642 -0.1449  0.5808
14398TIP3    H164609   6.722   3.875  15.422 -1.8621 -0.6162  0.3254
14398TIP3    H264610   6.626   3.983  15.467 -0.6610  0.4695  0.3078
14399TIP3   OH264611   4.184   2.333   2.329 -0.2072 -0.3455  0.0228
14399TIP3    H164612   4.120   2.335   2.400  0.8192 -0.6825  0.9800
14399TIP3    H264613   4.132   2.342   2.249 -1.3731  0.0855  0.8161
14400TIP3   OH264614   5.033   1.595  14.949  0.2904  0.5326 -0.0819
14400TIP3    H164615   4.950   1.617  14.906  0.2261  0.9815  0.2712
14400TIP3    H264616   5.025   1.502  14.970 -0.7508  0.9336  1.3408
14401TIP3   OH264617   6.723   5.969   3.552  0.4813 -0.5368  0.3370
14401TIP3    H164618   6.758   5.958   3.640 -0.7383 -0.2687  0.8658
14401TIP3    H264619   6.638   5.924   3.554 -0.7775  1.7535  0.0918
14402TIP3   OH264620   2.431   5.224  14.492  0.3833 -0.2671 -0.2501
14402TIP3    H164621   2.455   5.148  14.438  0.7644 -0.9144  0.8171
14402TIP3    H264622   2.376   5.188  14.562  0.8306  0.3770  0.4440
14403TIP3   OH264623   4.737   2.242  11.734  0.4675 -1.0136 -0.2881
14403TIP3    H164624   4.753   2.148  11.746  2.7782 -0.7446 -1.0265
14403TIP3    H264625   4.772   2.261  11.647 -0.9192  0.3448 -0.5732
14404TIP3   OH264626   5.185   1.879  11.709 -0.9662  0.4986 -0.0514
14404TIP3    H164627   5.190   1.868  11.804 -0.8252 -0.5013 -0.1694
14404TIP3    H264628   5.121   1.814  11.681  2.2053 -2.2814 -1.1338
14405TIP3   OH264629   0.858   2.915  12.830  0.3448  0.4939 -0.6208
14405TIP3    H164630   0.820   2.894  12.915 -0.3676  0.4003 -0.9513
14405TIP3    H264631   0.952   2.905  12.842  0.1341 -1.3505 -0.3397
14406TIP3   OH264632   0.084   1.160  11.312  0.0216  0.3264 -0.2335
14406TIP3    H164633   0.036   1.218  11.370  0.6253  1.9260 -1.3131
14406TIP3    H264634   0.022   1.142  11.240  0.6725  1.5978 -1.1255
14407TIP3   OH264635   5.423   4.082   4.562 -0.0494 -0.3193 -0.4491
14407TIP3    H164636   5.404   3.991   4.588 -0.4566 -0.4692 -1.2598
14407TIP3    H264637   5.393   4.134   4.636  0.9745 -0.8935  0.3997
14408TIP3   OH264638   3.705   1.915  13.587  0.1357  0.1711  0.4546
14408TIP3    H164639   3.636   1.909  13.653 -0.6722 -1.6817 -0.5398
14408TIP3    H264640   3.724   1.824  13.563  1.3576  0.7632 -0.8962
14409TIP3   OH264641   4.132   5.750   3.888 -0.1846  0.3402 -0.6856
14409TIP3    H164642   4.119   5.663   3.924  2.4284 -0.2494 -1.0672
14409TIP3    H264643   4.181   5.797   3.956  1.2613  0.4602 -1.7845
14410TIP3   OH264644   3.752   5.935  14.004  0.4671 -0.3991 -0.1077
14410TIP3    H164645   3.824   5.980  14.050  0.2117  1.0369 -1.0990
14410TIP3    H264646   3.689   6.004  13.984  0.6377 -0.9606 -2.7635
14411TIP3   OH264647   1.353   5.300  15.358  0.4591  0.2089  0.1795
14411TIP3    H164648   1.447   5.309  15.347  0.5248 -0.7360 -0.0626
14411TIP3    H264649   1.315   5.345  15.283  0.7703 -1.2585 -0.8711
14412TIP3   OH264650   1.374   2.397   0.731 -0.0867  0.0714  0.5957
14412TIP3    H164651   1.433   2.328   0.762  0.1012 -0.2627 -0.4895
14412TIP3    H264652   1.405   2.418   0.643 -2.6019 -1.2789 -0.6485
14413TIP3   OH264653   1.930   0.864   5.064 -0.0563 -0.3322 -0.1537
14413TIP3    H164654   1.989   0.900   4.997 -0.6193 -0.3725 -0.6799
14413TIP3    H264655   1.952   0.771   5.067 -0.2836 -0.4001 -0.5510
14414TIP3   OH264656   0.505   6.423   2.114  0.4644 -0.0677  0.1737
14414TIP3    H164657   0.505   6.328   2.107  0.2652 -0.0587  0.0318
14414TIP3    H264658   0.448   6.452   2.042 -1.4491  0.0517  1.6863
14415TIP3   OH264659   5.032   5.311  12.031 -0.1665  0.0342  0.1942
14415TIP3    H164660   4.994   5.326  12.117 -0.6288 -0.1980  0.0313
14415TIP3    H264661   4.957   5.294  11.974  0.2501 -1.5219  0.0891
14416TIP3   OH264662   5.007   1.195  12.493 -0.3226  0.1513 -0.0169
14416TIP3    H164663   5.008   1.163  12.583 -2.1891  0.3400  0.0910
14416TIP3    H264664   5.009   1.291  12.502  0.2298  0.1559 -0.1950
14417TIP3   OH264665   4.217   1.680  16.462  0.4738 -0.6768 -0.5041
14417TIP3    H164666   4.189   1.650  16.376 -1.6428  0.1427 -0.1472
14417TIP3    H264667   4.307   1.708  16.450  0.1131 -0.3212 -2.5184
14418TIP3   OH264668   2.818   2.217  16.366 -0.9504  0.0079  0.0563
14418TIP3    H164669   2.779   2.134  16.391  1.3590 -1.1742 -0.0800
14418TIP3    H264670   2.746   2.280  16.369 -2.7220 -1.9729  0.2244
14419TIP3   OH264671   1.864   5.742   2.304 -0.5022 -0.4267 -0.3368
14419TIP3    H164672   1.778   5.706   2.286 -0.5803  0.0581 -0.9446
14419TIP3    H264673   1.906   5.750   2.218  0.0783 -0.4900 -0.0631
14420TIP3   OH264674   0.960   2.307   3.950  0.5843 -0.3897  0.3328
14420TIP3    H164675   0.983   2.252   4.025 -0.4564 -0.7507  0.4000
14420TIP3    H264676   0.933   2.390   3.989  2.4066  0.2781  0.2180
14421TIP3   OH264677   5.104   1.091  16.546  0.1400  0.2278 -0.5283
14421TIP3    H164678   5.148   1.062  16.626 -2.7118 -3.8608 -0.2894
14421TIP3    H264679   5.134   1.030  16.479 -1.9603 -0.0504 -1.2428
14422TIP3   OH264680   2.053   0.328  17.050  0.0136 -0.2003 -0.0880
14422TIP3    H164681   2.126   0.340  17.110 -1.1299 -2.6537  1.8668
14422TIP3    H264682   1.985   0.387  17.083 -0.5436 -1.4030  0.9685
14423TIP3   OH264683   3.500   0.839   2.151  0.5829  0.1213  0.2754
14423TIP3    H164684   3.436   0.893   2.105  0.9195  0.2955  0.0187
14423TIP3    H264685   3.447   0.773   2.196  0.3312 -0.8157 -1.3559
14424TIP3   OH264686   1.184   4.691   3.262 -0.3074  0.1126  0.1717
14424TIP3    H164687   1.117   4.666   3.327 -0.7197  0.5527 -0.0760
14424TIP3    H264688   1.185   4.787   3.266  0.1983  0.1108  0.0555
14425TIP3   OH264689   1.477   0.439  13.945 -0.5463 -0.9726 -0.1737
14425TIP3    H164690   1.454   0.453  13.853 -0.2370 -1.6614 -0.3570
14425TIP3    H264691   1.570   0.458  13.950 -0.9901  1.2613  0.4520
14426TIP3   OH264692   2.406   4.250  11.431  0.2378  1.0727 -0.0261
14426TIP3    H164693   2.463   4.316  11.393 -0.7885  2.2990  0.5173
14426TIP3    H264694   2.445   4.231  11.516  1.8178 -0.7306 -1.1332
14427TIP3   OH264695   5.709   2.522   2.799  0.3770 -0.3566 -0.1367
14427TIP3    H164696   5.725   2.481   2.715  0.7216  0.2194 -0.3549
14427TIP3    H264697   5.766   2.475   2.860 -1.6028 -2.3664  0.2524
14428TIP3   OH264698   4.197   1.226  14.515 -0.5575 -0.6078 -0.2048
14428TIP3    H164699   4.136   1.169  14.562 -1.3994 -0.8332 -1.5440
14428TIP3    H264700   4.201   1.305  14.568 -1.0243 -1.0903  0.5658
14429TIP3   OH264701   2.310   0.057   0.068  0.7168 -0.4425 -0.0579
14429TIP3    H164702   2.385   0.045   0.126 -0.3270 -0.0081  1.3984
14429TIP3    H264703   2.300   0.152   0.059  0.9858 -0.5039 -1.1067
14430TIP3   OH264704   1.523   0.252   4.074 -0.6058  0.1700 -0.0120
14430TIP3    H164705   1.480   0.183   4.123  0.8460  0.8291  2.2563
14430TIP3    H264706   1.512   0.330   4.127  0.1678  1.1183 -1.2119
14431TIP3   OH264707   2.875   6.420  15.121 -0.0906  0.1970  0.9955
14431TIP3    H164708   2.950   6.383  15.168 -0.7190 -0.7882  1.2338
14431TIP3    H264709   2.848   6.494  15.174  1.4328  1.2786  0.3045
14432TIP3   OH264710   2.736   1.082  10.463 -0.8183  0.1192 -0.4741
14432TIP3    H164711   2.763   0.999  10.425  2.5117  1.5212 -1.3466
14432TIP3    H264712   2.764   1.148  10.399 -0.8313  2.0995  1.5034
14433TIP3   OH264713   1.846   1.371  15.933  0.0603 -0.0515  0.2363
14433TIP3    H164714   1.939   1.349  15.926  0.3703  1.0337  0.8073
14433TIP3    H264715   1.800   1.290  15.909  1.0921  0.3690 -3.4103
14434TIP3   OH264716   2.021   2.103  13.181 -0.2152  0.5930 -0.4363
14434TIP3    H164717   1.955   2.037  13.201 -0.3377  0.4579 -1.2733
14434TIP3    H264718   1.970   2.179  13.151 -0.2307  1.9109  2.7177
14435TIP3   OH264719   5.856   3.050  16.646 -0.0431  0.1876  0.6494
14435TIP3    H164720   5.794   3.046  16.719  0.8859 -0.3668  1.4222
14435TIP3    H264721   5.873   2.958  16.624 -0.4604  0.3527 -0.3977
14436TIP3   OH264722   6.644   6.029  16.944  0.7103  0.0769  0.1157
14436TIP3    H164723   6.685   6.089  17.006 -1.3506  0.5131  1.1267
14436TIP3    H264724   6.600   6.086  16.881 -1.1125 -0.3231  0.9862
14437TIP3   OH264725   4.846   4.720   6.145 -0.2457  0.5212  0.0113
14437TIP3    H164726   4.910   4.685   6.083 -0.5630 -0.6541  0.3265
14437TIP3    H264727   4.897   4.749   6.220 -0.1450 -1.3694  0.7050
14438TIP3   OH264728   4.067   0.081  11.235 -0.6461 -0.0589  0.3158
14438TIP3    H164729   4.109   0.100  11.318 -1.2248  2.7306  0.0270
14438TIP3    H264730   4.057   0.167  11.193 -2.4695 -1.1574 -1.5878
14439TIP3   OH264731   2.438   1.220  14.650  0.1901  0.2743 -0.3645
14439TIP3    H164732   2.461   1.298  14.700  2.8583 -0.6925  0.0322
14439TIP3    H264733   2.403   1.159  14.715  0.9316  0.0840 -0.1276
14440TIP3   OH264734   6.069   1.394   0.665  0.3011 -0.0792  0.1426
14440TIP3    H164735   6.077   1.328   0.733 -0.1762 -0.7192 -0.4195
14440TIP3    H264736   6.143   1.378   0.607  0.7951  0.5620  0.5799
14441TIP3   OH264737   1.277   6.141   2.726 -0.4652  0.7620  0.4737
14441TIP3    H164738   1.275   6.050   2.753 -1.0749  0.7074  0.2659
14441TIP3    H264739   1.339   6.144   2.654 -0.4283  0.5156  0.4970
14442TIP3   OH264740   5.077   0.168   3.917 -0.1340 -0.1971 -0.2338
14442TIP3    H164741   5.106   0.077   3.916  0.2126 -0.1049  0.7380
14442TIP3    H264742   4.994   0.168   3.871 -0.8136 -1.2400  0.9653
14443TIP3   OH264743   1.082   0.059  11.179  0.3663 -0.2422  0.0251
14443TIP3    H164744   1.137   0.097  11.247  0.4469  0.0354 -0.1936
14443TIP3    H264745   1.080   0.126  11.110 -0.8814  0.0858  0.3676
14444TIP3   OH264746   5.735   2.936   5.346  0.1019  1.0098  0.0677
14444TIP3    H164747   5.749   2.843   5.368  1.2535  1.0589 -0.4651
14444TIP3    H264748   5.644   2.952   5.371 -0.2977 -0.4272 -0.3778
14445TIP3   OH264749   2.516   1.503  14.728 -0.2262  0.0936  0.1146
14445TIP3    H164750   2.467   1.556  14.665  1.4145  4.0684  2.0146
14445TIP3    H264751   2.608   1.518  14.706  0.3006 -0.8034  1.6533
14446TIP3   OH264752   5.941   0.357   4.810  0.1866  0.1332  0.5562
14446TIP3    H164753   6.018   0.409   4.788  0.9341 -0.2611  2.2095
14446TIP3    H264754   5.940   0.288   4.743  2.0102 -0.6168  1.2767
14447TIP3   OH264755   3.304   5.542   6.009 -0.6096 -0.0232 -0.0977
14447TIP3    H164756   3.303   5.571   5.918 -0.8461  1.7638  0.4563
14447TIP3    H264757   3.372   5.596   6.051 -1.1776 -0.1402  0.9964
14448TIP3   OH264758   1.826   4.105  15.337 -0.1703  0.1709 -0.2706
14448TIP3    H164759   1.743   4.121  15.380 -0.1065 -1.7924  0.6384
14448TIP3    H264760   1.877   4.055  15.400  1.1524  0.0768 -1.3790
14449TIP3   OH264761   3.313   0.483   3.638 -0.1177  0.1950 -0.1552
14449TIP3    H164762   3.285   0.567   3.601 -0.0437  1.4717  2.4961
14449TIP3    H264763   3.242   0.459   3.698  0.9145 -0.4199  0.8511
14450TIP3   OH264764   3.341   5.230  16.241  0.4452  0.0074 -0.4354
14450TIP3    H164765   3.315   5.311  16.196 -1.3266 -0.8718 -1.0317
14450TIP3    H264766   3.262   5.177  16.242  0.8400 -0.6215  2.4102
14451TIP3   OH264767   0.718   0.014   2.141 -1.1323  0.6190  0.3454
14451TIP3    H164768   0.657   0.087   2.137 -0.0842  1.8047  3.9288
14451TIP3    H264769   0.798   0.051   2.180  1.4545 -1.1853 -2.9894
14452TIP3   OH264770   2.727   2.100  14.690 -0.5408 -0.2877  0.1647
14452TIP3    H164771   2.777   2.180  14.672 -1.2088  0.2662  0.7107
14452TIP3    H264772   2.793   2.031  14.694  0.1356  0.3644  0.4623
14453TIP3   OH264773   3.841   0.718   4.917  0.3880 -0.1722  0.0594
14453TIP3    H164774   3.870   0.655   4.983  1.8967 -0.0353 -0.4406
14453TIP3    H264775   3.806   0.792   4.968  1.2825 -0.1844  0.7176
14454TIP3   OH264776   1.160   5.746   6.069 -0.6539  0.5034  0.1601
14454TIP3    H164777   1.210   5.707   5.998 -0.2780  0.6293  0.3564
14454TIP3    H264778   1.149   5.675   6.132 -1.9269  0.0828 -0.5138
14455TIP3   OH264779   4.324   0.171   3.480 -0.1002  0.3770 -0.4967
14455TIP3    H164780   4.230   0.162   3.496  0.0251 -0.8773 -0.4227
14455TIP3    H264781   4.362   0.183   3.567  0.0174 -1.1587 -0.3257
14456TIP3   OH264782   3.133   1.694  14.418  0.1280  0.5281 -0.2482
14456TIP3    H164783   3.090   1.768  14.463  2.1635  0.9907  1.0169
14456TIP3    H264784   3.149   1.726  14.330 -1.2608  0.6838 -0.4605
14457TIP3   OH264785   5.930   1.629  12.777  0.4542  0.2575 -0.5750
14457TIP3    H164786   6.020   1.627  12.810  1.2247 -2.7926 -2.6614
14457TIP3    H264787   5.884   1.564  12.830 -0.7115  2.1843  0.8449
14458TIP3   OH264788   1.721   0.019  14.809  0.3259  0.2782  0.3450
14458TIP3    H164789   1.723   0.114  14.817  1.8194  0.4070 -1.3162
14458TIP3    H264790   1.659   0.002  14.737 -1.6996 -0.1482  2.1245
14459TIP3   OH264791   0.089   2.131   2.448  0.2425 -0.3265  0.5493
14459TIP3    H164792   0.144   2.109   2.524  1.3615 -0.3111 -0.2426
14459TIP3    H264793   0.031   2.056   2.437 -1.3621  0.5527  2.6851
14460TIP3   OH264794   1.084   1.774   3.263  0.0269 -0.0851 -0.2387
14460TIP3    H164795   1.156   1.814   3.311 -0.4111 -0.4312  0.7115
14460TIP3    H264796   1.037   1.722   3.328 -0.1967 -1.0776 -1.1731
14461TIP3   OH264797   0.781   5.190  13.612  0.4826  0.1257 -0.7403
14461TIP3    H164798   0.718   5.244  13.660  0.3987 -0.2140 -0.4704
14461TIP3    H264799   0.817   5.131  13.677  1.1045  0.3380 -0.8927
14462TIP3   OH264800   3.572   3.369   4.508 -1.0727 -0.5582  0.6148
14462TIP3    H164801   3.535   3.430   4.572 -0.5899 -0.2965  0.6436
14462TIP3    H264802   3.584   3.421   4.429 -0.8663 -0.6676  0.5743
14463TIP3   OH264803   5.273   5.801   2.361 -0.5958 -0.6821  0.1335
14463TIP3    H164804   5.182   5.827   2.353 -0.3724  0.3368  0.7721
14463TIP3    H264805   5.270   5.710   2.390 -1.3968 -1.1895 -1.4588
14464TIP3   OH264806   2.406   1.232  16.609  0.2254  0.0708 -0.3050
14464TIP3    H164807   2.385   1.204  16.698 -1.1058 -0.2264 -0.7038
14464TIP3    H264808   2.476   1.173  16.581  1.7411  1.1699  1.0970
14465TIP3   OH264809   2.554   4.008   0.977  0.1095  0.0942  0.3902
14465TIP3    H164810   2.547   3.925   1.025  3.5431 -0.0768  0.7050
14465TIP3    H264811   2.497   3.997   0.901  1.0725 -2.8401  0.0381
14466TIP3   OH264812   4.281   3.335  11.916  0.8738  0.3778 -0.5894
14466TIP3    H164813   4.299   3.325  11.822  0.5389 -2.4435 -0.4021
14466TIP3    H264814   4.292   3.247  11.952 -1.3489  0.9384  1.6056
14467TIP3   OH264815   1.402   6.273  12.143 -1.2215  0.1490 -0.4534
14467TIP3    H164816   1.493   6.298  12.160 -0.9336 -0.7691 -0.6218
14467TIP3    H264817   1.372   6.335  12.077  0.0686 -1.1187 -2.2635
14468TIP3   OH264818   6.260   4.375  11.589  0.1858  0.0763  0.0672
14468TIP3    H164819   6.202   4.316  11.637  0.0809  1.4875  1.7479
14468TIP3    H264820   6.328   4.398  11.653  3.6194 -2.8562 -2.3347
14469TIP3   OH264821   2.487   1.691  12.604  1.0236  0.0979 -0.1987
14469TIP3    H164822   2.444   1.749  12.540  1.7811  1.5646  0.5852
14469TIP3    H264823   2.418   1.668  12.666  0.9936  1.2472  0.2197
14470TIP3   OH264824   4.084   5.298  11.505  0.0552  0.0684 -0.0202
14470TIP3    H164825   4.086   5.244  11.426  2.2484  1.8719 -1.2623
14470TIP3    H264826   4.048   5.381  11.476 -0.5827  0.2400  1.2410
14471TIP3   OH264827   4.512   0.212  12.110  0.1233  0.2614 -0.1968
14471TIP3    H164828   4.501   0.145  12.177 -0.8588  1.8148  1.2185
14471TIP3    H264829   4.433   0.206  12.056 -0.7204  1.3875  0.9218
14472TIP3   OH264830   1.569   3.482   4.602  0.1014  0.1722  0.1726
14472TIP3    H164831   1.628   3.522   4.538 -1.3296  1.2732 -0.4992
14472TIP3    H264832   1.621   3.414   4.644  1.7395  0.9029 -0.6271
14473TIP3   OH264833   4.129   4.837   4.776 -0.2977  0.0601  0.0145
14473TIP3    H164834   4.121   4.929   4.800 -0.9526  0.1336 -0.4621
14473TIP3    H264835   4.153   4.793   4.857 -1.7134  0.4115  0.6390
14474TIP3   OH264836   5.713   6.756   1.300 -0.1382 -0.6391  0.1600
14474TIP3    H164837   5.765   6.679   1.276  1.1478  0.3996 -0.4592
14474TIP3    H264838   5.731   6.820   1.231 -0.3233  0.6125  1.2520
14475TIP3   OH264839   5.254   5.830  13.727  0.7225 -0.5130 -1.0380
14475TIP3    H164840   5.300   5.900  13.681 -0.5895 -0.5254 -2.3833
14475TIP3    H264841   5.161   5.852  13.719  0.4209 -0.7444  1.2427
14476TIP3   OH264842   3.190   1.934  13.288  0.2720  0.2298  0.0180
14476TIP3    H164843   3.111   1.896  13.327  0.8974  1.4471  2.6046
14476TIP3    H264844   3.190   1.903  13.198 -2.9278 -0.1424  0.0896
14477TIP3   OH264845   4.395   5.634   5.057 -0.5397  0.2923  0.2386
14477TIP3    H164846   4.385   5.539   5.060 -0.1630  0.2915  1.9786
14477TIP3    H264847   4.479   5.648   5.013  0.5919 -0.2761  2.1525
14478TIP3   OH264848   4.141   0.406   4.353  0.1460 -0.1693 -0.2113
14478TIP3    H164849   4.234   0.424   4.358 -0.0178  0.6836 -0.1797
14478TIP3    H264850   4.107   0.467   4.288 -0.6744  0.7049  1.0068
14479TIP3   OH264851   2.528   2.652  15.388 -0.2033  0.2383 -0.3008
14479TIP3    H164852   2.622   2.649  15.408 -0.2156  1.0574 -0.0978
14479TIP3    H264853   2.487   2.614  15.466 -0.1385  1.6171  0.4237
14480TIP3   OH264854   4.084   6.467   0.733 -0.1468  0.0261 -0.0562
14480TIP3    H164855   3.995   6.502   0.728 -0.6696 -1.3754 -0.8607
14480TIP3    H264856   4.095   6.417   0.652  1.5239  0.5010 -0.1445
14481TIP3   OH264857   0.186   5.109   5.683  0.3944  0.0612 -0.2615
14481TIP3    H164858   0.133   5.055   5.624  0.8221 -1.5597  0.8059
14481TIP3    H264859   0.122   5.165   5.728  0.0883  1.5436 -2.4302
14482TIP3   OH264860   5.401   4.261  11.141  0.4786  0.8857  0.4748
14482TIP3    H164861   5.457   4.289  11.213  1.2776 -0.5493  0.4382
14482TIP3    H264862   5.431   4.172  11.121 -1.3366  0.3637 -0.0120
14483TIP3   OH264863   1.813   3.689   2.979 -0.1597  0.0785  0.5887
14483TIP3    H164864   1.881   3.691   2.912 -0.0535  2.9937  0.7178
14483TIP3    H264865   1.861   3.696   3.062 -0.4405 -0.9131  0.8364
14484TIP3   OH264866   4.483   6.682   1.276  0.0322  0.1924  0.0964
14484TIP3    H164867   4.501   6.773   1.300 -1.1315  0.4256  0.1205
14484TIP3    H264868   4.392   6.683   1.246  0.1933 -0.8641 -0.4245
14485TIP3   OH264869   4.776   2.591  13.282  0.0041  0.4186 -0.2892
14485TIP3    H164870   4.857   2.630  13.251  0.9287  1.5794  3.2795
14485TIP3    H264871   4.793   2.496  13.284  1.0818  0.6140 -0.1408
14486TIP3   OH264872   1.848   1.679   1.942  0.1549 -0.5700 -0.3480
14486TIP3    H164873   1.870   1.586   1.938  0.6066 -0.3671 -2.7062
14486TIP3    H264874   1.854   1.710   1.852 -1.0668  1.5086  0.2467
14487TIP3   OH264875   1.860   5.479  13.216  0.0564 -0.1943  0.1721
14487TIP3    H164876   1.852   5.411  13.283 -0.4314 -0.4937 -0.1909
14487TIP3    H264877   1.783   5.534  13.228  0.0956 -0.1051  0.0187
14488TIP3   OH264878   1.741   4.101  14.801  0.3730 -0.1589  0.3299
14488TIP3    H164879   1.739   4.113  14.896 -0.1660  0.2116  0.2746
14488TIP3    H264880   1.834   4.090  14.780  0.4272 -1.1171  1.0032
14489TIP3   OH264881   2.550   6.494   3.462 -0.0023  0.1973 -0.1626
14489TIP3    H164882   2.484   6.563   3.452 -0.9277 -0.7210 -0.4301
14489TIP3    H264883   2.528   6.430   3.395 -0.4316 -1.3841  1.4483
14490TIP3   OH264884   6.608   1.826   0.755 -0.0328 -0.2536  0.3801
14490TIP3    H164885   6.679   1.875   0.796 -0.5450  0.9569 -0.1687
14490TIP3    H264886   6.652   1.752   0.712  1.0099  0.9584 -0.6897
14491TIP3   OH264887   2.316   0.296   1.704 -0.4540  0.5193 -0.2015
14491TIP3    H164888   2.386   0.233   1.693 -1.7757 -1.1447  0.7263
14491TIP3    H264889   2.338   0.367   1.643  2.9201  0.8890  1.3483
14492TIP3   OH264890   5.732   1.550   2.498 -0.0173 -0.2476  0.0175
14492TIP3    H164891   5.764   1.614   2.561  0.2048  0.5084 -0.8543
14492TIP3    H264892   5.751   1.588   2.413 -0.3080 -1.2640 -0.5146
14493TIP3   OH264893   3.665   3.563  14.752  0.3744 -0.5740 -0.4338
14493TIP3    H164894   3.695   3.500  14.686 -0.2246  1.6531 -2.9653
14493TIP3    H264895   3.591   3.607  14.710 -1.1996 -0.3049  2.4827
14494TIP3   OH264896   1.074   3.688   4.749 -0.0394  0.0885 -0.1994
14494TIP3    H164897   1.097   3.696   4.656 -1.2579 -0.9889 -0.6136
14494TIP3    H264898   0.979   3.671   4.748 -0.5270  2.5587  1.3605
14495TIP3   OH264899   2.167   6.331   2.540  0.1729  0.2020  0.4733
14495TIP3    H164900   2.092   6.272   2.534  0.0205  0.4557 -0.1809
14495TIP3    H264901   2.139   6.399   2.601  0.1430 -0.0957  0.7946
14496TIP3   OH264902   0.335   3.918  11.726 -0.0077 -0.2906  0.0612
14496TIP3    H164903   0.251   3.899  11.769 -0.2649  1.8815  0.5387
14496TIP3    H264904   0.311   3.939  11.636  0.2410 -1.7267 -0.3553
14497TIP3   OH264905   3.143   0.292   0.480  0.1760  0.4809  0.4339
14497TIP3    H164906   3.137   0.251   0.394  2.9392 -1.9265  1.3232
14497TIP3    H264907   3.072   0.251   0.530  1.0619 -1.0325  0.4545
14498TIP3   OH264908   5.770   5.925  15.533 -0.5247 -0.9311 -0.1226
14498TIP3    H164909   5.780   5.962  15.445 -0.2449 -1.3596 -0.2701
14498TIP3    H264910   5.728   5.995  15.583  0.9474 -0.0153 -0.1320
14499TIP3   OH264911   1.799   6.185   0.440 -0.6479  0.2179 -0.9604
14499TIP3    H164912   1.729   6.166   0.376 -1.2016 -0.2535 -0.2214
14499TIP3    H264913   1.842   6.100   0.453 -1.0061  0.1636 -0.1486
14500TIP3   OH264914   0.640   1.643   2.990  0.2004  0.1920  0.2456
14500TIP3    H164915   0.709   1.585   2.959  0.8542  1.1917 -0.1768
14500TIP3    H264916   0.677   1.686   3.067  0.4052  1.4541 -0.5537
14501TIP3   OH264917   1.974   3.130  16.561  0.1077  0.3593  0.2827
14501TIP3    H164918   2.014   3.131  16.474  0.2735 -0.0482  0.3522
14501TIP3    H264919   1.910   3.201  16.559  0.4162  0.6299 -0.0292
14502TIP3   OH264920   3.110   3.883  15.151  0.4794 -0.1876 -0.0107
14502TIP3    H164921   3.129   3.897  15.058  0.2115  0.6720  0.0640
14502TIP3    H264922   3.150   3.958  15.196 -1.0497  0.4225  0.3682
14503TIP3   OH264923   1.806   6.534  15.467 -0.1143 -0.4326 -0.4452
14503TIP3    H164924   1.764   6.461  15.422 -0.5803 -0.1141 -0.5200
14503TIP3    H264925   1.872   6.565  15.405  0.0483 -0.7529 -0.4345
14504TIP3   OH264926   3.646   0.229  16.720  0.2441  0.5318 -0.3229
14504TIP3    H164927   3.628   0.322  16.712 -0.5417  0.2908 -1.4909
14504TIP3    H264928   3.698   0.221  16.800  0.7190  2.0227 -0.4721
14505TIP3   OH264929   4.447   4.259  16.453 -0.3273 -0.0444 -0.6453
14505TIP3    H164930   4.496   4.303  16.522 -0.9275  1.1821 -0.9880
14505TIP3    H264931   4.356   4.267  16.479 -0.5350  0.1496 -1.4174
14506TIP3   OH264932   4.988   2.962  13.955 -0.3455 -0.1964 -0.1760
14506TIP3    H164933   4.989   2.903  13.879  1.9719  0.8921 -1.0455
14506TIP3    H264934   5.015   2.906  14.029  0.8576 -0.4781 -0.8106
14507TIP3   OH264935   1.638   5.678   3.734 -0.1092 -0.2892 -0.3244
14507TIP3    H164936   1.667   5.591   3.759  1.1163 -0.1202 -1.0957
14507TIP3    H264937   1.703   5.737   3.774 -0.5749  0.2312 -0.3279
14508TIP3   OH264938   0.943   4.179  12.964 -0.0838 -0.0715  0.2377
14508TIP3    H164939   0.970   4.202  13.053  1.3893  0.5390 -0.3416
14508TIP3    H264940   0.919   4.263  12.924 -0.7740 -0.3459  0.0671
14509TIP3   OH264941   0.544   5.788  16.376 -0.4992 -0.0975  0.1019
14509TIP3    H164942   0.477   5.839  16.423 -0.0729 -1.6521  2.4904
14509TIP3    H264943   0.610   5.853  16.351 -0.7631  0.7801  1.6373
14510TIP3   OH264944   3.134   5.323  15.791  0.2639  0.1299  0.1040
14510TIP3    H164945   3.042   5.299  15.799  0.4226 -0.4772  0.1187
14510TIP3    H264946   3.133   5.408  15.748 -0.3259  0.3592  0.5562
14511TIP3   OH264947   3.081   1.746  14.846  0.2722  0.1616  0.5458
14511TIP3    H164948   3.084   1.727  14.939 -0.4183 -1.0077  0.3336
14511TIP3    H264949   3.148   1.690  14.807  0.0140  0.0636  0.2371
14512TIP3   OH264950   2.873   4.832   1.389  0.4255  0.1134  0.0083
14512TIP3    H164951   2.818   4.755   1.400 -0.3324  0.5122 -0.9773
14512TIP3    H264952   2.888   4.864   1.479  0.3710 -0.9016  0.3834
14513TIP3   OH264953   1.151   5.730   2.491 -0.1696  0.3374 -0.0737
14513TIP3    H164954   1.206   5.722   2.568 -0.5482 -1.0962  0.0620
14513TIP3    H264955   1.207   5.701   2.418  0.2842  1.9674 -0.4000
14514TIP3   OH264956   6.654   1.133   3.087 -0.5368  0.0630 -0.2882
14514TIP3    H164957   6.599   1.145   3.164  1.3268  1.3945  0.8956
14514TIP3    H264958   6.716   1.206   3.090  0.7760 -0.9306 -1.9902
14515TIP3   OH264959   2.023   5.526  11.504  0.0797  0.4945 -0.3296
14515TIP3    H164960   1.982   5.611  11.486 -0.0192  0.7535  1.0860
14515TIP3    H264961   1.960   5.462  11.472  0.5115  0.9498 -2.1665
14516TIP3   OH264962   2.353   1.632   4.900  0.1400 -0.3965 -0.2724
14516TIP3    H164963   2.425   1.589   4.947 -0.1291 -0.4887  0.0584
14516TIP3    H264964   2.395   1.704   4.853  0.4443 -0.4258 -0.0493
14517TIP3   OH264965   0.277   0.802   5.108  0.5489  0.1610 -0.1324
14517TIP3    H164966   0.302   0.722   5.154 -0.9027 -0.4601 -0.4018
14517TIP3    H264967   0.213   0.844   5.165 -2.2545 -1.2832 -2.1426
14518TIP3   OH264968   1.310   1.232  15.864 -0.1155  0.1686 -0.1123
14518TIP3    H164969   1.268   1.318  15.875  0.2175  0.3445 -0.2154
14518TIP3    H264970   1.338   1.207  15.952 -0.2011  0.1672 -0.0845
14519TIP3   OH264971   1.603   6.383  14.651 -0.0791  0.0071 -0.3540
14519TIP3    H164972   1.529   6.322  14.663  0.0184 -0.0705 -0.1259
14519TIP3    H264973   1.672   6.329  14.612 -0.5741  0.3853 -1.7751
14520TIP3   OH264974   3.712   5.004   1.258 -0.1360  0.0906  0.3286
14520TIP3    H164975   3.703   5.095   1.231  0.9227  0.5492  1.5006
14520TIP3    H264976   3.632   4.985   1.306 -0.8410  0.0723 -0.8501
14521TIP3   OH264977   2.251   3.592  12.868 -0.6466 -0.1978  0.0353
14521TIP3    H164978   2.340   3.601  12.833 -0.3957 -1.8668  0.2173
14521TIP3    H264979   2.241   3.499  12.886 -1.5162  0.3037  2.4508
14522TIP3   OH264980   5.896   3.967   0.358  0.1556  0.2969 -0.4493
14522TIP3    H164981   5.949   4.011   0.425 -0.0580  1.3368 -0.9556
14522TIP3    H264982   5.806   3.980   0.387  0.1539 -1.7088  0.5588
14523TIP3   OH264983   2.968   3.410  14.161 -0.3237  0.0223 -0.6098
14523TIP3    H164984   2.993   3.387  14.071  1.3786 -1.7927  0.2752
14523TIP3    H264985   3.020   3.488  14.180 -0.4785  0.2530 -1.1088
14524TIP3   OH264986   1.184   6.458   0.070  0.7723  0.2946 -0.2279
14524TIP3    H164987   1.223   6.486  -0.012  0.6402 -0.4969 -0.5711
14524TIP3    H264988   1.258   6.430   0.124  0.7260 -0.9066 -0.7610
14525TIP3   OH264989   1.917   0.008   2.689  0.5471  0.3821  0.0839
14525TIP3    H164990   1.903   0.025   2.596  0.0148 -0.6619 -0.0307
14525TIP3    H264991   1.839  -0.039   2.717  1.6324 -1.1790  0.5612
14526TIP3   OH264992   6.675   5.526   4.035 -0.0983  0.2478 -0.0435
14526TIP3    H164993   6.678   5.491   4.124  0.3847 -0.3568 -0.2939
14526TIP3    H264994   6.652   5.451   3.981 -2.6054  1.0721 -0.1888
14527TIP3   OH264995   4.785   0.126   3.170 -0.2864  0.1113 -0.0433
14527TIP3    H164996   4.859   0.085   3.125 -0.2961  0.6092 -0.5134
14527TIP3    H264997   4.818   0.144   3.259  0.2344  0.5396 -0.3170
14528TIP3   OH264998   6.553   4.177   0.007 -0.4812 -0.2958 -0.3617
14528TIP3    H164999   6.617   4.223  -0.048  1.2732 -0.2798  1.6223
14528TIP3    H265000   6.590   4.090   0.019 -0.9378 -0.3562  0.6496
14529TIP3   OH265001   3.265   4.875   4.485 -0.6080 -0.1007  0.1805
14529TIP3    H165002   3.313   4.800   4.451 -2.0789 -0.2797 -1.5510
14529TIP3    H265003   3.262   4.861   4.580  2.2893 -0.3257  0.2643
14530TIP3   OH265004   4.158   0.344  14.207 -0.1642  1.2070  0.2926
14530TIP3    H165005   4.148   0.402  14.282  0.4731  0.5779  0.8797
14530TIP3    H265006   4.104   0.268  14.228  0.4254  0.8010  0.3632
14531TIP3   OH265007   6.629   1.349   0.243 -0.3983 -0.1681 -0.1477
14531TIP3    H165008   6.703   1.395   0.202 -0.4723  1.2708  1.3182
14531TIP3    H265009   6.591   1.298   0.171  1.6495 -0.4719 -1.0637
14532TIP3   OH265010   4.123   0.221   4.855 -0.3878 -0.1850 -0.2027
14532TIP3    H165011   4.169   0.255   4.778 -0.0896  0.0530  0.0777
14532TIP3    H265012   4.034   0.253   4.846 -0.1807  0.4391 -0.0923
14533TIP3   OH265013   2.191   3.179  16.900 -0.4529 -0.1729 -0.2390
14533TIP3    H165014   2.131   3.210  16.832 -0.1615 -0.6840 -0.7345
14533TIP3    H265015   2.198   3.084  16.884 -1.7954 -0.6083  1.6056
14534TIP3   OH265016   4.624   0.973   4.081  0.9108 -0.2602 -0.3207
14534TIP3    H165017   4.574   0.935   4.008  0.2906  1.0928 -0.6181
14534TIP3    H265018   4.695   1.021   4.039  1.2040 -0.3898  0.0204
14535TIP3   OH265019   5.570   1.109   2.217  0.1918 -0.0180  0.0448
14535TIP3    H165020   5.656   1.121   2.176 -0.6460 -0.8844 -1.9894
14535TIP3    H265021   5.564   1.015   2.233 -0.5669 -0.0099 -0.2032
14536TIP3   OH265022   1.054   4.116   1.554  0.0026  0.2742 -0.0613
14536TIP3    H165023   1.010   4.198   1.530 -0.5744 -0.4809 -1.6623
14536TIP3    H265024   1.084   4.079   1.471  2.3018 -0.0162  0.8519
14537TIP3   OH265025   0.018   3.912   4.317  0.4708  0.2379 -0.4007
14537TIP3    H165026   0.068   3.935   4.239 -1.7879 -0.1502 -2.0071
14537TIP3    H265027  -0.027   3.993   4.342  0.3389  0.0864 -0.1432
14538TIP3   OH265028   5.590   6.756   6.177  0.0660  0.0116  0.1123
14538TIP3    H165029   5.611   6.849   6.167 -1.1049  0.3836  1.0595
14538TIP3    H265030   5.656   6.711   6.124  1.5886  1.2965  0.8577
14539TIP3   OH265031   3.406   0.710   5.362  0.2929 -0.3462  0.1386
14539TIP3    H165032   3.427   0.698   5.269 -1.0435  0.8534 -0.3343
14539TIP3    H265033   3.461   0.646   5.407  1.6988 -0.2593 -1.3976
14540TIP3   OH265034   2.811   5.788   0.824 -0.0597  0.0573 -0.0222
14540TIP3    H165035   2.812   5.883   0.813  1.2747  0.2203  1.2563
14540TIP3    H265036   2.728   5.760   0.785  0.1250  1.5846 -1.5676
14541TIP3   OH265037   6.638   3.336   6.556 -0.2659  0.6915  0.2769
14541TIP3    H165038   6.610   3.258   6.604  0.9723  0.3801  0.5024
14541TIP3    H265039   6.720   3.310   6.514 -0.4337  1.5145 -0.5833
14542TIP3   OH265040   5.981   0.768   1.447  0.7886  0.5279 -0.8253
14542TIP3    H165041   5.927   0.689   1.446  0.5453  0.6603  0.9441
14542TIP3    H265042   6.004   0.782   1.355 -0.6303 -0.6010 -1.3730
14543TIP3   OH265043   3.674   0.582   6.016 -0.4711  0.1420  0.1553
14543TIP3    H165044   3.699   0.557   5.927 -0.6975  2.1727 -0.5041
14543TIP3    H265045   3.578   0.585   6.014 -0.4796  0.0716  0.4844
14544TIP3   OH265046   4.711   4.465  10.716  0.3031 -0.4121 -0.3225
14544TIP3    H165047   4.617   4.462  10.696  0.5002  0.1726 -1.3420
14544TIP3    H265048   4.742   4.376  10.701  0.9009  0.4677 -4.8970
14545TIP3   OH265049   1.638   2.727  12.790 -0.1333 -0.4631 -0.0648
14545TIP3    H165050   1.550   2.755  12.813  0.7493  1.4943  1.0836
14545TIP3    H265051   1.651   2.646  12.839 -0.5096  0.4338  1.5483
14546TIP3   OH265052   2.996   5.784  16.074  0.3449  0.5718 -0.5041
14546TIP3    H165053   3.059   5.742  16.015  1.3058  0.3134  0.6979
14546TIP3    H265054   3.029   5.873  16.084  0.3894  0.4999 -0.0350
14547TIP3   OH265055   6.386   6.480   2.704 -0.3073 -0.5606  0.1555
14547TIP3    H165056   6.322   6.551   2.712 -0.5740 -0.7854  0.0096
14547TIP3    H265057   6.467   6.517   2.741 -0.0278  0.3547 -1.3290
14548TIP3   OH265058   0.520   1.876  13.972  0.1807 -0.2749 -0.1884
14548TIP3    H165059   0.446   1.857  14.029  0.6628  1.8263  1.1814
14548TIP3    H265060   0.583   1.807  13.991  0.1042  0.0762  1.4038
14549TIP3   OH265061   0.985   5.573  14.844 -0.2628 -0.0938 -0.0496
14549TIP3    H165062   1.021   5.600  14.929 -0.8568  3.0052 -0.7290
14549TIP3    H265063   0.890   5.577  14.857 -0.3771 -1.8631 -0.2102
14550TIP3   OH265064   2.140   6.661  10.575  0.2138  0.2615 -0.3117
14550TIP3    H165065   2.113   6.749  10.550  1.0452  0.2224 -1.3875
14550TIP3    H265066   2.098   6.646  10.660  0.3972  1.8567  0.0842
14551TIP3   OH265067   0.820   3.957   0.003 -0.7584  0.2787  0.5786
14551TIP3    H165068   0.909   3.964   0.036 -0.0689 -0.7564 -0.9597
14551TIP3    H265069   0.808   3.863  -0.012 -1.1285  0.6568 -1.7237
14552TIP3   OH265070   1.725   0.668   4.736  0.3746 -0.0166  0.2421
14552TIP3    H165071   1.649   0.611   4.748  0.0052  0.3842 -0.2194
14552TIP3    H265072   1.795   0.609   4.707  0.1680 -0.3409  0.4085
14553TIP3   OH265073   3.542   3.112  15.950 -0.2468 -0.4402  0.2103
14553TIP3    H165074   3.564   3.060  16.028 -2.6437 -1.5369  0.1749
14553TIP3    H265075   3.485   3.182  15.983  1.5589  1.1964 -0.0266
14554TIP3   OH265076   3.751   1.092  15.317  0.5380 -0.2409  0.2607
14554TIP3    H165077   3.765   1.010  15.269 -0.1697 -0.9697  1.2723
14554TIP3    H265078   3.718   1.064  15.402  0.7557  1.0864  0.7890
14555TIP3   OH265079   6.072   5.711  12.316 -0.4485  0.3891  0.3576
14555TIP3    H165080   6.152   5.698  12.264 -0.8149  0.2975 -0.1868
14555TIP3    H265081   6.067   5.806  12.327 -0.6598  0.4486 -0.2355
14556TIP3   OH265082   3.095   0.126   5.494  0.4551 -0.4958  0.1209
14556TIP3    H165083   3.094   0.220   5.477  0.3717 -0.4178  0.5537
14556TIP3    H265084   3.178   0.111   5.540  0.6023 -0.6789 -0.2008
14557TIP3   OH265085   2.597   2.815  12.722  0.2080  0.3009 -0.2393
14557TIP3    H165086   2.595   2.893  12.667 -1.8087  0.1454 -0.4275
14557TIP3    H265087   2.508   2.808  12.757  1.1675 -0.2175  2.1774
14558TIP3   OH265088   0.786   1.363  14.615 -0.1407  0.0712  0.6525
14558TIP3    H165089   0.828   1.316  14.543 -0.3304 -0.7248  1.0579
14558TIP3    H265090   0.749   1.441  14.574 -0.6041 -0.5834 -0.1915
14559TIP3   OH265091   6.232   3.955   0.630  0.0088 -0.0647  0.2967
14559TIP3    H165092   6.189   3.871   0.616  1.0008 -0.5359  0.0598
14559TIP3    H265093   6.229   3.998   0.545 -0.5596  0.1699  0.4344
14560TIP3   OH265094   1.513   4.316  13.102 -0.8547 -0.0498 -0.5167
14560TIP3    H165095   1.496   4.409  13.084 -2.9203 -0.6693 -1.8612
14560TIP3    H265096   1.580   4.292  13.037  1.4580  1.0572  1.3745
14561TIP3   OH265097   1.900   5.649   5.705  0.3442  0.0305  0.3165
14561TIP3    H165098   1.984   5.603   5.706  1.4471  1.9069 -1.4374
14561TIP3    H265099   1.861   5.626   5.621  0.3685  1.3477 -0.0633
14562TIP3   OH265100   3.478   2.284   5.000  0.0729 -0.0535 -0.2313
14562TIP3    H165101   3.401   2.287   4.943 -0.2675 -0.4889  0.2072
14562TIP3    H265102   3.527   2.363   4.977 -0.9105  0.6549  0.0493
14563TIP3   OH265103   3.322   1.529   0.388  0.3419  0.1830  0.4898
14563TIP3    H165104   3.250   1.475   0.356 -0.8922  0.0017  3.3868
14563TIP3    H265105   3.394   1.512   0.328 -1.9100  0.0964 -2.2841
14564TIP3   OH265106   1.825   2.910  11.255  0.5640 -0.2434  0.0804
14564TIP3    H165107   1.916   2.918  11.225  0.3910  1.5872 -0.0272
14564TIP3    H265108   1.824   2.830  11.307  2.0328 -0.7608 -0.6402
14565TIP3   OH265109   0.274   5.123  16.009  0.3227 -0.7329  0.0662
14565TIP3    H165110   0.295   5.215  15.997  1.4936 -0.9361  0.4509
14565TIP3    H265111   0.241   5.095  15.924 -0.5761  0.1700  0.1108
14566TIP3   OH265112   2.196   2.157   3.453 -0.3425 -0.6974 -0.0734
14566TIP3    H165113   2.228   2.205   3.530  1.6157 -1.2191 -0.5141
14566TIP3    H265114   2.250   2.077   3.452 -1.3290 -1.3530 -1.1843
14567TIP3   OH265115   5.386   1.884  15.865  0.3687 -0.1910 -0.3735
14567TIP3    H165116   5.449   1.946  15.828 -1.4594  0.1923 -2.9803
14567TIP3    H265117   5.322   1.939  15.912  0.0075 -0.2821 -0.7562
14568TIP3   OH265118   2.189   5.454   3.443 -0.1405 -0.0891 -0.3112
14568TIP3    H165119   2.214   5.428   3.531  0.0543  1.6367  0.1668
14568TIP3    H265120   2.203   5.549   3.441 -1.8478  0.1659 -1.6208
14569TIP3   OH265121   1.186   2.034  11.673  0.1960 -0.6978  0.0109
14569TIP3    H165122   1.274   2.072  11.671  0.0498 -0.3790 -0.5130
14569TIP3    H265123   1.186   1.969  11.602  0.2974 -1.3437  0.6019
14570TIP3   OH265124   1.683   2.856   4.926 -0.6176 -0.4188 -0.0041
14570TIP3    H165125   1.618   2.830   4.861 -0.4680 -1.6907  0.3358
14570TIP3    H265126   1.763   2.810   4.900  0.2124  1.2844 -0.5316
14571TIP3   OH265127   5.357   4.222   2.487  0.3114  0.2266 -0.0401
14571TIP3    H165128   5.312   4.213   2.403  2.0473 -0.2517 -0.9370
14571TIP3    H265129   5.288   4.213   2.553 -0.8699 -0.6341 -1.3846
14572TIP3   OH265130   2.093   1.589   3.825 -0.3554 -0.4873 -0.2652
14572TIP3    H165131   2.184   1.562   3.814  0.4044  1.0789  1.8019
14572TIP3    H265132   2.089   1.625   3.914 -2.9496 -0.3423 -0.3961
14573TIP3   OH265133   1.445   6.124   1.911 -0.2272  0.0923  0.0353
14573TIP3    H165134   1.523   6.153   1.957 -0.0710  0.0412 -0.1951
14573TIP3    H265135   1.454   6.028   1.907 -2.1219 -0.2995  3.3220
14574TIP3   OH265136   3.217   2.983   4.576  0.0918 -0.2353 -0.8431
14574TIP3    H165137   3.279   3.000   4.506  0.9027  0.0038 -0.0702
14574TIP3    H265138   3.182   3.069   4.599  0.3798 -0.2242 -0.4441
14575TIP3   OH265139   4.161   6.489   3.195  0.2410  0.5358 -0.2095
14575TIP3    H165140   4.173   6.575   3.155  0.3825 -0.3528 -2.1417
14575TIP3    H265141   4.093   6.447   3.141  0.3271 -0.6483  0.5793
14576TIP3   OH265142   5.276   2.797   1.847  0.2395 -0.2153  0.4312
14576TIP3    H165143   5.341   2.800   1.777  0.7047  0.6671  0.8912
14576TIP3    H265144   5.280   2.707   1.880 -0.0741 -0.6745 -0.7507
14577TIP3   OH265145   1.032   1.325   3.691  0.7684 -0.1097  0.3039
14577TIP3    H165146   1.030   1.287   3.779 -0.3204 -2.6001 -0.7707
14577TIP3    H265147   1.124   1.322   3.666  0.5949 -2.9748 -0.1287
14578TIP3   OH265148   2.535   1.493   2.960 -0.7618 -0.3089 -0.1783
14578TIP3    H165149   2.442   1.492   2.981 -0.7071  2.5379  0.4169
14578TIP3    H265150   2.579   1.482   3.044 -0.5792  2.5583  0.1375
14579TIP3   OH265151   4.800   4.942   2.151 -0.2324  0.1692 -0.3590
14579TIP3    H165152   4.809   4.956   2.056 -1.2933  1.4915 -0.2818
14579TIP3    H265153   4.858   5.007   2.190 -1.5220  1.1587 -0.0697
14580TIP3   OH265154   3.347   1.711  11.653 -0.0178 -0.6294  0.1408
14580TIP3    H165155   3.427   1.710  11.600 -0.0247 -1.5316  0.1290
14580TIP3    H265156   3.371   1.757  11.733  0.2976 -0.2096 -0.1972
14581TIP3   OH265157   5.348   6.486   4.185  0.1906 -0.2587 -0.8268
14581TIP3    H165158   5.304   6.486   4.100 -0.3223 -1.5228 -0.5584
14581TIP3    H265159   5.278   6.474   4.248  0.9401 -2.4935 -0.4042
14582TIP3   OH265160   0.258   3.541  11.740 -0.0572 -0.5635  0.2378
14582TIP3    H165161   0.300   3.469  11.692 -1.4311 -1.1552 -0.1118
14582TIP3    H265162   0.168   3.540  11.709 -0.0648  1.3937  0.1665
14583TIP3   OH265163   1.059   6.104  13.893 -0.3084 -0.0162  0.2408
14583TIP3    H165164   0.995   6.173  13.875 -2.7456 -1.9866  0.9324
14583TIP3    H265165   1.082   6.116  13.985 -0.8641 -0.2040  0.4089
14584TIP3   OH265166   0.519   1.492  14.795  0.0057 -0.8449  0.5518
14584TIP3    H165167   0.515   1.397  14.793 -0.5936 -0.8170 -0.2561
14584TIP3    H265168   0.537   1.517  14.704  0.7686 -0.2130  0.8747
14585TIP3   OH265169   5.515   3.363  11.658 -0.0373  0.2482  0.4070
14585TIP3    H165170   5.517   3.372  11.753 -0.2411 -0.3092  0.4671
14585TIP3    H265171   5.602   3.390  11.629 -0.1954  1.0794  0.6891
14586TIP3   OH265172   5.466   3.963   4.012 -0.1988  0.3914  0.4417
14586TIP3    H165173   5.509   4.049   4.016 -0.5187  0.5169  1.4985
14586TIP3    H265174   5.443   3.944   4.103 -0.3586 -0.7041  0.1800
14587TIP3   OH265175   5.757   0.361  14.405  0.2007  0.3881 -0.1596
14587TIP3    H165176   5.834   0.309  14.430  0.4370  1.5239  1.6242
14587TIP3    H265177   5.791   0.450  14.395 -0.2760  0.3042 -2.7797
14588TIP3   OH265178   0.220   6.356   2.814  0.1029  0.4600 -0.3468
14588TIP3    H165179   0.155   6.392   2.755 -0.7132 -0.9646 -0.3525
14588TIP3    H265180   0.252   6.278   2.769 -1.0182 -1.0317  1.3460
14589TIP3   OH265181   2.066   0.403  13.562 -0.5726  0.3790  0.2227
14589TIP3    H165182   2.133   0.424  13.497  0.4937 -0.1371  1.1312
14589TIP3    H265183   2.110   0.417  13.646 -1.6426  0.1349  0.8232
14590TIP3   OH265184   5.585   5.934  13.910 -0.2223  0.0006 -0.2624
14590TIP3    H165185   5.647   5.977  13.852 -0.8710  1.2049 -0.0761
14590TIP3    H265186   5.585   5.988  13.989 -0.9028 -0.4479  0.0479
14591TIP3   OH265187   3.873   6.726  11.133  0.1198  0.4037  0.4208
14591TIP3    H165188   3.936   6.779  11.182  2.4502 -0.6295 -1.3584
14591TIP3    H265189   3.887   6.637  11.164  2.3002 -0.4201 -2.6817
14592TIP3   OH265190   5.138   6.782  13.413  0.5219 -0.0105  0.4674
14592TIP3    H165191   5.228   6.752  13.426  1.5024  1.7004 -1.9848
14592TIP3    H265192   5.137   6.871  13.446 -0.5765 -0.3820  1.4669
14593TIP3   OH265193   6.674   1.749   5.101  0.7591  0.1411  0.1845
14593TIP3    H165194   6.693   1.785   5.187  1.2034 -0.1894  0.2268
14593TIP3    H265195   6.587   1.710   5.109  1.1313 -0.5915  0.7078
14594TIP3   OH265196   6.173   4.308  16.207 -0.2735 -0.8907  0.5452
14594TIP3    H165197   6.203   4.270  16.124 -0.3367 -0.2189  0.2021
14594TIP3    H265198   6.156   4.400  16.185 -1.8671 -1.0849  0.9163
14595TIP3   OH265199   5.489   3.057  16.203 -0.5398 -0.6064  0.1794
14595TIP3    H165200   5.455   3.143  16.176  0.4427 -0.8620 -1.9465
14595TIP3    H265201   5.581   3.074  16.224 -0.2811 -1.1768 -0.4769
14596TIP3   OH265202   1.934   1.542  13.803 -0.2545 -0.0894  0.1343
14596TIP3    H165203   1.942   1.448  13.790 -1.2253 -0.1768  0.1780
14596TIP3    H265204   2.018   1.568  13.842  0.4676 -0.7430 -0.9464
14597TIP3   OH265205   0.271   3.882   1.374 -0.2863  0.2092  0.1870
14597TIP3    H165206   0.230   3.796   1.373 -0.6563  0.3541  1.6435
14597TIP3    H265207   0.312   3.891   1.288 -1.2169 -0.9478 -0.3752
14598TIP3   OH265208   5.058   0.473   1.619 -0.2256  0.4900  0.0806
14598TIP3    H165209   5.042   0.557   1.661  0.0623  1.2663 -1.3397
14598TIP3    H265210   5.035   0.487   1.527  3.3770  0.1309 -0.9480
14599TIP3   OH265211   6.760   6.342   3.709  0.0178 -0.3648  0.2574
14599TIP3    H165212   6.668   6.366   3.724 -0.5778 -2.6038  0.2644
14599TIP3    H265213   6.768   6.335   3.614  0.6334  1.4876  0.1500
14600TIP3   OH265214   2.062   2.791  14.113  0.1696  0.0200  0.2448
14600TIP3    H165215   2.125   2.797  14.041  0.1824  1.4525  0.3605
14600TIP3    H265216   2.037   2.882  14.131 -0.5886 -0.4008  1.3833
14601TIP3   OH265217   0.159   3.892   5.069 -0.4123 -0.0427  0.2574
14601TIP3    H165218   0.118   3.851   4.993  0.1183  0.2872 -0.2086
14601TIP3    H265219   0.116   3.978   5.075 -1.2867 -0.5324  1.0330
14602TIP3   OH265220   6.351   2.822   6.145 -0.0941 -0.3226  0.3095
14602TIP3    H165221   6.325   2.854   6.059 -0.1379  1.3773  0.9452
14602TIP3    H265222   6.268   2.811   6.192 -0.1282 -1.9606 -0.0764
14603TIP3   OH265223   5.139   0.065  12.958  0.0877 -0.0764 -0.3013
14603TIP3    H165224   5.199   0.130  12.921  0.7364 -0.5437 -0.0588
14603TIP3    H265225   5.065   0.117  12.990 -0.1693  0.3974 -1.6301
14604TIP3   OH265226   4.237   0.229  16.938 -0.8587  0.0340  0.0693
14604TIP3    H165227   4.193   0.173  17.002 -1.6975  0.5743 -0.0276
14604TIP3    H265228   4.166   0.280  16.898 -0.2325  0.3559 -0.6385
14605TIP3   OH265229   0.764   5.732   3.919 -0.1245 -0.1413  0.1768
14605TIP3    H165230   0.704   5.804   3.900 -0.1276 -0.1456  0.1707
14605TIP3    H265231   0.790   5.699   3.833  0.2696  0.1763  0.1749
14606TIP3   OH265232   0.236   0.703   4.240 -0.1413 -0.4980  0.1271
14606TIP3    H165233   0.280   0.716   4.324  0.8743  0.3019 -0.5060
14606TIP3    H265234   0.186   0.622   4.251  3.1621 -2.6241  0.2113
14607TIP3   OH265235   3.086   5.643  15.177  0.4596  0.4068  0.3768
14607TIP3    H165236   3.132   5.560  15.186  0.0618  0.2603  1.0841
14607TIP3    H265237   3.045   5.638  15.091 -2.6994 -1.7293  1.9132
14608TIP3   OH265238   2.235   4.884  15.711  0.4162  0.6922  0.0416
14608TIP3    H165239   2.235   4.979  15.704 -1.8439  0.7279  0.2069
14608TIP3    H265240   2.160   4.855  15.659 -0.0007 -0.8560  1.4362
14609TIP3   OH265241   1.140   5.450   3.873  0.2585 -0.0123 -0.1906
14609TIP3    H165242   1.235   5.455   3.881  0.3226  0.8976 -1.6037
14609TIP3    H265243   1.123   5.358   3.851  0.8175 -0.0869 -0.3087
14610TIP3   OH265244   2.672   0.724  13.996  0.5983 -0.3186  0.1198
14610TIP3    H165245   2.643   0.725  13.905  1.0434  1.3196 -0.0233
14610TIP3    H265246   2.603   0.771  14.044  0.1752 -1.5110  0.6838
14611TIP3   OH265247   1.739   4.836   4.775 -0.1413  0.2761 -0.3846
14611TIP3    H165248   1.789   4.844   4.856 -1.6526 -2.2804  0.8691
14611TIP3    H265249   1.664   4.893   4.787  0.3173  0.9126 -0.5349
14612TIP3   OH265250   4.584   5.059   0.058 -0.2414  0.5957  0.0773
14612TIP3    H165251   4.492   5.056   0.031 -0.3865 -0.5927  0.6595
14612TIP3    H265252   4.582   5.093   0.147 -0.0919  0.7878  0.0080
14613TIP3   OH265253   4.148   3.148   5.923 -0.4655 -0.4044  0.5369
14613TIP3    H165254   4.128   3.240   5.942 -0.8625 -0.5451  0.8054
14613TIP3    H265255   4.124   3.138   5.831  1.6099  0.3141 -0.1004
14614TIP3   OH265256   3.669   3.678   1.319  0.2570  0.1864  0.0786
14614TIP3    H165257   3.657   3.747   1.384  1.8127 -0.6902  1.3267
14614TIP3    H265258   3.614   3.705   1.245  0.1063  2.2723  0.9141
14615TIP3   OH265259   0.502   3.559  17.153 -1.0575 -0.1756 -0.2538
14615TIP3    H165260   0.447   3.541  17.229  0.1467 -1.1030  0.4159
14615TIP3    H265261   0.507   3.655  17.149 -2.6918 -0.0870 -0.3166
14616TIP3   OH265262   0.259   2.612   5.338  0.2903  0.0904  0.2152
14616TIP3    H165263   0.284   2.647   5.423 -1.7022  0.4581  0.6720
14616TIP3    H265264   0.263   2.687   5.279 -1.4717  0.5573  0.6663
14617TIP3   OH265265   6.344   4.199  11.990 -0.2680  0.3199  0.3577
14617TIP3    H165266   6.413   4.235  12.045 -0.6693  1.0816  0.3806
14617TIP3    H265267   6.320   4.117  12.032 -0.2810  0.6891  1.0869
14618TIP3   OH265268   3.545   3.121   6.795  0.0500 -0.6227  0.1384
14618TIP3    H165269   3.482   3.050   6.786 -1.7259  1.0023 -0.6557
14618TIP3    H265270   3.607   3.107   6.724 -1.7060  0.0001 -1.5520
14619TIP3   OH265271   1.786   4.256   0.180  0.2990 -0.2511  0.7742
14619TIP3    H165272   1.754   4.250   0.090 -1.6802  3.0489  1.1628
14619TIP3    H265273   1.870   4.302   0.172 -0.1851  0.6179  0.6600
14620TIP3   OH265274   2.400   3.097   3.170 -0.3506 -0.0899 -0.4519
14620TIP3    H165275   2.452   3.166   3.129 -1.1682 -0.2376 -1.7543
14620TIP3    H265276   2.462   3.027   3.186  0.0002  0.0066 -1.3521
14621TIP3   OH265277   4.138   2.184  15.785 -0.1225  0.4043 -0.6244
14621TIP3    H165278   4.068   2.209  15.725  1.1064  1.2432 -1.7567
14621TIP3    H265279   4.100   2.116  15.840 -1.8642  0.9696 -1.1056
14622TIP3   OH265280   5.362   4.522  13.373  0.7032 -0.1207 -0.1267
14622TIP3    H165281   5.278   4.515  13.418  0.6468 -0.2667 -0.2558
14622TIP3    H265282   5.364   4.611  13.338 -0.1247 -0.6647 -1.5881
14623TIP3   OH265283   2.332   4.043  11.762  0.3251  0.1140  0.4106
14623TIP3    H165284   2.330   4.046  11.666  1.6138 -0.7185  0.3449
14623TIP3    H265285   2.261   4.101  11.789 -1.2753 -1.0726 -1.0734
14624TIP3   OH265286   5.438   5.802   2.153 -0.4794  0.9626 -0.4749
14624TIP3    H165287   5.360   5.789   2.206  0.2372  0.4904  0.4851
14624TIP3    H265288   5.443   5.725   2.097 -0.4806  0.8123 -0.2648
14625TIP3   OH265289   2.449   6.407  13.504 -1.0573  0.1662  0.0755
14625TIP3    H165290   2.356   6.385  13.509 -1.5398  1.9267 -0.7100
14625TIP3    H265291   2.463   6.430  13.412 -0.0127  0.5988  0.3375
14626TIP3   OH265292   6.589   0.906   2.524  0.1907  0.5926 -0.4953
14626TIP3    H165293   6.514   0.965   2.534  0.3215  1.1439 -2.6479
14626TIP3    H265294   6.550   0.823   2.498  0.1568  0.2168  0.7206
14627TIP3   OH265295   2.573   5.883  13.547 -0.0896  0.6095  0.2995
14627TIP3    H165296   2.616   5.813  13.597 -2.1374 -0.7019  0.2680
14627TIP3    H265297   2.600   5.963  13.591  1.8351 -0.2180  0.7007
14628TIP3   OH265298   1.365   4.323   2.194  0.1644 -0.6635  1.2672
14628TIP3    H165299   1.350   4.384   2.121 -0.0254 -0.1237  1.7588
14628TIP3    H265300   1.446   4.279   2.171  0.3963 -0.1023  0.9875
14629TIP3   OH265301   5.739   3.711  16.370 -0.1884 -0.1762  0.1097
14629TIP3    H165302   5.831   3.733  16.362 -0.0908 -0.3461  0.7420
14629TIP3    H265303   5.739   3.619  16.398 -0.5215  0.4092  2.0424
14630TIP3   OH265304   3.975   4.772  14.002  0.4050 -0.2217  0.5886
14630TIP3    H165305   3.936   4.720  13.933  1.1258  1.3888 -1.0586
14630TIP3    H265306   4.065   4.788  13.973  0.7554  0.3916  1.9353
14631TIP3   OH265307   1.900   5.495  12.257  0.3387 -0.2773 -0.4109
14631TIP3    H165308   1.834   5.564  12.247  0.8753  0.0511 -1.7217
14631TIP3    H265309   1.889   5.439  12.180  0.4601 -1.1939  0.2316
14632TIP3   OH265310   2.452   3.112   4.119  0.0150  0.1363 -0.2639
14632TIP3    H165311   2.543   3.121   4.145  0.2850 -2.2158 -0.2409
14632TIP3    H265312   2.402   3.148   4.192  0.9167  0.5804  0.1383
14633TIP3   OH265313   0.661   1.756   5.064 -0.0407  0.1288  0.7006
14633TIP3    H165314   0.721   1.693   5.104 -0.1917 -0.9324 -0.7042
14633TIP3    H265315   0.714   1.802   4.999 -0.7057 -0.8195 -0.5561
14634TIP3   OH265316   3.236   3.152   1.762  0.2368 -0.5268 -0.4209
14634TIP3    H165317   3.265   3.083   1.702 -1.2444  0.0476 -1.8309
14634TIP3    H265318   3.165   3.112   1.812  0.6125 -0.5959  0.0636
14635TIP3   OH265319   4.637   4.258   4.241  0.0771  0.1083  0.5625
14635TIP3    H165320   4.697   4.317   4.287  1.5670  0.9115 -2.3225
14635TIP3    H265321   4.673   4.171   4.254  1.5346  0.5207 -0.5935
14636TIP3   OH265322   3.157   2.508   1.928  0.3987 -0.0976  0.0177
14636TIP3    H165323   3.237   2.560   1.940  0.8969 -1.0005  0.6934
14636TIP3    H265324   3.125   2.492   2.017 -0.8840  0.7836 -0.2776
14637TIP3   OH265325   0.362   0.270  11.827  0.3846  0.3809  0.1411
14637TIP3    H165326   0.438   0.217  11.851 -0.5662 -1.7773 -1.3570
14637TIP3    H265327   0.398   0.350  11.791  1.9492 -0.5696 -0.4385
14638TIP3   OH265328   3.516   2.807  12.807 -0.5733 -0.6608 -0.0643
14638TIP3    H165329   3.436   2.857  12.823 -0.3607 -0.6443  1.0335
14638TIP3    H265330   3.584   2.855  12.855  0.0258 -0.8560 -0.7197
14639TIP3   OH265331   0.514   1.525   4.274 -0.2363  0.5182 -0.3942
14639TIP3    H165332   0.483   1.515   4.363  1.2646  0.8262  0.1837
14639TIP3    H265333   0.476   1.608   4.244 -0.1583  0.7698  0.2058
14640TIP3   OH265334   2.424   3.817   1.265 -0.4670  0.3030  0.7698
14640TIP3    H165335   2.370   3.871   1.206 -1.9915  0.5884  2.3915
14640TIP3    H265336   2.375   3.736   1.275 -0.6408  0.5791  2.2901
14641TIP3   OH265337   5.779   4.292  11.647 -0.0745  0.0315  0.3103
14641TIP3    H165338   5.791   4.277  11.553  1.9067  1.4989  0.3074
14641TIP3    H265339   5.694   4.335  11.654 -0.6011 -0.8342 -0.7359
14642TIP3   OH265340   4.035   0.736  14.930 -0.2492 -0.8926 -0.1718
14642TIP3    H165341   4.113   0.706  14.976  0.1349 -0.4155 -0.5025
14642TIP3    H265342   3.993   0.655  14.899 -1.0726 -1.2829  1.8750
14643TIP3   OH265343   1.260   0.884  12.320  0.1249  0.3808 -0.0805
14643TIP3    H165344   1.314   0.811  12.352 -0.8797 -0.5514 -0.4812
14643TIP3    H265345   1.274   0.884  12.226 -0.4141  0.2615 -0.1628
14644TIP3   OH265346   0.871   0.569  14.589  0.0847  0.2163 -0.8661
14644TIP3    H165347   0.892   0.483  14.626  1.1860  0.7977 -0.0927
14644TIP3    H265348   0.811   0.609  14.652  1.3227  0.8845 -0.0907
14645TIP3   OH265349   6.278   5.940  15.634 -0.1810  0.0421 -0.1332
14645TIP3    H165350   6.206   5.878  15.619 -0.1022  0.0647 -0.6110
14645TIP3    H265351   6.327   5.902  15.707 -0.9483  0.2681  0.5089
14646TIP3   OH265352   2.271   0.944  10.824  0.5723 -0.4654 -0.2877
14646TIP3    H165353   2.242   1.009  10.889 -0.3324 -1.1343 -0.0072
14646TIP3    H265354   2.365   0.958  10.817  0.6726 -0.3195  1.1204
14647TIP3   OH265355   5.207   0.724  12.433  0.3414  0.2983  0.2061
14647TIP3    H165356   5.209   0.702  12.340  0.3404  1.2080 -0.0103
14647TIP3    H265357   5.202   0.819  12.435  0.8790  0.3123  1.1444
14648TIP3   OH265358   0.511   6.712  13.015 -0.3087  0.2570  0.2514
14648TIP3    H165359   0.431   6.705  12.962 -0.2238  1.0449  0.0101
14648TIP3    H265360   0.497   6.791  13.068  0.4536  0.5793 -0.0304
14649TIP3   OH265361   1.257   1.841  14.801 -0.0212  0.4579  0.0226
14649TIP3    H165362   1.281   1.905  14.733 -0.3216  1.4530  0.8390
14649TIP3    H265363   1.339   1.820  14.844  0.1563 -0.1027 -0.5823
14650TIP3   OH265364   1.345   3.466   4.428  0.4001 -0.4509 -0.0452
14650TIP3    H165365   1.420   3.486   4.484  0.1031  2.0249 -0.4875
14650TIP3    H265366   1.294   3.403   4.479  2.1871 -1.3009  0.7334
14651TIP3   OH265367   1.757   1.237  14.161  0.2581  0.0445 -0.0096
14651TIP3    H165368   1.718   1.321  14.139 -0.6317 -0.2419  0.4616
14651TIP3    H265369   1.685   1.184  14.195  1.0107 -0.5397  0.7260
14652TIP3   OH265370   6.713   0.968  15.763 -0.2556  0.7622  0.0776
14652TIP3    H165371   6.703   1.058  15.732 -0.6321  0.7963  0.2944
14652TIP3    H265372   6.724   0.916  15.683  0.6519  1.0853 -0.0127
14653TIP3   OH265373   0.858   4.312  15.576 -0.2770  0.1107 -0.0332
14653TIP3    H165374   0.780   4.367  15.581 -0.1098  0.3477 -0.0261
14653TIP3    H265375   0.928   4.371  15.547  0.7701  0.8227  3.6954
14654TIP3   OH265376   0.624   6.514  13.971 -0.1885 -0.6393 -0.4723
14654TIP3    H165377   0.659   6.497  13.884 -0.3871  1.3287 -0.9446
14654TIP3    H265378   0.638   6.432  14.019  2.2276 -0.9093 -1.5784
14655TIP3   OH265379   1.847   1.172  17.203 -0.1552  0.3023 -0.4111
14655TIP3    H165380   1.899   1.239  17.157 -0.8005  2.1379  1.4455
14655TIP3    H265381   1.765   1.217  17.225 -0.2104 -0.8033  1.7322
14656TIP3   OH265382   1.422   2.099   4.485  0.2134 -0.4122  0.3049
14656TIP3    H165383   1.359   2.082   4.554  0.1140 -0.0210  0.3140
14656TIP3    H265384   1.404   2.033   4.418 -0.6497  0.1211  0.0061
14657TIP3   OH265385   6.470   5.852   1.080 -0.3474  0.1780  0.4129
14657TIP3    H165386   6.464   5.946   1.061 -0.5300  0.2967  1.0567
14657TIP3    H265387   6.483   5.848   1.175 -0.0104 -0.4365  0.3411
14658TIP3   OH265388   1.046   1.499   2.987 -0.2587  0.1852  0.3536
14658TIP3    H165389   1.067   1.429   2.925 -1.1034  0.4905 -0.2918
14658TIP3    H265390   1.113   1.493   3.055 -0.7306 -1.6886  0.6661
14659TIP3   OH265391   2.208   1.294  15.306 -0.3641  0.3235  0.5757
14659TIP3    H165392   2.250   1.310  15.390  0.4028 -2.0643  0.6923
14659TIP3    H265393   2.271   1.325  15.241 -0.0693  0.2536  0.8281
14660TIP3   OH265394   4.504   1.747   2.243  0.2163  0.0405  0.3827
14660TIP3    H165395   4.496   1.744   2.338 -1.0505 -1.9915  0.2552
14660TIP3    H265396   4.424   1.792   2.214 -0.4234 -1.2083  0.1860
14661TIP3   OH265397   4.305   6.459   0.255 -0.3076  0.2868  0.0400
14661TIP3    H165398   4.265   6.373   0.243  0.9473  0.0082 -2.6563
14661TIP3    H265399   4.390   6.441   0.295 -0.1289  0.2798 -0.3387
14662TIP3   OH265400   3.069   0.036   1.950 -0.0936  0.1821 -0.2250
14662TIP3    H165401   3.051   0.060   1.860  0.3954  1.0188 -0.1004
14662TIP3    H265402   3.133   0.100   1.981 -0.4552  0.0691  0.8035
14663TIP3   OH265403   5.539   4.459  11.603  0.4852  0.6617 -0.1329
14663TIP3    H165404   5.459   4.470  11.654  0.5595  0.5932 -0.0028
14663TIP3    H265405   5.564   4.548  11.578 -0.2863  0.5991 -1.1817
14664TIP3   OH265406   1.734   6.692  15.664 -0.2096 -0.0349 -0.0856
14664TIP3    H165407   1.765   6.635  15.594  1.4267  0.4429  0.2168
14664TIP3    H265408   1.776   6.776  15.646 -2.3346  0.9862 -0.3434
14665TIP3   OH265409   2.568   2.886   3.193 -0.5977  0.2601 -0.6095
14665TIP3    H165410   2.649   2.872   3.242 -0.4577 -0.8934 -1.1533
14665TIP3    H265411   2.521   2.803   3.199 -1.5722  0.8040 -0.6145
14666TIP3   OH265412   0.859   4.528  13.572  0.0375  0.1110  0.0293
14666TIP3    H165413   0.776   4.489  13.543  0.7836 -0.7442 -0.9948
14666TIP3    H265414   0.898   4.563  13.492  0.1080  1.6289  0.7016
14667TIP3   OH265415   4.151   0.835  12.556 -0.1674 -0.3856  0.2876
14667TIP3    H165416   4.109   0.841  12.470 -3.0415 -1.9579  1.5298
14667TIP3    H265417   4.211   0.760  12.549 -0.5958 -0.6759 -0.2588
14668TIP3   OH265418   0.052   3.775  10.751  0.0489  0.0299 -0.3278
14668TIP3    H165419   0.116   3.803  10.685 -1.0475  0.7096 -1.1126
14668TIP3    H265420  -0.003   3.711  10.706 -0.6730  0.4572 -0.0605
14669TIP3   OH265421   6.688   5.620   3.558 -0.1981 -0.6252 -0.4906
14669TIP3    H165422   6.784   5.629   3.560 -0.3256  0.7735  0.1103
14669TIP3    H265423   6.663   5.641   3.468 -0.1191  1.1910 -0.1091
14670TIP3   OH265424   4.500   4.700   4.851 -0.2470  0.2042 -0.6982
14670TIP3    H165425   4.428   4.702   4.914 -1.1293 -0.2025 -1.6900
14670TIP3    H265426   4.535   4.611   4.857  0.4047  0.4982  0.0248
14671TIP3   OH265427   3.127   1.360   0.758  0.1833 -0.0065 -0.0428
14671TIP3    H165428   3.087   1.275   0.777  0.4665 -0.2357 -0.4620
14671TIP3    H265429   3.219   1.347   0.780 -0.1457  0.8410  1.9588
14672TIP3   OH265430   6.602   5.802   1.589  0.3326 -0.3478 -0.3267
14672TIP3    H165431   6.527   5.840   1.544  1.3349  0.5450 -1.2515
14672TIP3    H265432   6.652   5.877   1.620  0.4754 -0.9482  0.9174
14673TIP3   OH265433   4.199   5.264   6.211 -0.3285  0.3793 -0.2785
14673TIP3    H165434   4.169   5.237   6.298  0.1778  1.0609  0.1106
14673TIP3    H265435   4.122   5.306   6.171 -0.7725 -0.5674 -0.4423
14674TIP3   OH265436   1.816   1.957   0.964  0.0008  0.5326  0.1418
14674TIP3    H165437   1.734   1.914   0.941  0.3302  0.4783 -0.9400
14674TIP3    H265438   1.862   1.967   0.881  1.0199  0.7093  0.7237
14675TIP3   OH265439   3.168   2.732   1.646  0.0865  0.9790  0.5720
14675TIP3    H165440   3.122   2.659   1.605  1.3011  1.3336 -1.4589
14675TIP3    H265441   3.172   2.708   1.739 -1.4650 -0.4820  0.2819
14676TIP3   OH265442   6.222   0.579  10.445  0.5362  0.4988  0.1348
14676TIP3    H165443   6.261   0.666  10.449 -0.1923  0.8013  0.9225
14676TIP3    H265444   6.293   0.520  10.467  1.4175  0.7716 -1.9129
14677TIP3   OH265445   1.886   0.071  16.038 -0.4085  0.5338  0.2876
14677TIP3    H165446   1.817   0.069  15.973  0.6776 -2.8335 -0.8699
14677TIP3    H265447   1.840   0.064  16.122 -1.5262 -0.5817 -0.4081
14678TIP3   OH265448   0.601   5.446  15.729  0.2373 -0.1382  0.7369
14678TIP3    H165449   0.669   5.491  15.680  1.0927 -1.2927  0.8490
14678TIP3    H265450   0.629   5.450  15.820 -0.7685  0.9735  1.0230
14679TIP3   OH265451   0.450   5.828  13.800 -0.2647  0.2053  0.2174
14679TIP3    H165452   0.367   5.871  13.823 -0.1074 -0.4538  2.0741
14679TIP3    H265453   0.490   5.886  13.735 -1.7160  1.0286  0.0404
14680TIP3   OH265454   2.878   0.940  17.226 -0.1125  0.0872  0.4123
14680TIP3    H165455   2.798   0.988  17.246  0.5580  0.8153  1.3830
14680TIP3    H265456   2.916   0.920  17.312  0.6503 -0.4133 -0.0359
14681TIP3   OH265457   0.182   4.920   4.242  0.2267 -0.3882 -0.5240
14681TIP3    H165458   0.178   4.951   4.152  0.0206 -0.2874 -0.4794
14681TIP3    H265459   0.275   4.924   4.265  0.4265 -1.4443 -1.0911
14682TIP3   OH265460   1.031   1.432  11.927 -0.1443 -0.1954 -0.8020
14682TIP3    H165461   0.990   1.394  11.849  1.1194  1.1002 -2.1483
14682TIP3    H265462   0.997   1.521  11.931  0.0767 -0.1415 -0.0791
14683TIP3   OH265463   4.677   5.123   4.756 -0.2038  0.1078 -0.2761
14683TIP3    H165464   4.636   5.204   4.728 -0.1373  0.0495 -0.5469
14683TIP3    H265465   4.760   5.150   4.795 -0.2186  0.1740 -0.2913
14684TIP3   OH265466   5.030   3.874   4.232 -0.0248  0.7012  0.2744
14684TIP3    H165467   5.070   3.798   4.190  1.2166  0.9023  1.0690
14684TIP3    H265468   5.071   3.949   4.190  1.3826  0.9032  1.9453
14685TIP3   OH265469   6.352   2.383   2.498 -0.2452  0.1243 -0.4417
14685TIP3    H165470   6.403   2.305   2.519  1.5968  1.1635 -1.0223
14685TIP3    H265471   6.276   2.379   2.557  0.0653 -1.8558 -0.1593
14686TIP3   OH265472   0.447   0.914   2.173 -0.2277 -0.0251 -0.3609
14686TIP3    H165473   0.393   0.914   2.252  0.0978 -1.9320 -0.1261
14686TIP3    H265474   0.514   0.848   2.190 -1.1336 -1.6560 -2.9085
14687TIP3   OH265475   1.123   2.087  10.686  0.2411  0.0997  0.5069
14687TIP3    H165476   1.165   2.020  10.632  0.3464  0.9593 -0.5125
14687TIP3    H265477   1.106   2.159  10.624 -4.3785 -0.9157  0.4301
14688TIP3   OH265478   5.906   2.336  11.374  0.2675  0.6819  0.2012
14688TIP3    H165479   5.842   2.349  11.444  0.1509  1.2240 -0.0042
14688TIP3    H265480   5.960   2.414  11.376  1.5342 -0.1999  0.9968
14689TIP3   OH265481   0.625   1.549  16.689 -0.1103 -0.0343 -0.1007
14689TIP3    H165482   0.680   1.508  16.622 -1.2349 -0.1781 -0.9527
14689TIP3    H265483   0.661   1.517  16.772 -0.4462 -2.0848 -0.7243
14690TIP3   OH265484   3.579   2.299  12.715  0.0864 -0.3011 -0.4609
14690TIP3    H165485   3.575   2.219  12.664  1.1504 -0.2974 -0.5582
14690TIP3    H265486   3.622   2.363  12.657  0.7914 -0.1420  0.2291
14691TIP3   OH265487   2.354   3.994   4.533 -0.5881 -0.1610 -0.0140
14691TIP3    H165488   2.313   3.911   4.557  0.8253 -1.1818 -1.0557
14691TIP3    H265489   2.348   3.998   4.438 -2.1612  1.7544  0.1300
14692TIP3   OH265490   3.865   2.406   6.066 -0.1393 -0.7077 -0.1079
14692TIP3    H165491   3.897   2.495   6.054 -1.3521  0.1809  2.7861
14692TIP3    H265492   3.944   2.352   6.071  0.6667  0.4708  0.0023
14693TIP3   OH265493   2.204   0.245   3.351 -0.2274  0.1548  0.4855
14693TIP3    H165494   2.252   0.230   3.269 -1.1738  0.4420 -0.1321
14693TIP3    H265495   2.240   0.328   3.384 -1.9680  1.6416 -1.2264
14694TIP3   OH265496   3.110   2.217   4.577 -0.2484 -0.0924 -0.3632
14694TIP3    H165497   3.024   2.209   4.618  0.1794 -1.7544  0.2416
14694TIP3    H265498   3.091   2.244   4.487 -1.4335 -0.9689 -0.3915
14695TIP3   OH265499   3.304   3.489  16.768  0.7671 -0.0497 -0.2694
14695TIP3    H165500   3.351   3.558  16.721 -1.0102  2.2192  1.1816
14695TIP3    H265501   3.248   3.448  16.703  1.8505 -0.1599 -1.1481
14696TIP3   OH265502   5.727   2.334   6.108  0.8432 -0.5750  0.0664
14696TIP3    H165503   5.693   2.423   6.114 -1.6310 -1.6319  2.7135
14696TIP3    H265504   5.818   2.341   6.135  0.8417  1.2475 -0.3467
14697TIP3   OH265505   6.151   5.492  13.795  0.6774  0.0715  0.0930
14697TIP3    H165506   6.161   5.525  13.884 -1.1400  0.2599  0.2398
14697TIP3    H265507   6.134   5.570  13.742 -0.6757 -0.2869 -0.0225
14698TIP3   OH265508   2.216   2.925   4.087 -0.0024 -0.1421  0.0607
14698TIP3    H165509   2.294   2.975   4.112  0.0733  0.1185 -0.6587
14698TIP3    H265510   2.221   2.920   3.991 -0.7121 -0.3815  0.0308
14699TIP3   OH265511   5.898   4.714  14.515  0.3579  0.0874 -0.1541
14699TIP3    H165512   5.897   4.631  14.562  2.1363 -0.0158 -0.2579
14699TIP3    H265513   5.873   4.693  14.426  1.5385 -0.4648 -0.3600
14700TIP3   OH265514   3.045   3.868   1.364 -0.2802  0.6510  0.0919
14700TIP3    H165515   3.083   3.819   1.291 -0.6207 -2.1020  1.6904
14700TIP3    H265516   3.118   3.919   1.399 -0.3931  2.9617 -2.8688
14701TIP3   OH265517   0.351   0.839   1.011 -0.0978  0.2923 -0.0289
14701TIP3    H165518   0.310   0.755   0.989 -1.1955  0.5134  1.1289
14701TIP3    H265519   0.445   0.821   1.008 -0.2876 -0.6016 -1.2434
14702TIP3   OH265520   3.741   4.931  14.726 -0.5966  0.1766  0.6548
14702TIP3    H165521   3.719   4.975  14.644  0.2463  0.9397  0.8226
14702TIP3    H265522   3.707   4.990  14.794 -0.3311  0.0833  0.8681
14703TIP3   OH265523   3.415   6.096  15.299  0.8695 -0.1600 -0.1420
14703TIP3    H165524   3.477   6.033  15.337  0.1475 -0.3432  0.7694
14703TIP3    H265525   3.392   6.154  15.372  1.0891  0.8075 -0.8408
14704TIP3   OH265526   2.919   0.468  15.572 -0.1834  0.6111 -0.0417
14704TIP3    H165527   2.982   0.442  15.639  0.7818  2.0217 -0.3770
14704TIP3    H265528   2.887   0.385  15.535  1.2784 -0.1309  0.3091
14705TIP3   OH265529   3.317   6.511   5.596  0.3146  0.0169  0.1739
14705TIP3    H165530   3.306   6.575   5.665  1.4610  1.1157 -0.6428
14705TIP3    H265531   3.228   6.488   5.570 -0.1444  2.9171 -1.0124
14706TIP3   OH265532   0.754   3.446   0.759  0.4790 -0.0738  0.0503
14706TIP3    H165533   0.753   3.353   0.780 -0.1854  0.0559  0.6064
14706TIP3    H265534   0.796   3.451   0.673  2.3175 -0.7033  0.8913
14707TIP3   OH265535   1.079   4.578  14.859 -0.3371 -0.3444 -0.5439
14707TIP3    H165536   1.066   4.505  14.919 -0.1294  3.2006  4.1586
14707TIP3    H265537   1.163   4.617  14.886 -1.3600  2.7304 -1.5346
14708TIP3   OH265538   3.557   5.152   4.627 -0.2606 -0.4050  0.5002
14708TIP3    H165539   3.523   5.064   4.642  0.2845 -0.6653  0.2454
14708TIP3    H265540   3.601   5.176   4.708  1.7652 -1.3851 -0.2594
14709TIP3   OH265541   2.492   3.014  11.497  0.7455  0.7515 -0.9814
14709TIP3    H165542   2.472   2.991  11.587  0.0938  1.2042 -1.0029
14709TIP3    H265543   2.508   2.931  11.453  0.0259  0.4522 -0.6851
14710TIP3   OH265544   4.159   5.360  15.002 -0.0609 -0.4249  0.0940
14710TIP3    H165545   4.186   5.404  14.921 -0.0325 -0.7750 -0.0858
14710TIP3    H265546   4.241   5.340  15.046 -0.0927  0.3012  0.4994
14711TIP3   OH265547   5.557   0.748  11.446  0.7142 -0.0320 -0.2579
14711TIP3    H165548   5.647   0.777  11.437  0.9112 -0.7533 -0.6200
14711TIP3    H265549   5.560   0.680  11.513  0.4432 -0.0739 -0.2874
14712TIP3   OH265550   4.608   4.023   2.863  0.3793  0.3185 -0.0853
14712TIP3    H165551   4.585   3.981   2.945 -0.9660  1.3864  0.0797
14712TIP3    H265552   4.577   3.962   2.795  0.5014 -0.0362  0.1789
14713TIP3   OH265553   5.682   3.705  17.211  0.2350 -0.0199  0.1299
14713TIP3    H165554   5.644   3.785  17.247 -0.4881 -0.9234  1.4489
14713TIP3    H265555   5.711   3.656  17.288 -2.6219 -2.6375 -0.3587
14714TIP3   OH265556   1.855   0.263  13.453  0.5178  0.1833  0.3054
14714TIP3    H165557   1.914   0.305  13.516 -1.2863  1.9075  0.8930
14714TIP3    H265558   1.817   0.335  13.404 -2.8999 -0.6936  1.5416
14715TIP3   OH265559   6.623   4.718  16.467 -0.0317 -0.5177  0.1113
14715TIP3    H165560   6.640   4.669  16.547  1.1452 -1.2334 -0.5539
14715TIP3    H265561   6.535   4.693  16.441  0.1292 -1.4067  0.4060
14716TIP3   OH265562   6.521   4.761  15.477  0.0315 -0.1130  0.6882
14716TIP3    H165563   6.562   4.772  15.562  2.3360  0.0906 -0.4030
14716TIP3    H265564   6.564   4.684  15.439 -0.4859  0.1971 -0.5598
14717TIP3   OH265565   0.934   4.023   1.177  0.6213  0.5869  0.0380
14717TIP3    H165566   0.882   4.099   1.206 -2.2593 -0.7612 -1.4210
14717TIP3    H265567   0.869   3.955   1.159  3.0727 -1.8254  0.0598
14718TIP3   OH265568   2.665   0.974   3.376  0.0259 -0.4128  0.2799
14718TIP3    H165569   2.715   1.039   3.427 -1.2587 -0.2865  1.4196
14718TIP3    H265570   2.629   1.024   3.303 -2.3576  0.6113  2.0619
14719TIP3   OH265571   0.145   3.376  13.221  0.4722  0.3599 -0.1812
14719TIP3    H165572   0.078   3.311  13.203  0.7388  0.1709 -0.5106
14719TIP3    H265573   0.161   3.369  13.315  0.6849 -0.2383 -0.2579
14720TIP3   OH265574   0.919   3.855   2.325 -0.6011  0.3326  0.5235
14720TIP3    H165575   0.983   3.816   2.265 -2.5664 -2.7067  0.2683
14720TIP3    H265576   0.873   3.780   2.362 -2.7976  2.3747  2.0729
14721TIP3   OH265577   2.770   6.084   0.797 -0.1318 -0.0400  0.4740
14721TIP3    H165578   2.812   6.155   0.749  0.7986 -0.9545 -0.0841
14721TIP3    H265579   2.679   6.086   0.769  0.1491  0.1887 -0.4399
14722TIP3   OH265580   3.995   5.499   3.671 -0.3392 -0.2428 -0.6542
14722TIP3    H165581   4.070   5.556   3.653  0.5832 -1.5888 -1.1450
14722TIP3    H265582   3.986   5.446   3.592 -1.1089 -0.8639 -0.1542
14723TIP3   OH265583   4.673   2.741  14.187 -0.1133 -0.1044 -0.3693
14723TIP3    H165584   4.751   2.724  14.135 -0.8270  0.6095 -1.6997
14723TIP3    H265585   4.650   2.656  14.224  1.1566 -0.3565 -0.1419
14724TIP3   OH265586   4.741   2.645   3.965 -0.2610  0.2700  0.1678
14724TIP3    H165587   4.688   2.692   4.030  0.3219  0.7828  0.2724
14724TIP3    H265588   4.781   2.714   3.912 -1.2215 -0.1474 -1.1418
14725TIP3   OH265589   5.208   4.934   3.762 -0.1113 -0.3032  0.3363
14725TIP3    H165590   5.139   4.872   3.739 -0.2367 -0.1476  0.2949
14725TIP3    H265591   5.176   5.019   3.732 -0.3412 -0.0753  1.2082
14726TIP3   OH265592   1.005   2.140   6.517 -0.1031  0.3158 -0.7172
14726TIP3    H165593   1.065   2.097   6.578  0.1250  1.5248 -0.0719
14726TIP3    H265594   0.920   2.099   6.534 -0.2988  1.4948  1.3052
14727TIP3   OH265595   2.722   6.133  13.027 -0.0169  0.0885  0.0335
14727TIP3    H165596   2.768   6.208  13.065 -0.3872 -0.0967  0.8699
14727TIP3    H265597   2.689   6.165  12.943  0.2204  0.7268  0.1781
14728TIP3   OH265598   2.895   4.609  14.464  0.3774  0.0806 -0.0120
14728TIP3    H165599   2.856   4.551  14.398  1.6576 -0.7518 -0.0526
14728TIP3    H265600   2.938   4.678  14.412 -1.1320  1.0792  0.0353
14729TIP3   OH265601   2.933   2.448  16.478 -0.0981  0.6175  0.1151
14729TIP3    H165602   2.886   2.366  16.494  1.4679 -0.0721  1.3722
14729TIP3    H265603   2.910   2.503  16.553  1.5585  0.0406  1.0753
14730TIP3   OH265604   4.859   4.645   5.780 -0.1963 -0.2961 -0.6965
14730TIP3    H165605   4.927   4.592   5.821 -0.7741 -0.9096 -0.5127
14730TIP3    H265606   4.852   4.609   5.691 -0.7743 -0.7038 -0.4861
14731TIP3   OH265607   4.159   0.823  15.589 -0.1987  0.0496 -0.2971
14731TIP3    H165608   4.129   0.801  15.500 -0.9072 -1.1657  0.2296
14731TIP3    H265609   4.225   0.757  15.609 -0.1681  0.2136  0.1520
14732TIP3   OH265610   0.235   2.505   0.988  0.0112 -0.3209  0.2570
14732TIP3    H165611   0.319   2.469   1.017 -0.0324  0.1143  0.9145
14732TIP3    H265612   0.172   2.435   1.005  0.0538 -0.2206  0.8229
14733TIP3   OH265613   4.694   2.029  15.991 -0.2382  0.4619 -0.5308
14733TIP3    H165614   4.740   2.044  15.908 -0.1857 -1.8461 -0.9677
14733TIP3    H265615   4.602   2.046  15.970 -0.0584  1.2236 -0.7039
14734TIP3   OH265616   2.643   0.755   1.081  0.8271  0.2423 -0.3950
14734TIP3    H165617   2.563   0.780   1.128  0.9378 -1.4661  0.7222
14734TIP3    H265618   2.648   0.818   1.009 -0.4325  1.6316  0.6928
14735TIP3   OH265619   4.961   5.694  16.309  0.6128 -0.1785 -0.4220
14735TIP3    H165620   4.929   5.784  16.314  0.6875 -0.1714 -0.0326
14735TIP3    H265621   4.960   5.673  16.216  0.0565  0.0344 -0.4679
14736TIP3   OH265622   1.294   4.206   3.347  0.5518 -0.1524  0.2099
14736TIP3    H165623   1.361   4.248   3.401  1.6366 -0.2848 -1.0101
14736TIP3    H265624   1.217   4.263   3.356  0.4699 -0.5718  2.4611
14737TIP3   OH265625   0.188   6.175  13.756  0.2138 -0.2689 -0.7733
14737TIP3    H165626   0.119   6.123  13.716 -0.0064 -0.3217 -0.3233
14737TIP3    H265627   0.144   6.227  13.823  0.7594 -1.0656  0.2284
14738TIP3   OH265628   2.338   0.472   3.747  0.2333  0.2402  0.2608
14738TIP3    H165629   2.428   0.504   3.757  0.5989 -1.3049  2.4810
14738TIP3    H265630   2.331   0.401   3.811 -2.8595  0.9211  0.7819
14739TIP3   OH265631   5.890   1.125  11.753  0.0101  0.2996  0.3460
14739TIP3    H165632   5.834   1.075  11.693 -0.7256  0.0477  1.2246
14739TIP3    H265633   5.832   1.148  11.826  0.6632  1.3787  0.5387
14740TIP3   OH265634   4.108   5.361  14.026 -0.8740  0.0392  0.5085
14740TIP3    H165635   4.036   5.389  13.970  0.5888  1.7429 -0.5494
14740TIP3    H265636   4.073   5.367  14.115 -2.2095  0.2949 -0.0261
14741TIP3   OH265637   2.644   0.625   3.874  0.1644  0.1904 -0.1626
14741TIP3    H165638   2.587   0.674   3.815  0.6812 -1.1837 -1.8460
14741TIP3    H265639   2.591   0.609   3.952 -1.3083  0.0513 -1.1718
14742TIP3   OH265640   1.654   2.908   1.850 -0.0317 -0.1086  0.2539
14742TIP3    H165641   1.679   2.835   1.794 -0.1224  0.0970 -0.0599
14742TIP3    H265642   1.695   2.890   1.934  0.2064 -0.3581  0.0838
14743TIP3   OH265643   0.407   5.218   1.274 -0.1422 -0.3065 -0.1469
14743TIP3    H165644   0.462   5.155   1.227  0.9742  0.7205 -0.2209
14743TIP3    H265645   0.336   5.164   1.311  0.4482 -1.5120 -0.7388
14744TIP3   OH265646   6.450   1.515   1.064 -0.0115 -0.4429  0.5113
14744TIP3    H165647   6.459   1.600   1.021 -0.3872 -0.7648 -0.2013
14744TIP3    H265648   6.385   1.530   1.133  1.0180  0.2125  1.3527
14745TIP3   OH265649   1.628   3.924   4.714  0.0041  0.6169  0.0856
14745TIP3    H165650   1.634   3.935   4.809  2.1796 -2.3701  0.3642
14745TIP3    H265651   1.551   3.869   4.701  1.6177 -1.8032  0.4475
14746TIP3   OH265652   3.488   6.332   2.541  0.1803  0.0444 -0.1477
14746TIP3    H165653   3.415   6.302   2.595 -0.8652 -0.1595 -1.6402
14746TIP3    H265654   3.483   6.277   2.462  1.1824  0.8688 -0.7962
14747TIP3   OH265655   0.337   6.297   1.881 -0.2316 -0.6381  0.2027
14747TIP3    H165656   0.297   6.384   1.888  2.6944  0.7201  0.6175
14747TIP3    H265657   0.323   6.272   1.789 -1.3288  0.1106  0.1467
14748TIP3   OH265658   0.878   6.780   3.637 -0.3088 -0.8711 -0.4112
14748TIP3    H165659   0.790   6.743   3.641 -1.3933  1.6571  0.1889
14748TIP3    H265660   0.873   6.847   3.569  0.4644  0.9411  1.2523
14749TIP3   OH265661   6.475   2.773  14.882 -0.7158  0.1994 -0.7850
14749TIP3    H165662   6.522   2.799  14.803 -0.9454  1.6894 -0.4455
14749TIP3    H265663   6.532   2.801  14.954 -0.6519 -0.8694 -0.4054
14750TIP3   OH265664   3.045   2.452   4.072 -0.0200  0.1452  0.6547
14750TIP3    H165665   2.983   2.524   4.064  1.5559  1.5812  0.9896
14750TIP3    H265666   3.003   2.379   4.027 -1.1499  1.6042 -0.7531
14751TIP3   OH265667   5.063   4.478  11.486  0.5365 -0.3292 -0.4663
14751TIP3    H165668   5.096   4.533  11.557  0.2329 -0.2172 -0.4141
14751TIP3    H265669   5.034   4.398  11.529 -1.1469  0.3747 -0.2642
14752TIP3   OH265670   5.832   1.302   0.889 -0.1684  0.7120 -0.2688
14752TIP3    H165671   5.840   1.352   0.808  0.2322 -0.9119 -1.2623
14752TIP3    H265672   5.920   1.301   0.926 -0.4947  2.0597  0.5751
14753TIP3   OH265673   5.431   1.180  13.270  0.3794  0.1323 -0.1072
14753TIP3    H165674   5.357   1.233  13.301 -0.0967 -1.4031  1.4664
14753TIP3    H265675   5.390   1.105  13.228  1.0363 -0.6998  0.7260
14754TIP3   OH265676   2.768   4.464  13.081  0.1874 -0.0584  0.0824
14754TIP3    H165677   2.713   4.388  13.060  1.4036 -0.8347 -0.3305
14754TIP3    H265678   2.759   4.475  13.175 -1.2998  0.3164 -0.0909
14755TIP3   OH265679   5.771   6.264   2.631 -0.6737  0.2319 -0.6840
14755TIP3    H165680   5.689   6.295   2.669 -0.1103  1.0922 -0.1567
14755TIP3    H265681   5.821   6.231   2.705 -0.1541  0.5929 -0.8695
14756TIP3   OH265682   5.042   0.233   4.348  0.4142  0.8398  0.1189
14756TIP3    H165683   5.101   0.168   4.309  0.0883 -0.2166  1.3521
14756TIP3    H265684   4.969   0.181   4.381  0.7462  1.7185  2.2691
14757TIP3   OH265685   0.119   4.550  15.725  0.1312  0.6409  0.2581
14757TIP3    H165686   0.183   4.479  15.721 -1.3968 -0.6969 -1.3194
14757TIP3    H265687   0.040   4.508  15.758 -0.4828  1.8615  0.3365
14758TIP3   OH265688   2.273   5.599   4.589  0.4102 -0.3765  0.0064
14758TIP3    H165689   2.346   5.626   4.532  1.7630 -2.9157  0.4476
14758TIP3    H265690   2.209   5.562   4.529  0.4643 -0.1738 -0.1775
14759TIP3   OH265691   5.942   0.851   1.154  0.3489 -0.3749  0.4711
14759TIP3    H165692   5.916   0.943   1.149 -1.0218 -0.7274  0.8147
14759TIP3    H265693   5.991   0.835   1.074 -0.8159  0.2383 -0.3874
14760TIP3   OH265694   0.234   2.642  10.624 -0.0304  0.6627 -0.5768
14760TIP3    H165695   0.171   2.621  10.693 -0.4048 -1.0072 -1.3913
14760TIP3    H265696   0.291   2.709  10.662 -1.9643  1.8212  0.3561
14761TIP3   OH265697   6.509   3.962   2.266  0.7669 -0.1393  0.3739
14761TIP3    H165698   6.434   3.926   2.217  0.5639  0.8191 -0.0316
14761TIP3    H265699   6.510   4.055   2.243  0.9654  0.2246  1.8366
14762TIP3   OH265700   2.350   3.322   2.711  0.5486  0.7511 -0.1685
14762TIP3    H165701   2.282   3.364   2.659 -0.5436 -1.7215 -0.8470
14762TIP3    H265702   2.308   3.302   2.795  0.8333  0.4233 -0.1011
14763TIP3   OH265703   2.547   4.981   0.570 -0.4894  0.0422  0.5806
14763TIP3    H165704   2.503   5.065   0.556  0.2831  0.6073  1.4433
14763TIP3    H265705   2.527   4.958   0.660  0.5845  0.0800  0.8364
14764TIP3   OH265706   4.615   4.835   4.381  0.0041 -0.3226 -0.3064
14764TIP3    H165707   4.700   4.824   4.423  1.0999  1.7795 -1.9010
14764TIP3    H265708   4.593   4.748   4.347  2.4547 -0.4640 -1.6163
14765TIP3   OH265709   0.064   1.088  13.443  0.5126  0.1046 -0.0347
14765TIP3    H165710   0.095   1.003  13.475 -1.7606 -0.2589  1.3164
14765TIP3    H265711   0.094   1.092  13.353 -0.8965 -2.9594 -0.7250
14766TIP3   OH265712   5.424   0.077   3.773  0.1490 -0.6755 -0.7353
14766TIP3    H165713   5.486   0.012   3.807  0.2728 -0.4281 -0.4860
14766TIP3    H265714   5.358   0.026   3.726  0.0148 -1.0081 -0.1814
14767TIP3   OH265715   3.118   5.696   3.393  0.2641 -0.1415  0.2175
14767TIP3    H165716   3.047   5.757   3.410 -1.4259 -1.8877 -0.4318
14767TIP3    H265717   3.152   5.722   3.307 -0.0752  0.2295  0.1959
14768TIP3   OH265718   4.289   5.855   2.245 -0.3069  0.5767 -0.5861
14768TIP3    H165719   4.300   5.875   2.338 -1.6701 -0.3975 -0.2007
14768TIP3    H265720   4.363   5.898   2.202  1.5617 -0.7633  1.1893
14769TIP3   OH265721   3.203   1.133   3.947 -0.2805 -0.5014  0.1057
14769TIP3    H165722   3.188   1.211   4.001  1.3846 -1.3219  1.8128
14769TIP3    H265723   3.224   1.167   3.860  0.9320  0.9880  0.9568
14770TIP3   OH265724   0.386   2.647  13.070 -0.5113  0.3047  0.5609
14770TIP3    H165725   0.356   2.560  13.041 -0.2047  0.7788 -1.2041
14770TIP3    H265726   0.312   2.682  13.120 -1.6818  0.1295 -1.0185
14771TIP3   OH265727   3.767   6.381  15.409  0.0259  0.0821  0.3606
14771TIP3    H165728   3.807   6.414  15.329 -0.4989 -0.6199 -0.1995
14771TIP3    H265729   3.839   6.372  15.471  0.4011  0.8210  0.0295
14772TIP3   OH265730   4.816   5.725  12.987 -0.4734  0.1405  0.3503
14772TIP3    H165731   4.835   5.805  13.037  2.1018 -0.6945  0.7989
14772TIP3    H265732   4.834   5.749  12.896  0.2222  0.1011  0.4753
14773TIP3   OH265733   3.283   0.658   2.339 -0.5097 -0.3530 -0.0348
14773TIP3    H165734   3.359   0.633   2.391  0.4228  0.1814 -1.1177
14773TIP3    H265735   3.221   0.693   2.402  0.2651 -0.4927  0.8161
14774TIP3   OH265736   6.156   3.970   2.631  0.3977 -0.4281 -0.4132
14774TIP3    H165737   6.081   3.954   2.688 -0.0166 -1.3490 -1.2097
14774TIP3    H265738   6.147   4.062   2.605  0.3765 -0.1116  0.6825
14775TIP3   OH265739   1.057   5.162   5.579 -0.4272  0.0096  0.2093
14775TIP3    H165740   1.035   5.124   5.494 -0.5356 -0.9336  0.6580
14775TIP3    H265741   1.075   5.254   5.559  2.3288 -0.7914 -1.2653
14776TIP3   OH265742   3.875   3.863  11.721 -0.0386  0.2694  0.4100
14776TIP3    H165743   3.950   3.807  11.703  2.0458  2.6092  1.5332
14776TIP3    H265744   3.850   3.842  11.811 -0.2846 -0.0105  0.2760
14777TIP3   OH265745   4.415   2.257   5.905  0.7431  0.5216  0.4672
14777TIP3    H165746   4.491   2.279   5.960 -0.9636  1.3506  2.6042
14777TIP3    H265747   4.363   2.197   5.959  0.0592 -0.3504 -1.1226
14778TIP3   OH265748   4.972   5.414   3.127  0.1460 -0.3539 -0.7645
14778TIP3    H165749   5.053   5.460   3.148  0.2095 -0.7019 -0.2532
14778TIP3    H265750   4.972   5.336   3.183 -1.8242  0.9736  1.1590
14779TIP3   OH265751   2.542   0.062  15.703 -0.4012  0.6018  0.4157
14779TIP3    H165752   2.539   0.054  15.607 -1.7722 -0.2614  0.5152
14779TIP3    H265753   2.596  -0.013  15.731 -1.2085  0.0194  0.4118
14780TIP3   OH265754   5.110   1.862   1.231 -0.1223  0.7763 -0.0373
14780TIP3    H165755   5.145   1.794   1.289  1.7291  0.4367 -1.4822
14780TIP3    H265756   5.037   1.820   1.186 -0.6191  0.5691  0.9505
14781TIP3   OH265757   4.712   5.405   4.844  0.1019 -0.0049  0.6760
14781TIP3    H165758   4.680   5.416   4.934 -1.4122 -1.3294  0.3394
14781TIP3    H265759   4.798   5.366   4.854  1.3696  2.9074  1.6014
14782TIP3   OH265760   3.150   2.567  13.394  0.1730  0.0998  0.1286
14782TIP3    H165761   3.120   2.541  13.306 -3.6677 -1.0248  1.6404
14782TIP3    H265762   3.213   2.499  13.419  0.9160  0.1566 -1.5319
14783TIP3   OH265763   4.197   6.027   6.250  0.3789 -0.3651  0.7020
14783TIP3    H165764   4.227   6.117   6.244  0.4946 -0.4966 -1.1225
14783TIP3    H265765   4.277   5.976   6.264  0.6518 -0.4177 -0.9463
14784TIP3   OH265766   0.189   4.571  13.471  0.0917 -0.7064  0.2171
14784TIP3    H165767   0.103   4.563  13.428 -0.0327 -2.3036  0.7135
14784TIP3    H265768   0.217   4.480  13.484  1.5859 -0.1975  0.6221
14785TIP3   OH265769   4.271   5.640  17.150  0.0669 -0.3673  0.4209
14785TIP3    H165770   4.230   5.721  17.120  2.0209  0.7989  0.8036
14785TIP3    H265771   4.252   5.638  17.244  1.0397  0.2688  0.6329
14786TIP3   OH265772   1.555   3.765   3.111  0.2839  0.3206 -0.2520
14786TIP3    H165773   1.643   3.752   3.076 -0.0063  0.1240 -0.9090
14786TIP3    H265774   1.507   3.811   3.043 -0.4300 -0.5162 -0.3382
14787TIP3   OH265775   1.382   3.084  15.641 -0.1140 -0.0603  0.1780
14787TIP3    H165776   1.336   3.008  15.604 -1.6995  0.2092  1.5147
14787TIP3    H265777   1.473   3.056  15.647 -0.6643 -1.8492  0.5565
14788TIP3   OH265778   2.778   3.590  11.166 -0.2653  0.3928  0.5147
14788TIP3    H165779   2.838   3.583  11.092 -1.2911 -2.6977 -0.1041
14788TIP3    H265780   2.829   3.560  11.241 -0.2694  0.1619  0.4272
14789TIP3   OH265781   1.860   4.873   3.742 -0.2616  0.0151  0.0825
14789TIP3    H165782   1.778   4.823   3.748 -0.8535  0.9271 -0.4022
14789TIP3    H265783   1.852   4.939   3.811  0.6103 -0.6613  0.8512
14790TIP3   OH265784   1.687   1.487  14.065 -0.2872  0.0095  0.1083
14790TIP3    H165785   1.627   1.455  13.998 -0.9329 -0.7367  1.0128
14790TIP3    H265786   1.632   1.542  14.122 -0.0398 -0.3833  0.7364
14791TIP3   OH265787   6.529   4.627  16.713  0.1185  0.0912 -0.3271
14791TIP3    H165788   6.468   4.589  16.650 -2.2218 -0.6433  2.3072
14791TIP3    H265789   6.505   4.719  16.718 -1.4325 -0.3802  1.3769
14792TIP3   OH265790   3.336   2.673  11.986 -0.0128 -0.2645 -0.5597
14792TIP3    H165791   3.353   2.593  12.035 -1.3126 -0.1944  0.0478
14792TIP3    H265792   3.298   2.643  11.903  0.8046 -0.3229 -0.9181
14793TIP3   OH265793   0.316   2.621   4.604 -0.0981 -0.7215  0.0985
14793TIP3    H165794   0.245   2.684   4.595  1.4104  0.9667 -0.4334
14793TIP3    H265795   0.314   2.569   4.523  0.7597  0.9498 -1.0395
14794TIP3   OH265796   2.499   4.394  12.731 -0.2323 -1.0428  0.0151
14794TIP3    H165797   2.428   4.454  12.752  0.6877  0.5370 -1.2667
14794TIP3    H265798   2.578   4.437  12.763  0.2141 -2.6499  1.1632
14795TIP3   OH265799   5.537   2.790  14.763  0.2759  0.0754 -0.0399
14795TIP3    H165800   5.538   2.870  14.816  0.3780  0.9778 -1.3713
14795TIP3    H265801   5.446   2.762  14.762  0.1542  0.4694  0.0204
14796TIP3   OH265802   0.715   1.387  13.800  0.0901  0.5420  0.0276
14796TIP3    H165803   0.702   1.293  13.801 -0.8001  0.6615  0.4796
14796TIP3    H265804   0.688   1.416  13.887  2.6747  0.9224  0.7278
14797TIP3   OH265805   6.369   5.320   2.658 -0.0820  0.4899 -0.3390
14797TIP3    H165806   6.320   5.239   2.645  1.1756 -0.2681 -0.4908
14797TIP3    H265807   6.302   5.387   2.673 -1.2591 -0.0822 -2.7759
14798TIP3   OH265808   6.309   4.508  17.048  0.1479 -0.0873  0.4774
14798TIP3    H165809   6.362   4.576  17.090  0.2949  0.6249 -0.8277
14798TIP3    H265810   6.236   4.555  17.008 -1.7612 -1.1224  2.6548
14799TIP3   OH265811   4.298   6.748   1.967 -0.5003  0.4771  0.5629
14799TIP3    H165812   4.288   6.831   1.921 -0.3244 -0.2301 -0.7756
14799TIP3    H265813   4.390   6.744   1.991 -0.9063  1.5589  2.3807
14800TIP3   OH265814   4.033   4.113  16.767  0.4652 -0.0301 -0.2845
14800TIP3    H165815   3.990   4.102  16.682 -0.5182  0.4431  0.1382
14800TIP3    H265816   4.081   4.031  16.780 -0.5522 -0.7058 -0.6571
14801TIP3   OH265817   2.504   6.686   4.290 -0.0040  0.1776 -0.3115
14801TIP3    H165818   2.451   6.612   4.321 -0.5087  0.2399 -1.0171
14801TIP3    H265819   2.512   6.743   4.367 -1.2430  0.3310 -0.2772
14802TIP3   OH265820   0.079   3.172   5.518  0.0903  0.0161  0.4702
14802TIP3    H165821   0.031   3.237   5.570  0.0093 -0.9701  1.6594
14802TIP3    H265822   0.033   3.090   5.534  0.9492 -0.5614 -0.0114
14803TIP3   OH265823   2.455   5.587   1.021  0.2502  0.2286  0.0006
14803TIP3    H165824   2.447   5.682   1.014  0.7028  0.2483 -0.2602
14803TIP3    H265825   2.542   5.572   1.057  0.6169 -0.1174 -0.9820
14804TIP3   OH265826   0.064   3.202  11.851  0.1893 -0.2323 -0.2019
14804TIP3    H165827   0.047   3.271  11.787  0.7153  0.2515  0.1826
14804TIP3    H265828   0.155   3.177  11.836  1.2889  1.9690  2.3402
14805TIP3   OH265829   1.297   4.674  14.984 -0.0011  0.1747 -0.2828
14805TIP3    H165830   1.344   4.722  15.052 -0.7658 -0.6928  0.8791
14805TIP3    H265831   1.327   4.583  14.993 -1.1925 -0.2147 -0.1307
14806TIP3   OH265832   6.619   6.294   2.174 -0.6863  0.0333  0.3852
14806TIP3    H165833   6.610   6.200   2.187 -1.2607  0.2055  1.2794
14806TIP3    H265834   6.713   6.310   2.173 -0.5754 -0.6750 -0.6891
14807TIP3   OH265835   0.315   2.532  14.628  0.5969 -0.5555  0.3441
14807TIP3    H165836   0.271   2.453  14.598 -3.4449  1.1069  1.5605
14807TIP3    H265837   0.289   2.599  14.565  1.1513  0.5395  1.2629
14808TIP3   OH265838   1.212   6.438  14.541  0.0122 -0.5590 -0.0418
14808TIP3    H165839   1.138   6.497  14.528  2.2109  2.2275 -0.5234
14808TIP3    H265840   1.224   6.437  14.636  0.5345  0.5435 -0.0856
14809TIP3   OH265841   1.843   4.916  15.134 -0.0206  0.4144 -0.2387
14809TIP3    H165842   1.757   4.875  15.128  0.0753  0.1155  0.3529
14809TIP3    H265843   1.905   4.844  15.124  0.1584  0.5665 -0.2356
14810TIP3   OH265844   1.526   3.495   1.303 -0.1872 -0.2077 -0.0578
14810TIP3    H165845   1.580   3.574   1.304 -2.6647  1.6169 -1.9580
14810TIP3    H265846   1.546   3.453   1.219 -1.0469  0.0402 -0.4005
14811TIP3   OH265847   0.064   0.562   0.060  0.2700 -0.4532 -0.7576
14811TIP3    H165848   0.118   0.617   0.004  1.9520 -0.7535  0.4960
14811TIP3    H265849  -0.023   0.601   0.058  1.1721  1.5952 -0.7700
14812TIP3   OH265850   2.131   0.552   3.210 -0.2759 -0.0201  0.2644
14812TIP3    H165851   2.074   0.557   3.133 -0.7038  0.2944  0.5999
14812TIP3    H265852   2.087   0.492   3.269 -0.7523  0.9682  0.9319
14813TIP3   OH265853   2.604   4.314   0.523 -0.3917  0.0963 -0.5334
14813TIP3    H165854   2.665   4.355   0.462  0.1820 -1.0309 -0.7238
14813TIP3    H265855   2.521   4.311   0.475 -0.8526  2.4260  0.0404
14814TIP3   OH265856   2.592   4.393   1.370 -0.1507 -0.5013  0.1124
14814TIP3    H165857   2.551   4.417   1.453  0.4374  0.2686  0.1902
14814TIP3    H265858   2.521   4.362   1.315 -0.2258 -3.3595  1.7363
14815TIP3   OH265859   5.388   5.248   2.540  0.2161 -0.0697 -0.1283
14815TIP3    H165860   5.372   5.281   2.452 -0.6503 -0.5265 -0.1481
14815TIP3    H265861   5.479   5.219   2.538  0.8070  1.7171 -0.2875
14816TIP3   OH265862   1.180   5.162   2.425 -0.2808  0.0064 -0.3079
14816TIP3    H165863   1.262   5.143   2.472 -1.2070 -1.0818  0.9010
14816TIP3    H265864   1.191   5.252   2.395  2.7021 -1.1384 -2.9987
14817TIP3   OH265865   2.474   1.386   3.614 -0.3039 -0.3054  0.0407
14817TIP3    H165866   2.440   1.474   3.596 -1.6817 -0.9278 -0.4799
14817TIP3    H265867   2.462   1.338   3.532  1.9183 -0.5358 -0.1741
14818TIP3   OH265868   6.554   3.151   4.604  0.3178  0.3204 -0.1214
14818TIP3    H165869   6.480   3.195   4.562  0.1247  0.0927 -0.0207
14818TIP3    H265870   6.550   3.179   4.696 -0.2127 -0.4433  0.0924
14819TIP3   OH265871   2.440   6.337   1.256  0.1092  0.2617 -0.2411
14819TIP3    H165872   2.369   6.391   1.291 -0.0443 -0.7045  0.9664
14819TIP3    H265873   2.515   6.357   1.312 -0.0831 -1.1371  0.5260
14820TIP3   OH265874   2.297   4.423   4.197  0.0522  0.8417  1.6478
14820TIP3    H165875   2.358   4.497   4.194 -0.3472  1.2999  3.6413
14820TIP3    H265876   2.346   4.350   4.159  1.0734  1.7191  1.2525
14821TIP3   OH265877   1.099   2.959   3.019  0.1377 -0.6995 -0.1947
14821TIP3    H165878   1.192   2.941   3.003  0.4655 -0.1528  0.9946
14821TIP3    H265879   1.058   2.957   2.933  1.4628  0.2176 -0.8626
14822TIP3   OH265880   3.033   6.650   0.495  0.4764 -0.5176 -0.8093
14822TIP3    H165881   3.005   6.700   0.418  0.1311  0.0227 -0.3479
14822TIP3    H265882   2.966   6.582   0.505 -0.4181  0.4438 -0.0226
14823TIP3   OH265883   1.288   2.052  10.927  0.0021  0.1356 -0.0844
14823TIP3    H165884   1.290   1.963  10.894  0.4541 -0.0715  0.4815
14823TIP3    H265885   1.227   2.098  10.870 -0.5293 -0.6322 -0.1349
14824TIP3   OH265886   2.076   2.043   4.201 -0.1271 -0.2245  0.0543
14824TIP3    H165887   2.163   2.059   4.237 -0.5529  2.1750  0.0946
14824TIP3    H265888   2.029   1.995   4.269  1.0521 -1.2292  0.1627
14825TIP3   OH265889   3.362   0.950   0.579  0.1540 -0.0501  0.1932
14825TIP3    H165890   3.288   0.917   0.528 -1.5054 -1.1544  3.2142
14825TIP3    H265891   3.426   0.879   0.578  1.0212  0.7213 -2.0183
14826TIP3   OH265892   5.635   6.786   0.515 -0.3217  0.0116  0.3540
14826TIP3    H165893   5.644   6.866   0.462 -1.2846 -0.3890 -0.4253
14826TIP3    H265894   5.579   6.812   0.588 -0.1466  0.2019  0.4214
14827TIP3   OH265895   2.355   5.755  12.044  0.4501 -0.0077 -0.0943
14827TIP3    H165896   2.294   5.701  12.094  2.3502 -0.5876  1.6492
14827TIP3    H265897   2.378   5.826  12.103  1.2083  0.4054 -0.8826
14828TIP3   OH265898   0.175   3.750   5.935 -0.1543 -0.0512 -0.1831
14828TIP3    H165899   0.249   3.716   5.885 -0.6656  0.4023 -1.2720
14828TIP3    H265900   0.157   3.835   5.895 -1.6190 -0.4003 -0.3066
14829TIP3   OH265901   1.994   4.722  12.806  0.0876 -0.4657 -0.2542
14829TIP3    H165902   2.039   4.649  12.848  1.0321 -0.9874 -2.1241
14829TIP3    H265903   2.064   4.786  12.788 -0.1656 -0.5695 -1.6778
14830TIP3   OH265904   1.143   5.943  17.042 -0.4840 -0.0234 -0.1492
14830TIP3    H165905   1.089   5.931  17.121  1.1576 -2.2560  0.6651
14830TIP3    H265906   1.144   5.858  17.000  1.0054  0.4359 -1.0690
14831TIP3   OH265907   1.306   3.899   2.600 -0.5148 -0.2780 -0.7336
14831TIP3    H165908   1.301   3.809   2.568 -1.2298 -0.6765  0.4496
14831TIP3    H265909   1.215   3.928   2.604 -0.3341  0.2732 -0.5069
14832TIP3   OH265910   4.864   5.709  11.905 -0.2772  0.0787  0.3150
14832TIP3    H165911   4.868   5.780  11.841 -1.3339  1.2269  1.4824
14832TIP3    H265912   4.795   5.651  11.872 -0.6493  0.5397  0.2604
14833TIP3   OH265913   1.753   0.503   1.655 -0.7820 -0.4480 -0.1832
14833TIP3    H165914   1.824   0.515   1.718 -1.5394  1.4754  0.3271
14833TIP3    H265915   1.737   0.590   1.620 -1.0957 -1.3099 -2.2659
14834TIP3   OH265916   2.048   6.129  11.368 -0.1341  0.1064 -0.0196
14834TIP3    H165917   2.045   6.217  11.330  0.6382  0.5904  1.0315
14834TIP3    H265918   1.972   6.084  11.329 -1.1386  1.5577  0.2294
14835TIP3   OH265919   3.614   0.563  14.432  0.2402 -0.0137 -0.1581
14835TIP3    H165920   3.635   0.646  14.389  0.6252  0.4036  0.8202
14835TIP3    H265921   3.694   0.511  14.426  0.1000 -0.2022 -0.4759
14836TIP3   OH265922   1.348   3.912  12.814 -0.0621 -0.3502 -0.3812
14836TIP3    H165923   1.381   3.879  12.897 -1.5958 -0.5343  0.1668
14836TIP3    H265924   1.417   3.969  12.782  0.1113  0.5615  1.5321
14837TIP3   OH265925   2.132   3.862  11.951 -0.1462 -0.7500 -0.2671
14837TIP3    H165926   2.223   3.887  11.936 -0.3300 -0.9969 -1.8860
14837TIP3    H265927   2.127   3.771  11.923 -1.2011 -0.3128 -1.5626
14838TIP3   OH265928   2.255   4.333   2.015  0.2168  0.4420 -0.0057
14838TIP3    H165929   2.343   4.310   2.044  0.0187  0.4414  0.6012
14838TIP3    H265930   2.225   4.256   1.965 -0.8226 -1.0685  2.8505
14839TIP3   OH265931   1.997   6.415  17.103  0.0630  0.3894  0.7447
14839TIP3    H165932   1.939   6.487  17.077  0.5878  0.3757 -0.5003
14839TIP3    H265933   1.956   6.379  17.181 -3.0583 -1.2800 -1.5347
14840TIP3   OH265934   3.973   6.167   0.692 -0.2879 -0.0026  0.3165
14840TIP3    H165935   3.940   6.230   0.628 -1.2038 -2.8592 -2.1211
14840TIP3    H265936   4.068   6.166   0.678 -0.2770  0.7350  0.3003
14841TIP3   OH265937   2.622   3.308   5.289 -0.9425  0.2750 -0.0151
14841TIP3    H165938   2.663   3.265   5.364 -1.7756 -2.4160 -1.0336
14841TIP3    H265939   2.540   3.260   5.275 -1.9536  2.2583 -1.1964
14842TIP3   OH265940   6.141   3.658   0.006 -0.7080 -0.3769 -0.2169
14842TIP3    H165941   6.129   3.585   0.067 -1.7352 -0.0722 -0.0363
14842TIP3    H265942   6.111   3.735   0.054  0.1242  0.1309 -0.5018
14843TIP3   OH265943   0.412   2.690   3.350 -0.5224  0.0573 -0.1019
14843TIP3    H165944   0.434   2.782   3.337 -2.2315  0.4442 -0.2612
14843TIP3    H265945   0.328   2.691   3.394 -0.5052 -1.4329 -0.0178
14844TIP3   OH265946   4.551   1.427  12.309 -0.1014  0.0018  0.5334
14844TIP3    H165947   4.459   1.413  12.284 -0.0987 -1.2179  1.1646
14844TIP3    H265948   4.584   1.339  12.327  1.5841  0.3114 -0.9590
14845TIP3   OH265949   0.158   2.980   3.274 -0.1455 -0.6559  0.0703
14845TIP3    H165950   0.102   3.053   3.298 -1.1586 -1.0994 -0.9637
14845TIP3    H265951   0.246   3.019   3.267 -0.4270  0.1670  0.9479
14846TIP3   OH265952   1.064   4.411  12.551  0.2472  0.1819 -0.7303
14846TIP3    H165953   1.043   4.441  12.640 -2.5197  1.5360 -1.7801
14846TIP3    H265954   1.120   4.480  12.516  0.6729  0.0447 -0.3311
14847TIP3   OH265955   6.241   1.498   1.496 -0.3914  0.0257  0.1698
14847TIP3    H165956   6.186   1.421   1.512  2.2045 -1.7664  0.8617
14847TIP3    H265957   6.244   1.543   1.580 -0.1650 -0.2982  0.3357
14848TIP3   OH265958   5.202   3.011   5.664  0.0330  0.0520 -0.0306
14848TIP3    H165959   5.189   2.916   5.659  0.7884 -0.1165  0.9371
14848TIP3    H265960   5.135   3.041   5.725  0.3933  0.0049  0.3920
14849TIP3   OH265961   3.525   3.468  12.903 -0.3114  0.0762 -0.2542
14849TIP3    H165962   3.551   3.420  12.982 -1.2235  1.7437  1.1007
14849TIP3    H265963   3.441   3.508  12.926 -0.0767  1.4360 -1.7053
14850TIP3   OH265964   5.868   3.273  11.268  0.3606  0.4621 -0.4626
14850TIP3    H165965   5.931   3.344  11.278 -0.2726  1.0102 -0.3481
14850TIP3    H265966   5.816   3.298  11.192  0.2858  0.0104 -0.5573
14851TIP3   OH265967   4.480   3.169  11.209  0.2670  0.3932 -0.1363
14851TIP3    H165968   4.435   3.224  11.146  1.9359  1.1182 -0.7106
14851TIP3    H265969   4.416   3.102  11.233 -0.7066  0.7037 -1.8342
14852TIP3   OH265970   3.751   2.418   2.294 -0.0674 -0.2447  0.3676
14852TIP3    H165971   3.803   2.402   2.215  0.0744 -1.2427  0.6542
14852TIP3    H265972   3.816   2.448   2.358 -0.1143  0.1383  0.2386
14853TIP3   OH265973   4.757   5.088   3.742  0.6599 -0.1770 -0.5092
14853TIP3    H165974   4.712   5.043   3.671 -1.6126 -1.0684  1.4354
14853TIP3    H265975   4.831   5.132   3.700 -0.9969 -0.1552 -3.5073
14854TIP3   OH265976   2.044   4.183  11.617 -0.5890  0.4566  0.3716
14854TIP3    H165977   2.022   4.273  11.594 -0.3572  0.0588 -1.4782
14854TIP3    H265978   2.036   4.180  11.713  3.8954  3.6509  1.0076
14855TIP3   OH265979   1.744   5.664   1.847  0.4884 -0.3546  0.3762
14855TIP3    H165980   1.824   5.620   1.817 -0.2351 -1.1953 -0.3489
14855TIP3    H265981   1.679   5.594   1.852 -0.4824  0.5110 -0.0450
14856TIP3   OH265982   0.320   4.226   3.083  0.2980 -0.0282 -0.6287
14856TIP3    H165983   0.255   4.217   3.014  0.9192 -0.9220 -1.1137
14856TIP3    H265984   0.331   4.320   3.094 -0.3533  0.1217 -1.2258
14857TIP3   OH265985   2.383   2.209  11.407 -0.3877  0.5924  0.0970
14857TIP3    H165986   2.426   2.169  11.482 -1.0993  1.4162  0.9528
14857TIP3    H265987   2.450   2.265  11.368 -0.8932  2.5015  1.9006
14858TIP3   OH265988   4.760   6.431  16.082  0.5570  0.8796 -0.7594
14858TIP3    H165989   4.708   6.506  16.110 -0.2063  0.3390 -0.7056
14858TIP3    H265990   4.750   6.367  16.153  1.6207  0.9225 -0.5571
14859TIP3   OH265991   6.306   5.028   1.002 -0.0630 -0.3726 -0.1359
14859TIP3    H165992   6.353   4.952   0.967 -0.3735 -0.4207 -0.4472
14859TIP3    H265993   6.328   5.100   0.942 -0.9101 -0.5469 -0.6621
14860TIP3   OH265994   3.678   1.371  16.424 -0.4608  0.6670 -0.2119
14860TIP3    H165995   3.715   1.322  16.351 -2.4283 -2.5320  0.8661
14860TIP3    H265996   3.585   1.381  16.402 -0.5851  1.7953  0.7477
14861TIP3   OH265997   6.278   2.615   4.553  0.5131 -0.2686  0.1584
14861TIP3    H165998   6.355   2.568   4.521  0.8311  0.2882  0.1023
14861TIP3    H265999   6.294   2.706   4.529  0.3009  0.0014  1.0282
14862TIP3   OH266000   6.564   2.730  11.999  0.2999 -0.2109  0.7824
14862TIP3    H166001   6.545   2.638  12.018  0.2792 -0.1877  0.8758
14862TIP3    H266002   6.636   2.752  12.057  0.7377 -0.3491  0.2903
14863TIP3   OH266003   3.267   4.363   4.435  0.1267 -0.0573  0.3227
14863TIP3    H166004   3.214   4.329   4.363 -1.9602 -0.8819  2.1849
14863TIP3    H266005   3.357   4.352   4.405 -0.6651 -1.2848 -1.7606
14864TIP3   OH266006   3.533   6.590   2.949  0.4503  0.6133 -0.2000
14864TIP3    H166007   3.519   6.627   3.037  2.1721  0.7578  0.0363
14864TIP3    H266008   3.526   6.496   2.962  2.3048  0.5392  0.4314
14865TIP3   OH266009   4.234   3.770   1.023  0.1642 -0.1389  0.2827
14865TIP3    H166010   4.197   3.825   0.954 -1.1914 -0.1405  0.9908
14865TIP3    H266011   4.286   3.705   0.976  0.4661  0.7744 -0.6489
14866TIP3   OH266012   0.362   6.537  12.283  0.3163  0.0497 -0.0475
14866TIP3    H166013   0.442   6.492  12.308  0.8733  1.3027  0.4727
14866TIP3    H266014   0.383   6.581  12.201  0.3596  0.8653  0.3912
14867TIP3   OH266015   2.899   0.162   4.734  0.4422  0.6600  0.4182
14867TIP3    H166016   2.860   0.246   4.758  1.3794  0.7056  1.8404
14867TIP3    H266017   2.949   0.135   4.811  0.7321 -0.8691 -0.2700
14868TIP3   OH266018   4.291   2.974   4.310  0.1085  0.7021 -0.1934
14868TIP3    H166019   4.363   3.018   4.355  0.7089  2.3698 -2.6758
14868TIP3    H266020   4.274   2.896   4.363  3.3572  0.5394  0.7345
14869TIP3   OH266021   0.504   3.958  12.001 -0.3307 -0.1372 -0.3255
14869TIP3    H166022   0.590   4.000  12.002 -0.4180  0.0412 -0.2622
14869TIP3    H266023   0.513   3.886  11.939 -0.2984  0.2261 -0.7454
14870TIP3   OH266024   6.040   5.814   3.205  0.0833 -0.4718 -0.6515
14870TIP3    H166025   6.006   5.842   3.120 -0.3467 -0.3061 -0.4249
14870TIP3    H266026   5.989   5.736   3.227 -1.6282  0.9785  0.6660
14871TIP3   OH266027   5.268   1.529  14.309  0.0020  0.5800 -0.1228
14871TIP3    H166028   5.263   1.444  14.267  0.8528  0.7218 -0.5255
14871TIP3    H266029   5.258   1.592  14.238 -0.3513  0.8120  0.1330
14872TIP3   OH266030   2.106   3.149  15.385 -0.0827  0.5169  0.4143
14872TIP3    H166031   2.173   3.114  15.444  0.2929  0.7121  0.1063
14872TIP3    H266032   2.126   3.110  15.299  0.3790  1.5352  0.0534
14873TIP3   OH266033   0.954   0.993   2.314  0.5485 -0.2529 -0.2353
14873TIP3    H166034   0.904   0.918   2.347  0.7416 -1.0043 -1.6208
14873TIP3    H266035   1.042   0.959   2.297  0.6567  0.2878 -0.8112
14874TIP3   OH266036   2.273   4.984   0.341 -0.5803  0.2285 -0.4945
14874TIP3    H166037   2.350   4.928   0.341 -0.9990 -0.3872 -3.3330
14874TIP3    H266038   2.294   5.054   0.278 -1.2248  1.6692  0.8410
14875TIP3   OH266039   5.111   5.590   0.442 -0.0813 -0.8774  0.2095
14875TIP3    H166040   5.195   5.593   0.395 -0.4180 -1.5351 -0.4403
14875TIP3    H266041   5.071   5.508   0.413 -1.1784 -0.3182  0.1358
14876TIP3   OH266042   0.033   1.875   4.919 -0.4828  0.3054 -0.0751
14876TIP3    H166043   0.001   1.810   4.982 -2.3121 -0.8410 -2.1346
14876TIP3    H266044   0.069   1.945   4.974 -0.3104 -1.5095  2.2155
14877TIP3   OH266045   6.496   2.698  13.028  0.8158  0.1379  0.4274
14877TIP3    H166046   6.452   2.631  13.082 -1.5593  1.0745 -0.2851
14877TIP3    H266047   6.532   2.649  12.954 -1.6464 -0.3011 -0.5364
14878TIP3   OH266048   2.738   1.444   0.330  0.3461 -0.1616 -0.1010
14878TIP3    H166049   2.735   1.539   0.314 -0.1738 -0.0470  0.6696
14878TIP3    H266050   2.736   1.406   0.242  0.5915  0.5424 -0.4200
14879TIP3   OH266051   5.574   0.560   0.309  0.7727  0.0604  0.2935
14879TIP3    H166052   5.647   0.622   0.308  2.0790 -1.4308  0.3598
14879TIP3    H266053   5.559   0.542   0.402  1.2622 -0.6877  0.2340
14880TIP3   OH266054   2.504   6.737  13.656 -0.9446  0.5296 -0.4895
14880TIP3    H166055   2.417   6.739  13.617 -0.1089  0.6676 -2.4734
14880TIP3    H266056   2.513   6.821  13.700 -1.3403  1.0699 -1.4215
14881TIP3   OH266057   5.871   4.178  13.713 -0.5228 -0.0997 -0.6124
14881TIP3    H166058   5.956   4.216  13.736 -0.1885 -0.7197 -0.8052
14881TIP3    H266059   5.891   4.086  13.693 -1.1683 -0.1399 -1.0711
14882TIP3   OH266060   5.328   0.066  10.599  0.2015 -0.0620  0.3586
14882TIP3    H166061   5.254   0.125  10.589  0.4296  0.0602 -0.6028
14882TIP3    H266062   5.385   0.110  10.663 -0.1631  0.2182  0.4932
14883TIP3   OH266063   0.011   4.738   0.756  0.4260 -0.6817  0.2651
14883TIP3    H166064  -0.021   4.683   0.685  0.6565  0.2093 -0.5384
14883TIP3    H266065   0.078   4.684   0.799  0.7759 -0.9711 -0.6242
14884TIP3   OH266066   6.705   5.943  15.815 -0.0505 -0.3714 -0.1751
14884TIP3    H166067   6.621   5.899  15.801  0.4226 -1.1277 -0.6490
14884TIP3    H266068   6.770   5.873  15.813  0.8694  0.5016 -2.5208
14885TIP3   OH266069   3.348   6.525   1.954 -0.0106 -0.1049  0.0383
14885TIP3    H166070   3.356   6.604   1.901  1.6540 -0.7706 -0.7366
14885TIP3    H266071   3.393   6.457   1.903 -0.0605 -1.2008  1.4144
14886TIP3   OH266072   5.942   2.523   4.396  0.4120 -0.5479  0.1477
14886TIP3    H166073   5.912   2.472   4.471 -1.2968 -1.7578 -1.3002
14886TIP3    H266074   6.031   2.491   4.379  1.0112  0.1206  1.9531
14887TIP3   OH266075   1.645   2.521  12.994 -0.0732 -0.1791 -0.2351
14887TIP3    H166076   1.678   2.538  13.082 -0.2651  0.4581 -0.2868
14887TIP3    H266077   1.569   2.465  13.007 -0.9792  1.1086  0.1057
14888TIP3   OH266078   0.505   5.287   0.269  0.8430  0.3534  0.2044
14888TIP3    H166079   0.465   5.278   0.356  0.2186  0.0613 -0.1094
14888TIP3    H266080   0.566   5.359   0.278  0.4097  0.6547  0.7598
14889TIP3   OH266081   5.710   4.161  15.956 -0.4232 -0.0001  0.0546
14889TIP3    H166082   5.767   4.101  15.907  1.2289  1.6451 -0.0939
14889TIP3    H266083   5.767   4.198  16.023 -1.5789  0.9419  0.5335
14890TIP3   OH266084   4.138   6.217  15.588 -0.1008 -0.2922 -0.1515
14890TIP3    H166085   4.168   6.208  15.678  1.9805 -1.4380 -0.9334
14890TIP3    H266086   4.092   6.135  15.570  1.2928 -0.9418 -0.7897
14891TIP3   OH266087   3.712   2.747  12.600  0.1250  0.3789 -0.4439
14891TIP3    H166088   3.719   2.831  12.555 -0.2725  0.2263 -0.7873
14891TIP3    H266089   3.631   2.752  12.649  0.3997  0.4230  0.0114
14892TIP3   OH266090   2.991   4.271  11.565 -0.1084  0.3920  0.3932
14892TIP3    H166091   3.047   4.343  11.537 -0.2035 -0.6873 -2.8608
14892TIP3    H266092   3.052   4.202  11.592 -0.0041  1.3533  2.6673
14893TIP3   OH266093   6.148   3.698  16.664 -0.0758  0.7835 -0.2007
14893TIP3    H166094   6.204   3.654  16.728  1.4693  1.8840 -0.7765
14893TIP3    H266095   6.143   3.637  16.590  0.3398  0.6655 -0.1322
14894TIP3   OH266096   2.859   3.821   4.701  0.1465  0.3796 -0.3600
14894TIP3    H166097   2.882   3.741   4.653  0.4497 -0.3726  1.0006
14894TIP3    H266098   2.794   3.792   4.766  0.2794  1.2313  0.1624
14895TIP3   OH266099   1.383   2.508   1.643 -0.2520  0.5586  0.2248
14895TIP3    H166100   1.401   2.446   1.713  1.9048  1.3321  0.3968
14895TIP3    H266101   1.412   2.464   1.563  0.1011  0.8402  0.1953
14896TIP3   OH266102   6.382   0.184   4.500  0.6002 -0.4618 -0.0035
14896TIP3    H166103   6.384   0.279   4.514 -0.1954 -0.6368  1.5014
14896TIP3    H266104   6.315   0.170   4.433  1.3428  0.1162 -0.8538
14897TIP3   OH266105   5.693   3.233   3.196  0.0823  0.9252 -0.1105
14897TIP3    H166106   5.681   3.319   3.157 -0.0049  0.5820 -0.8483
14897TIP3    H266107   5.753   3.248   3.269  0.9069  1.4367 -0.8828
14898TIP3   OH266108   3.900   0.890  10.624  0.3727 -0.2436 -0.1871
14898TIP3    H166109   3.823   0.845  10.661  0.6470 -1.7234 -1.3431
14898TIP3    H266110   3.865   0.967  10.581 -0.4452 -0.7397 -0.4214
14899TIP3   OH266111   0.928   3.505  15.296  0.1728  0.5297 -0.4749
14899TIP3    H166112   0.981   3.545  15.227  1.9903 -0.0929  0.5262
14899TIP3    H266113   0.915   3.415  15.266  0.0873  0.5420 -0.4757
14900TIP3   OH266114   3.721   6.252   3.540 -0.8010  0.1781 -0.1934
14900TIP3    H166115   3.757   6.163   3.543 -1.5981 -0.1757 -0.9071
14900TIP3    H266116   3.758   6.290   3.460 -1.7519 -0.0686 -0.7471
14901TIP3   OH266117   1.350   2.073  15.957 -0.3681  0.0366  0.0386
14901TIP3    H166118   1.258   2.049  15.946 -0.1344 -1.0131  0.3664
14901TIP3    H266119   1.396   2.025  15.888  0.1111 -0.5232  0.7408
14902TIP3   OH266120   4.343   5.270   4.772 -0.2772  0.4510  0.2333
14902TIP3    H166121   4.287   5.284   4.695 -0.3888 -0.4863  0.1331
14902TIP3    H266122   4.297   5.314   4.843 -1.3610 -0.6589  0.2358
14903TIP3   OH266123   4.838   6.785  14.520  0.0177 -0.1540  0.1826
14903TIP3    H166124   4.843   6.746  14.433 -1.7686  1.4034 -0.6485
14903TIP3    H266125   4.856   6.712  14.580  0.5508 -1.3912 -1.4571
14904TIP3   OH266126   5.793   4.150   2.894  0.1696 -0.0848 -0.5701
14904TIP3    H166127   5.706   4.187   2.880  0.7123  0.6375 -2.0783
14904TIP3    H266128   5.831   4.205   2.963 -0.9300 -1.0358  0.8206
14905TIP3   OH266129   0.012   2.572  12.412  0.7373  0.2190 -0.6996
14905TIP3    H166130   0.094   2.527  12.434 -0.2504 -1.2331  0.1421
14905TIP3    H266131   0.037   2.639  12.349  2.2478 -1.6043 -2.0922
14906TIP3   OH266132   5.640   1.950   5.137  0.0236  0.3363  0.0376
14906TIP3    H166133   5.642   1.987   5.049 -2.7314  0.0400 -0.1872
14906TIP3    H266134   5.723   1.976   5.176  0.3540  2.3042 -1.9025
14907TIP3   OH266135   2.582   6.728  11.480  0.1722  0.4401 -0.4813
14907TIP3    H166136   2.661   6.781  11.482  1.4227 -1.4072  0.9826
14907TIP3    H266137   2.587   6.679  11.398  0.9236 -0.2075 -0.0519
14908TIP3   OH266138   5.812   0.253   5.037  0.6861 -0.1956 -0.3532
14908TIP3    H166139   5.782   0.333   5.078  1.5129  0.2624 -0.6275
14908TIP3    H266140   5.876   0.282   4.972  1.0044 -1.0741 -0.4386
14909TIP3   OH266141   1.766   5.338  16.436 -0.1161  0.6533 -0.1781
14909TIP3    H166142   1.807   5.254  16.457  1.7622  1.4500 -0.6188
14909TIP3    H266143   1.716   5.361  16.515 -1.3421 -1.2746 -0.3638
14910TIP3   OH266144   2.530   0.254   4.204 -0.3518 -0.0816 -0.4905
14910TIP3    H166145   2.585   0.196   4.256 -0.3929  0.6766  0.4195
14910TIP3    H266146   2.536   0.220   4.115  1.5926 -0.0277 -0.4087
14911TIP3   OH266147   5.986   6.295   4.522 -0.1342  0.5956  0.0785
14911TIP3    H166148   5.977   6.294   4.427 -0.5603  0.1550  0.1168
14911TIP3    H266149   5.961   6.384   4.548 -0.1687  0.6701 -0.2097
14912TIP3   OH266150   2.970   2.744   4.999 -0.5918 -0.1020 -0.1965
14912TIP3    H166151   3.020   2.716   5.076 -0.8030  0.5416  0.1753
14912TIP3    H266152   3.021   2.816   4.962 -1.4575  0.8355  0.4250
14913TIP3   OH266153   2.406   6.175   0.442 -0.2217 -0.4498 -0.9955
14913TIP3    H166154   2.342   6.140   0.381  0.0245 -1.6299 -0.5879
14913TIP3    H266155   2.479   6.203   0.387 -0.4247 -0.5693 -1.3274
14914TIP3   OH266156   1.424   4.317  16.994  0.0484 -0.2827 -0.1175
14914TIP3    H166157   1.485   4.375  16.947 -0.6126 -1.0425 -1.9808
14914TIP3    H266158   1.338   4.357  16.979 -0.6015 -2.5596 -2.7692
14915TIP3   OH266159   5.540   0.874   4.691  0.1355 -0.4786  0.0727
14915TIP3    H166160   5.553   0.962   4.725  0.9764 -0.2933 -0.7294
14915TIP3    H266161   5.456   0.878   4.645 -0.9951 -0.7200  2.0434
14916TIP3   OH266162   2.573   1.172  15.937  0.0465 -0.5184 -0.3124
14916TIP3    H166163   2.540   1.183  15.847  0.2433 -1.1811 -0.4677
14916TIP3    H266164   2.507   1.117  15.980  0.8112 -1.6325 -0.5500
14917TIP3   OH266165   4.927   6.700  13.691  0.3131  0.0677  0.3718
14917TIP3    H166166   4.980   6.777  13.672  0.7018 -0.0357  1.0304
14917TIP3    H266167   4.938   6.644  13.613 -2.1242  1.8316 -1.2999
14918TIP3   OH266168   5.085   4.495   4.252 -0.5845 -0.1079 -0.5163
14918TIP3    H166169   5.091   4.400   4.259  0.9264  0.0158  0.0351
14918TIP3    H266170   4.993   4.515   4.269 -0.9704 -1.4820 -0.9351
14919TIP3   OH266171   6.167   0.990   3.823 -0.5175  0.5534  0.0142
14919TIP3    H166172   6.160   0.895   3.819 -1.0676  0.6440 -1.5662
14919TIP3    H266173   6.079   1.022   3.806 -0.6653  1.3397  2.1109
14920TIP3   OH266174   0.940   4.675   0.896 -0.0100  0.1778 -0.0467
14920TIP3    H166175   0.940   4.754   0.950 -2.2093 -0.3450  0.7761
14920TIP3    H266176   0.851   4.641   0.903  0.6693 -1.9198 -1.0726
14921TIP3   OH266177   3.578   5.168  16.113  0.2161  0.1129  0.4416
14921TIP3    H166178   3.514   5.236  16.134 -0.1720 -0.2608  0.4819
14921TIP3    H266179   3.525   5.095  16.079  0.7375  0.3369 -0.8881
14922TIP3   OH266180   1.204   0.951   5.610 -0.4179 -0.6856  0.3112
14922TIP3    H166181   1.220   0.949   5.516 -2.1002 -1.2151  0.0209
14922TIP3    H266182   1.281   0.995   5.646 -0.9807  1.9212 -1.5624
14923TIP3   OH266183   6.617   0.093  11.505  0.1461 -0.0747  0.4078
14923TIP3    H166184   6.552   0.037  11.462  0.5617 -0.0569 -0.2546
14923TIP3    H266185   6.603   0.078  11.599  1.2937 -2.5036  0.2321
14924TIP3   OH266186   1.053   4.335   6.355 -0.2194  0.1136 -0.2061
14924TIP3    H166187   1.013   4.255   6.390  0.1442  0.2648  0.5719
14924TIP3    H266188   1.082   4.311   6.267 -1.5203 -0.1544 -0.5658
14925TIP3   OH266189   5.178   3.318   5.823 -0.1574 -0.3547  0.1532
14925TIP3    H166190   5.174   3.345   5.915  1.0119  0.4158 -0.0088
14925TIP3    H266191   5.159   3.224   5.825  0.7674 -0.5382  1.2887
14926TIP3   OH266192   3.894   2.779  12.265  0.5848  0.4271  0.0068
14926TIP3    H166193   3.865   2.749  12.179  1.8558  0.4480 -0.4323
14926TIP3    H266194   3.931   2.701  12.307  0.5365  0.5546  0.2893
14927TIP3   OH266195   6.503   5.350   5.607 -0.0770 -0.0749  0.3633
14927TIP3    H166196   6.582   5.316   5.567  0.2479  0.8637  0.1933
14927TIP3    H266197   6.485   5.431   5.560  0.4312  1.1594  2.2060
14928TIP3   OH266198   1.832   2.925   0.001  0.2808  0.1392 -0.0173
14928TIP3    H166199   1.916   2.925   0.046 -0.1096  0.9500  0.7050
14928TIP3    H266200   1.827   3.010  -0.042  0.0371 -0.0933 -0.4578
14929TIP3   OH266201   4.453   1.080  13.401  0.4946  0.1832  0.0303
14929TIP3    H166202   4.477   0.989  13.385  0.0664 -0.0433  0.7085
14929TIP3    H266203   4.423   1.112  13.315 -0.5628 -0.6736  0.0768
14930TIP3   OH266204   5.544   5.478   4.820 -0.5692  0.6704  0.0902
14930TIP3    H166205   5.587   5.555   4.856 -2.3411  1.3897  0.7393
14930TIP3    H266206   5.496   5.511   4.744 -2.9562  0.6429  1.5333
14931TIP3   OH266207   5.061   5.736  15.511  0.2444 -0.2143 -0.3265
14931TIP3    H166208   5.079   5.823  15.546  1.2282 -0.1710 -0.9244
14931TIP3    H266209   5.111   5.677  15.566  1.0713 -0.2280 -1.0863
14932TIP3   OH266210   1.958   0.106   0.980 -0.1694  0.6347 -0.3788
14932TIP3    H166211   2.014   0.036   0.946  0.3562  0.7236  0.2961
14932TIP3    H266212   1.947   0.166   0.906 -1.4617 -0.6573 -1.2784
14933TIP3   OH266213   6.281   5.896   4.298 -0.3202 -0.6802 -0.1044
14933TIP3    H166214   6.328   5.950   4.361 -1.5494 -0.6706  0.8142
14933TIP3    H266215   6.340   5.891   4.222  1.0763 -0.5344  0.9565
14934TIP3   OH266216   0.776   3.243   2.499 -0.2666  0.1235 -0.0291
14934TIP3    H166217   0.739   3.183   2.433 -0.0807  0.1474 -0.1552
14934TIP3    H266218   0.735   3.216   2.581  0.0780 -0.4007 -0.0253
14935TIP3   OH266219   1.169   0.172  14.142 -0.4870 -0.5075 -0.0700
14935TIP3    H166220   1.120   0.235  14.196 -0.1952  0.8439 -1.3703
14935TIP3    H266221   1.150   0.087  14.182 -0.8835  0.3962  1.7113
14936TIP3   OH266222   0.640   1.292  12.834  0.1120 -0.5176  0.3211
14936TIP3    H166223   0.663   1.384  12.820  1.1757 -0.9199 -0.6706
14936TIP3    H266224   0.549   1.295  12.864 -0.0542  0.8276 -0.2532
14937TIP3   OH266225   5.047   0.858  14.335 -0.0071  0.1944 -0.0227
14937TIP3    H166226   5.016   0.785  14.389 -0.2901 -0.2215 -0.7375
14937TIP3    H266227   5.002   0.846  14.252 -0.7205  1.6912  0.1343
14938TIP3   OH266228   0.480   4.538  13.443 -0.2315  0.3811  0.1716
14938TIP3    H166229   0.526   4.603  13.497  0.3962  0.2167 -0.1640
14938TIP3    H266230   0.394   4.577  13.427  0.2732  1.2918 -0.3376
14939TIP3   OH266231   6.352   4.480  16.565 -0.9749  0.3792  0.2034
14939TIP3    H166232   6.337   4.519  16.479 -1.2708  2.5033  1.1693
14939TIP3    H266233   6.266   4.446  16.592 -1.2973  1.3578  0.4258
14940TIP3   OH266234   0.557   3.707  12.859  0.3817  0.3409 -0.6364
14940TIP3    H166235   0.556   3.697  12.763  0.9720 -0.7574 -0.5323
14940TIP3    H266236   0.648   3.696  12.884  0.4639  2.1707 -0.0870
14941TIP3   OH266237   2.541   2.896   0.373 -0.4170  0.5558  0.2712
14941TIP3    H166238   2.549   2.929   0.284  0.4638 -1.4409 -0.4308
14941TIP3    H266239   2.631   2.878   0.401 -0.8307 -0.8950  0.7305
14942TIP3   OH266240   5.480   2.068  14.438 -1.1869  0.0590 -0.5092
14942TIP3    H166241   5.539   2.019  14.381  0.1224  1.3255 -0.2823
14942TIP3    H266242   5.516   2.157  14.439 -2.9568  0.7971 -0.1487
14943TIP3   OH266243   0.705   4.182  13.156  0.5865  0.2386  0.0090
14943TIP3    H166244   0.778   4.125  13.183  0.6113  1.2392  2.2221
14943TIP3    H266245   0.628   4.142  13.198  0.0722 -0.0427 -1.1976
14944TIP3   OH266246   4.886   4.894   4.854  0.0720 -0.6408  0.2273
14944TIP3    H166247   4.911   4.817   4.906  0.1449 -0.1590  0.9166
14944TIP3    H266248   4.826   4.943   4.911  0.5183  0.1314  0.0389
14945TIP3   OH266249   1.686   2.648   1.343 -0.0233 -0.9672 -0.2767
14945TIP3    H166250   1.697   2.742   1.360 -1.6397 -1.0357  1.3603
14945TIP3    H266251   1.709   2.606   1.426 -0.1628 -1.9411 -0.7221
14946TIP3   OH266252   0.092   3.737  15.345 -0.2268 -0.4170  0.0337
14946TIP3    H166253   0.170   3.720  15.291  0.1968  0.7168  0.2796
14946TIP3    H266254   0.066   3.650  15.377 -0.4883 -1.1131 -1.9733
14947TIP3   OH266255   3.399   1.266   2.587  0.1806 -0.5389 -0.3505
14947TIP3    H166256   3.385   1.295   2.497  0.0666  1.4646  0.2831
14947TIP3    H266257   3.487   1.228   2.587 -0.3035 -1.7005 -1.5616
14948TIP3   OH266258   3.438   2.891   1.077  0.4175  0.6576 -0.0775
14948TIP3    H166259   3.360   2.911   1.025  1.0872  2.4717 -0.4142
14948TIP3    H266260   3.511   2.898   1.016  0.9291 -0.3144  0.4047
14949TIP3   OH266261   0.879   2.128   4.384  0.0382  0.0161  0.2254
14949TIP3    H166262   0.907   2.144   4.474 -0.5592 -1.5928  0.7306
14949TIP3    H266263   0.811   2.193   4.367  0.2258  0.3865  0.8978
14950TIP3   OH266264   2.429   2.253  13.435  0.0116 -0.7272 -0.2025
14950TIP3    H166265   2.515   2.256  13.477 -0.6883 -0.4287  1.2497
14950TIP3    H266266   2.416   2.341  13.399  1.4393 -1.5258 -2.8077
14951TIP3   OH266267   4.290   2.706   2.715  0.1830 -0.0313  0.5302
14951TIP3    H166268   4.368   2.748   2.679 -1.0430 -0.1027 -2.3183
14951TIP3    H266269   4.267   2.761   2.790  1.3534  1.6186 -0.2743
14952TIP3   OH266270   3.842   5.543  15.850  0.0864  0.1304 -0.5162
14952TIP3    H166271   3.749   5.539  15.874 -0.3205 -2.1640 -2.3081
14952TIP3    H266272   3.883   5.473  15.900  0.8836  1.1920  0.3309
14953TIP3   OH266273   1.389   2.825   3.477  0.7614  0.8360  0.2042
14953TIP3    H166274   1.447   2.751   3.496 -1.4605 -0.6066  1.5406
14953TIP3    H266275   1.302   2.786   3.468  0.0609  2.8569 -2.5290
14954TIP3   OH266276   2.514   4.340  16.922 -0.0585 -0.1792  0.5159
14954TIP3    H166277   2.610   4.329  16.921  0.1231  1.4743 -1.0048
14954TIP3    H266278   2.480   4.251  16.909  1.2187 -1.1134  3.0678
14955TIP3   OH266279   6.204   3.746  14.893  0.1227  0.2342  0.3659
14955TIP3    H166280   6.114   3.714  14.905  0.5513 -0.0526  3.1666
14955TIP3    H266281   6.227   3.721  14.804 -1.6098 -2.1536  0.5375
14956TIP3   OH266282   6.633   2.438   3.370 -0.2433  0.1087 -0.1539
14956TIP3    H166283   6.707   2.428   3.310 -0.6806 -3.0095 -0.2470
14956TIP3    H266284   6.669   2.413   3.455 -0.8217 -0.0854  0.0321
14957TIP3   OH266285   0.058   4.931   2.588 -0.1772 -0.1289 -0.4847
14957TIP3    H166286   0.035   4.840   2.568  1.2528 -0.8865  1.2195
14957TIP3    H266287   0.086   4.968   2.504  0.0327 -1.5074 -1.0310
14958TIP3   OH266288   0.977   2.886  16.632  0.1185 -0.1823 -0.3176
14958TIP3    H166289   1.055   2.929  16.598  0.5290  0.5994  1.5614
14958TIP3    H266290   0.946   2.943  16.702 -0.3558 -2.0092  1.0235
14959TIP3   OH266291   5.861   6.566   1.167 -0.6027 -0.4663 -0.1564
14959TIP3    H166292   5.854   6.473   1.145  0.4220 -0.5040 -0.3444
14959TIP3    H266293   5.843   6.611   1.085 -0.8308 -0.5105 -0.1297
14960TIP3   OH266294   1.065   0.205  15.997  0.2206  0.3516  0.0137
14960TIP3    H166295   1.158   0.225  15.994  0.3715 -0.5033 -1.7239
14960TIP3    H266296   1.056   0.124  15.945 -1.6799  1.2529 -1.1200
14961TIP3   OH266297   1.942   5.265   5.436  0.2552 -0.3720  0.5061
14961TIP3    H166298   1.864   5.307   5.474 -0.4909 -0.0502 -1.3361
14961TIP3    H266299   1.995   5.337   5.403  0.2700 -0.7090 -0.2270
14962TIP3   OH266300   0.835   3.316  16.171  0.3650 -0.1577 -0.5817
14962TIP3    H166301   0.915   3.331  16.223  0.4775 -1.3964 -0.3806
14962TIP3    H266302   0.768   3.367  16.216  0.8035  0.0200 -0.1153
14963TIP3   OH266303   4.496   6.451   3.290  0.1842 -0.0810  0.0368
14963TIP3    H166304   4.450   6.489   3.365 -1.1784 -0.5477 -0.5411
14963TIP3    H266305   4.473   6.507   3.216 -0.5966 -1.1158 -0.5246
14964TIP3   OH266306   3.635   1.151  11.500  0.5073 -0.2498 -0.2356
14964TIP3    H166307   3.647   1.233  11.452  2.1690 -0.9198 -0.9924
14964TIP3    H266308   3.563   1.169  11.561  0.4001  1.5458 -0.8739
14965TIP3   OH266309   5.807   2.901  14.592 -0.2381 -0.3119 -0.2184
14965TIP3    H166310   5.763   2.983  14.616 -0.1141 -0.0354 -0.9296
14965TIP3    H266311   5.898   2.927  14.574 -0.5117 -0.3915 -1.7495
14966TIP3   OH266312   2.457   6.618   2.259  0.2587  0.7140  0.5209
14966TIP3    H166313   2.463   6.710   2.231  1.2380 -0.1587 -2.2656
14966TIP3    H266314   2.368   6.592   2.237  0.1710  0.7952  0.7682
14967TIP3   OH266315   1.414   1.022   5.281 -0.5976  0.1336 -0.0092
14967TIP3    H166316   1.476   1.043   5.211  0.5361  0.2825  1.0404
14967TIP3    H266317   1.330   1.054   5.247  0.5513  3.7524  0.2832
14968TIP3   OH266318   0.833   2.263  15.628  0.1033  0.3241  0.0346
14968TIP3    H166319   0.854   2.344  15.581  0.8208 -0.0161 -0.2290
14968TIP3    H266320   0.766   2.221  15.574 -0.5091  0.8893  0.3363
14969TIP3   OH266321   0.734   5.268  11.706 -0.0720  0.0798 -0.4999
14969TIP3    H166322   0.644   5.238  11.697 -0.5833  1.3453  0.2579
14969TIP3    H266323   0.727   5.352  11.752  1.6935 -1.1324  2.0903
14970TIP3   OH266324   2.118   2.477  12.249 -0.5848  0.1317  0.5151
14970TIP3    H166325   2.185   2.463  12.316  0.1472  0.5778 -0.1174
14970TIP3    H266326   2.109   2.393  12.206 -0.4722  0.0576  0.6345
14971TIP3   OH266327   5.762   0.594  11.885  0.0175  0.5391 -0.4695
14971TIP3    H166328   5.762   0.499  11.897 -1.7323  0.3403 -1.7455
14971TIP3    H266329   5.845   0.624  11.921  1.1582 -1.6308 -1.2737
14972TIP3   OH266330   5.273   6.598  16.313 -0.3192  0.5287  0.2418
14972TIP3    H166331   5.334   6.631  16.247  0.5063  1.0015  1.2249
14972TIP3    H266332   5.302   6.638  16.395 -2.1104  0.9579  0.6969
14973TIP3   OH266333   2.556   4.955  17.090  0.2061  0.0822  0.3239
14973TIP3    H166334   2.601   5.019  17.034  0.6283 -1.0997 -0.7054
14973TIP3    H266335   2.463   4.970  17.073  0.3369 -0.4252 -0.8834
14974TIP3   OH266336   3.794   1.361   0.070  0.1591  0.6155 -0.3313
14974TIP3    H166337   3.829   1.447   0.045  0.4815  0.4298 -0.5213
14974TIP3    H266338   3.798   1.309  -0.010  1.1990  0.0183  0.0926
14975TIP3   OH266339   4.882   0.480  14.206 -0.1068  0.5478  0.2732
14975TIP3    H166340   4.825   0.414  14.167  2.9651 -2.8210  1.2992
14975TIP3    H266341   4.913   0.531  14.131 -1.0048 -0.3476 -0.7339
14976TIP3   OH266342   2.476   0.851  11.029  0.4771  0.7024 -0.0374
14976TIP3    H166343   2.513   0.934  10.998 -0.1271  1.7149  1.8673
14976TIP3    H266344   2.552   0.800  11.056  0.6584  2.0112  2.0291
14977TIP3   OH266345   1.099   2.011   0.613 -0.0524  0.0795  0.5892
14977TIP3    H166346   1.024   2.036   0.667 -1.3774 -0.5254 -0.9189
14977TIP3    H266347   1.136   2.094   0.583  0.2698  0.3985  1.8307
14978TIP3   OH266348   0.343   2.846   5.212 -0.2609  0.1162 -0.0093
14978TIP3    H166349   0.345   2.917   5.276 -3.8681 -0.1512  0.5125
14978TIP3    H266350   0.392   2.879   5.137 -1.4011  2.9467  0.4405
14979TIP3   OH266351   4.565   4.079  13.432 -0.1749 -0.0746 -0.2889
14979TIP3    H166352   4.610   4.008  13.477 -1.2213 -0.7204 -0.2434
14979TIP3    H266353   4.589   4.157  13.481 -0.7042 -0.6680  0.9495
14980TIP3   OH266354   3.748   5.054   4.153 -0.7205 -0.3744 -0.2877
14980TIP3    H166355   3.757   4.963   4.179  0.1108 -0.1128  0.3631
14980TIP3    H266356   3.719   5.100   4.232 -0.1122  0.0891 -0.3202
14981TIP3   OH266357   6.720   4.585   2.896  0.0652 -0.3601 -0.5645
14981TIP3    H166358   6.683   4.603   2.982  1.5279 -1.2810  0.2914
14981TIP3    H266359   6.662   4.521   2.857  0.6336 -1.6604  0.6887
14982TIP3   OH266360   4.286   1.286   3.306  0.0381 -0.3810 -0.0396
14982TIP3    H166361   4.308   1.215   3.246  0.7236 -0.8030  0.6964
14982TIP3    H266362   4.190   1.293   3.301  0.2364  0.8136 -2.5345
14983TIP3   OH266363   4.478   3.603  13.816  0.1232 -0.0908 -0.1256
14983TIP3    H166364   4.508   3.590  13.726 -1.0548 -0.4149 -0.4751
14983TIP3    H266365   4.418   3.531  13.832  0.3314 -0.0408  0.9328
14984TIP3   OH266366   0.267   6.540   0.993 -0.1667  0.2515 -0.1369
14984TIP3    H166367   0.339   6.601   1.002 -0.2133  0.2580  0.1947
14984TIP3    H266368   0.280   6.499   0.907  0.3641  0.0768  0.0271
14985TIP3   OH266369   5.778   0.065  16.852  0.3054 -0.5517 -0.4502
14985TIP3    H166370   5.688   0.086  16.828  0.1109 -1.5056 -0.5848
14985TIP3    H266371   5.828   0.144  16.830 -0.5633  0.1308  0.0163
14986TIP3   OH266372   6.098   4.790   4.781  0.0347  0.2595  0.5662
14986TIP3    H166373   6.143   4.711   4.751 -0.0002  0.7458 -0.7827
14986TIP3    H266374   6.023   4.757   4.831  0.8325 -0.5490  1.2540
14987TIP3   OH266375   2.960   0.255   1.473 -0.0366  0.3942 -0.6387
14987TIP3    H166376   2.880   0.259   1.525  1.8175  1.8721  2.2495
14987TIP3    H266377   2.958   0.333   1.418 -0.4571  0.5878 -0.3497
14988TIP3   OH266378   3.132   5.729   4.807  0.1372 -0.7893 -0.2034
14988TIP3    H166379   3.119   5.694   4.894 -2.5292 -2.2954 -1.1670
14988TIP3    H266380   3.078   5.808   4.804  0.7198 -0.3848 -0.3048
14989TIP3   OH266381   3.290   5.616  11.401  0.1080  0.0863  0.0593
14989TIP3    H166382   3.219   5.579  11.348  0.6443 -2.9314  1.3528
14989TIP3    H266383   3.362   5.555  11.390  1.7198  1.8274  0.7297
14990TIP3   OH266384   2.348   0.352  14.774  0.0095 -0.1070 -0.0686
14990TIP3    H166385   2.288   0.390  14.710  0.8915 -0.1783 -0.9401
14990TIP3    H266386   2.423   0.412  14.777  0.1220 -0.2720  0.6615
14991TIP3   OH266387   6.113   2.217  16.538  0.4201  0.2726  0.1382
14991TIP3    H166388   6.074   2.247  16.620 -1.0444 -0.5635 -0.2371
14991TIP3    H266389   6.079   2.128  16.526  2.4359 -0.4655 -0.2078
14992TIP3   OH266390   5.523   3.254  12.359  0.9998  0.3373  0.1466
14992TIP3    H166391   5.615   3.254  12.389  0.7258 -2.0162  1.1014
14992TIP3    H266392   5.481   3.188  12.413 -1.6827  2.5561  0.8661
14993TIP3   OH266393   3.824   0.423   4.566  0.2292 -0.1395 -0.4846
14993TIP3    H166394   3.759   0.444   4.499 -0.5083  0.2312  0.3313
14993TIP3    H266395   3.811   0.329   4.583  0.2222 -0.1693 -0.6550
14994TIP3   OH266396   0.021   1.538  12.408  0.0138 -0.6094  0.0439
14994TIP3    H166397   0.101   1.526  12.356 -0.3024 -1.4040 -0.2676
14994TIP3    H266398   0.031   1.477  12.481  1.3014  1.7934  1.9723
14995TIP3   OH266399   6.454   3.119   1.492 -0.4504  0.4641 -0.4479
14995TIP3    H166400   6.549   3.121   1.499 -0.5689  0.8691  1.1885
14995TIP3    H266401   6.428   3.038   1.537 -0.8182 -0.1665 -1.7703
14996TIP3   OH266402   6.177   1.659  11.959  0.2851  0.1240 -0.6218
14996TIP3    H166403   6.236   1.584  11.973  0.7636  1.1470  3.6495
14996TIP3    H266404   6.089   1.622  11.967  0.5001 -0.2067  0.2704
14997TIP3   OH266405   5.406   5.976  17.059 -0.3029 -0.2816 -0.0561
14997TIP3    H166406   5.354   5.928  16.994 -0.9347  0.1438  0.1354
14997TIP3    H266407   5.347   6.043  17.093  1.1042  1.9507 -1.7463
14998TIP3   OH266408   1.270   2.842  11.326 -0.6802 -0.3234  0.1045
14998TIP3    H166409   1.342   2.894  11.290  0.0742 -1.1581  0.3621
14998TIP3    H266410   1.191   2.885  11.294 -0.0841  1.1393  0.5524
14999TIP3   OH266411   5.227   0.924   2.210 -0.6084 -0.3734  0.1409
14999TIP3    H166412   5.309   0.875   2.204 -0.7834 -0.6363 -0.1454
14999TIP3    H266413   5.254   1.016   2.206 -0.2392 -0.4318  1.1972
15000TIP3   OH266414   5.703   2.864   0.873  0.2496 -0.2670  0.2782
15000TIP3    H166415   5.681   2.790   0.930 -3.7256 -0.0356 -0.8246
15000TIP3    H266416   5.768   2.829   0.812  0.0481 -2.2322  1.1481
15001TIP3   OH266417   5.510   1.803   1.342  0.0967  0.4595  0.3186
15001TIP3    H166418   5.465   1.870   1.395  0.7542  0.1291  1.3017
15001TIP3    H266419   5.603   1.814   1.364  0.4855  0.9271 -1.4653
15002TIP3   OH266420   5.263   5.226   3.465 -0.3546 -0.4103  0.2611
15002TIP3    H166421   5.194   5.237   3.530  0.0763 -2.3432  1.0657
15002TIP3    H266422   5.343   5.250   3.511 -0.5398  2.9215 -0.9891
15003TIP3   OH266423   1.073   6.438   5.991 -0.0407  0.2218 -0.9420
15003TIP3    H166424   1.132   6.511   6.011  0.2326 -0.1985 -0.2120
15003TIP3    H266425   1.124   6.381   5.933  0.7122 -0.7430  0.6319
15004TIP3   OH266426   5.965   5.977  13.195  0.6920  0.0299 -0.5277
15004TIP3    H166427   5.985   5.999  13.104 -1.2936  0.0781 -0.9740
15004TIP3    H266428   5.958   6.062  13.239 -0.1659  0.0658 -0.7348
15005TIP3   OH266429   4.556   3.427   5.119 -0.3119  0.4526 -0.0655
15005TIP3    H166430   4.640   3.395   5.152  0.4077  1.1308 -1.1997
15005TIP3    H266431   4.515   3.350   5.079 -0.1944  0.1371  0.4271
15006TIP3   OH266432   0.468   6.007   3.838 -0.0197 -0.1403  0.0455
15006TIP3    H166433   0.455   6.001   3.743  0.5404  0.4249 -0.0718
15006TIP3    H266434   0.484   5.917   3.865  1.0937 -0.1433 -0.5910
15007TIP3   OH266435   6.643   4.137   4.645  0.5649  0.0709  0.1966
15007TIP3    H166436   6.700   4.063   4.623  0.3809 -0.2957  0.9123
15007TIP3    H266437   6.602   4.111   4.727 -0.0765  0.6515  0.0620
15008TIP3   OH266438   1.969   4.678   4.989  0.0026  0.6886 -0.4669
15008TIP3    H166439   1.965   4.769   5.017  2.5949  0.2345  1.5313
15008TIP3    H266440   2.051   4.671   4.941 -0.2935 -0.5575 -0.8124
15009TIP3   OH266441   6.315   2.666   1.189 -0.6390 -0.3939 -1.1789
15009TIP3    H166442   6.337   2.590   1.136 -1.6716 -0.4432 -1.5497
15009TIP3    H266443   6.259   2.632   1.259  0.6447 -0.3164 -0.0932
15010TIP3   OH266444   3.326   6.014   5.625  0.0265  0.3123 -0.5669
15010TIP3    H166445   3.328   6.107   5.646 -0.2124  0.3994 -0.9195
15010TIP3    H266446   3.324   5.969   5.710  0.1219  0.6265 -0.3998
15011TIP3   OH266447   6.228   2.560   1.672  0.1734  0.3094  0.0421
15011TIP3    H166448   6.193   2.531   1.757  0.2394 -2.2516 -0.7389
15011TIP3    H266449   6.323   2.556   1.682  0.1803 -0.3522 -0.2475
15012TIP3   OH266450   3.547   3.593   2.910  0.6699  0.0170 -0.0274
15012TIP3    H166451   3.632   3.595   2.955 -0.1739 -1.7469  1.6900
15012TIP3    H266452   3.547   3.511   2.862  1.0895  1.3609 -2.4233
15013TIP3   OH266453   1.892   1.961   3.032  0.2183 -0.3652 -0.1207
15013TIP3    H166454   1.839   1.886   3.007 -1.9459  0.9493  0.4477
15013TIP3    H266455   1.943   1.982   2.954  1.0283 -2.5533 -0.2019
15014TIP3   OH266456   1.819   1.627  11.102  0.2055  0.2476 -0.4209
15014TIP3    H166457   1.843   1.643  11.194 -1.6371 -0.4477  0.1983
15014TIP3    H266458   1.816   1.714  11.063  4.0771  0.3740 -0.6569
15015TIP3   OH266459   6.587   2.349   4.077  0.2707  0.3736  0.1610
15015TIP3    H166460   6.615   2.438   4.101  0.7441 -0.0961  1.3929
15015TIP3    H266461   6.668   2.306   4.048 -0.0312  0.4585 -0.8442
15016TIP3   OH266462   4.425   5.774  16.202 -0.1060  0.3145  0.2933
15016TIP3    H166463   4.496   5.796  16.262 -0.3953  0.4191  0.6012
15016TIP3    H266464   4.441   5.829  16.125 -0.1727  0.7631  0.5940
15017TIP3   OH266465   5.949   2.272   4.076 -0.2397 -0.7252 -0.2763
15017TIP3    H166466   6.040   2.241   4.076 -0.3122 -0.9380 -0.0624
15017TIP3    H266467   5.920   2.260   4.166 -0.7685 -1.5127 -0.5435
15018TIP3   OH266468   5.130   4.993   3.455 -0.6621 -0.1288  0.0517
15018TIP3    H166469   5.223   5.015   3.449 -0.6276  0.1851  1.5444
15018TIP3    H266470   5.098   5.044   3.530 -1.6098 -1.6344  0.6928
15019TIP3   OH266471   1.299   2.349  13.891  0.3923  0.1260  0.4342
15019TIP3    H166472   1.383   2.350  13.845  0.7990 -1.6967  1.0768
15019TIP3    H266473   1.321   2.369  13.982  0.2589 -1.0480  0.7443
15020TIP3   OH266474   1.160   3.280  10.845 -0.3578 -0.2666 -0.0940
15020TIP3    H166475   1.100   3.208  10.826  1.3048 -2.3359  2.2445
15020TIP3    H266476   1.220   3.282  10.771 -1.4236 -0.1737 -0.9699
15021TIP3   OH266477   4.016   2.239  14.073 -0.1138 -0.0661  0.1379
15021TIP3    H166478   4.011   2.159  14.125 -0.2675 -0.0019  0.2213
15021TIP3    H266479   3.984   2.308  14.131  1.6712  0.3442  0.6672
15022TIP3   OH266480   5.801   1.541  16.889  0.1129  0.3213 -0.5344
15022TIP3    H166481   5.862   1.608  16.922  1.5741 -1.3140  0.1373
15022TIP3    H266482   5.736   1.532  16.958  0.9891 -0.2962  0.2319
15023TIP3   OH266483   1.741   1.341   6.180  0.2008  0.2244 -0.0410
15023TIP3    H166484   1.725   1.379   6.094  0.4928  1.5854  0.4956
15023TIP3    H266485   1.788   1.259   6.162 -0.9756 -0.2049 -1.2318
15024TIP3   OH266486   2.037   1.924  15.354  0.2145 -0.3628  0.3264
15024TIP3    H166487   1.961   1.892  15.402  0.4419 -0.1853  0.8061
15024TIP3    H266488   2.112   1.906  15.411  0.4090  0.5139  0.3650
15025TIP3   OH266489   4.387   2.703  13.143  0.6966 -0.6154  0.0548
15025TIP3    H166490   4.456   2.728  13.081 -0.1862  0.8305 -0.3836
15025TIP3    H266491   4.306   2.720  13.096  0.0127  0.5337  1.6130
15026TIP3   OH266492   2.919   2.360  13.211 -0.1220  0.9530 -0.7488
15026TIP3    H166493   2.871   2.410  13.277 -0.2209  0.2970 -0.3200
15026TIP3    H266494   2.851   2.324  13.154 -0.1928 -0.3516  0.1212
15027TIP3   OH266495   4.179   3.558  17.211 -0.0916  0.2146 -0.4302
15027TIP3    H166496   4.154   3.563  17.118  2.4124  0.1077 -1.1380
15027TIP3    H266497   4.217   3.644  17.230  0.8817 -0.3277  0.0577
15028TIP3   OH266498   6.279   0.668   2.959 -0.4116  0.5109 -0.4776
15028TIP3    H166499   6.314   0.739   2.905  1.3472 -0.8101 -1.1307
15028TIP3    H266500   6.212   0.627   2.904  0.1467  0.2693 -0.9852
15029TIP3   OH266501   4.163   5.841   0.598  0.1681 -0.6534  0.4181
15029TIP3    H166502   4.123   5.826   0.684 -1.1252  0.8850  0.1012
15029TIP3    H266503   4.206   5.926   0.605  1.3657 -1.2091 -0.0047
15030TIP3   OH266504   0.250   2.298   2.641 -0.3335 -0.3186  1.0758
15030TIP3    H166505   0.294   2.214   2.651 -1.0215 -0.6342  1.5023
15030TIP3    H266506   0.309   2.349   2.585 -1.3773 -2.1431 -1.8043
15031TIP3   OH266507   6.482   6.483  12.015 -0.3040 -0.3739 -0.0625
15031TIP3    H166508   6.423   6.556  11.995 -0.7960 -0.5693  0.6693
15031TIP3    H266509   6.554   6.494  11.954  0.5498  1.8132  1.2923
15032TIP3   OH266510   1.235   1.107  16.767  0.3957 -0.1540  0.2077
15032TIP3    H166511   1.205   1.098  16.676  1.2033  0.4647 -0.1217
15032TIP3    H266512   1.248   1.201  16.779  2.7040 -0.4515  0.1723
15033TIP3   OH266513   1.962   1.473  13.338  1.0071  0.1338 -0.0884
15033TIP3    H166514   2.036   1.527  13.364  0.5730  0.0098  1.4857
15033TIP3    H266515   1.886   1.514  13.379  0.3270 -0.2223 -0.9770
15034TIP3   OH266516   2.639   0.447   0.016  0.3622 -0.3217  0.2854
15034TIP3    H166517   2.688   0.413   0.091 -0.3330  0.4743  1.1147
15034TIP3    H266518   2.698   0.512  -0.023  0.0914  0.4579  1.1393
15035TIP3   OH266519   2.220   3.612   0.206 -0.6570  0.1907 -0.1857
15035TIP3    H166520   2.171   3.686   0.172 -0.6452  0.9597  1.4206
15035TIP3    H266521   2.164   3.575   0.275 -0.0027 -0.3487  0.0685
15036TIP3   OH266522   4.067   4.410   1.463  0.2489 -0.0742  0.1319
15036TIP3    H166523   4.055   4.321   1.431  1.1562 -0.1379 -0.0655
15036TIP3    H266524   3.981   4.450   1.458  0.3158 -0.1317 -2.2471
15037TIP3   OH266525   1.823   4.606   0.755  0.6598  0.6469 -0.3563
15037TIP3    H166526   1.793   4.622   0.665 -2.3357  2.6201  0.9194
15037TIP3    H266527   1.840   4.512   0.758  0.9328  0.5699 -3.0196
15038TIP3   OH266528   0.092   5.671   0.308  0.5905  0.2625 -0.0064
15038TIP3    H166529   0.022   5.622   0.352  0.1008  0.4661 -0.5498
15038TIP3    H266530   0.062   5.762   0.309  1.2049  0.4655  0.4366
15039TIP3   OH266531   5.666   2.740  12.287 -0.3112  0.3728 -0.2822
15039TIP3    H166532   5.673   2.792  12.367  0.8070  1.0074 -0.7816
15039TIP3    H266533   5.596   2.782  12.238 -0.2996  0.6179 -0.0928
15040TIP3   OH266534   5.201   2.759  12.031 -0.0324  0.1773  0.3543
15040TIP3    H166535   5.137   2.688  12.036 -1.2153  1.0908 -1.1883
15040TIP3    H266536   5.168   2.825  12.092 -0.0153  0.2151  0.3233
15041TIP3   OH266537   6.229   2.231  13.812 -0.4199 -0.1134  0.0425
15041TIP3    H166538   6.186   2.152  13.779 -0.3140 -0.7703  1.4604
15041TIP3    H266539   6.317   2.203  13.834 -0.2153  0.5314  0.0543
15042TIP3   OH266540   2.243   3.061   1.588  0.3645  0.3784 -0.2776
15042TIP3    H166541   2.259   3.141   1.638 -0.2258  0.1049  0.3526
15042TIP3    H266542   2.199   3.091   1.508 -1.3262  0.5325  0.6895
15043TIP3   OH266543   5.541   3.570   4.279 -0.4614  0.2975 -0.8471
15043TIP3    H166544   5.486   3.648   4.277 -1.2487 -0.2734 -3.3186
15043TIP3    H266545   5.480   3.497   4.287  0.1432 -0.1695 -0.4256
15044TIP3   OH266546   2.112   3.002   0.083 -0.3582 -0.5689  0.5546
15044TIP3    H166547   2.147   3.079   0.039  2.1059 -1.6043  0.5958
15044TIP3    H266548   2.190   2.952   0.109 -1.8838 -2.9770  0.6591
15045TIP3   OH266549   6.027   5.767   3.715 -0.0736 -0.2066 -0.1786
15045TIP3    H166550   6.038   5.858   3.688 -0.3300 -0.4467 -1.0859
15045TIP3    H266551   5.934   5.749   3.700 -0.0666 -0.5650  0.1821
15046TIP3   OH266552   3.612   3.923   3.596 -0.5335  0.0781 -0.2710
15046TIP3    H166553   3.581   3.836   3.571 -0.2806 -0.0247 -0.2332
15046TIP3    H266554   3.545   3.983   3.563 -0.0104 -0.0252 -1.5626
15047TIP3   OH266555   1.971   4.342   5.841  0.5820  0.3934  0.1971
15047TIP3    H166556   1.949   4.343   5.934  0.3598  0.4174  0.1430
15047TIP3    H266557   2.064   4.318   5.839  0.5849  0.3865  0.4242
15048TIP3   OH266558   6.152   0.853  14.013 -0.3462 -0.3133  0.7136
15048TIP3    H166559   6.092   0.916  14.053 -1.0236  0.2166 -1.0894
15048TIP3    H266560   6.098   0.803  13.952  0.9974  0.0638 -0.8156
15049TIP3   OH266561   5.371   6.481   1.682  0.2961 -0.0238  0.1333
15049TIP3    H166562   5.439   6.420   1.712  0.4523 -0.9310 -1.9830
15049TIP3    H266563   5.412   6.530   1.612 -0.4606  1.2021  0.5355
15050TIP3   OH266564   6.566   3.580   1.944 -0.0271  0.2047  0.5515
15050TIP3    H166565   6.511   3.558   1.869  0.5457  0.7037 -0.0187
15050TIP3    H266566   6.505   3.614   2.009 -0.3852  0.9137 -0.1428
15051TIP3   OH266567   2.889   1.801   2.015 -0.0785 -0.2867  0.1134
15051TIP3    H166568   2.912   1.710   2.031 -1.4341 -0.2671  2.4551
15051TIP3    H266569   2.855   1.832   2.099  0.5155  2.4256 -0.6074
15052TIP3   OH266570   4.534   2.946   2.676  0.5720 -0.4342 -0.5662
15052TIP3    H166571   4.513   2.877   2.613  0.0665 -1.1353  0.3612
15052TIP3    H266572   4.581   2.901   2.747  2.6438  0.6280 -1.2160
15053TIP3   OH266573   4.675   5.535  11.756 -0.1500 -0.2384  0.0555
15053TIP3    H166574   4.607   5.601  11.745  1.6380  1.7031  0.1765
15053TIP3    H266575   4.707   5.519  11.667  0.3592  0.1283  0.1666
15054TIP3   OH266576   3.364   2.351   5.873 -0.2035 -0.2404  0.9114
15054TIP3    H166577   3.346   2.272   5.924  0.1701 -0.5777  0.5247
15054TIP3    H266578   3.452   2.377   5.901 -1.0845  1.1541  2.4762
15055TIP3   OH266579   1.623   6.303   5.637 -0.5302 -0.0392 -0.7510
15055TIP3    H166580   1.710   6.274   5.663 -0.9811 -1.7274 -1.0210
15055TIP3    H266581   1.604   6.254   5.557 -1.9490 -0.1219 -0.3885
15056TIP3   OH266582   3.724   4.784   4.263 -0.2397 -0.4088  0.4371
15056TIP3    H166583   3.772   4.732   4.327  2.5940  1.4614 -0.0498
15056TIP3    H266584   3.708   4.725   4.190  4.0847 -0.3564 -0.6792
15057TIP3   OH266585   4.664   6.545   4.837  1.0258 -0.1127 -0.0401
15057TIP3    H166586   4.655   6.639   4.849 -0.1244  0.2080 -2.9197
15057TIP3    H266587   4.586   6.508   4.879  0.5251  0.3883 -0.5120
15058TIP3   OH266588   4.543   3.638  15.848 -0.3329  0.3341 -0.3654
15058TIP3    H166589   4.611   3.573  15.832 -0.1489  0.0049  1.6088
15058TIP3    H266590   4.587   3.722  15.835 -0.3076  0.0949 -1.9031
15059TIP3   OH266591   4.199   3.186  11.125  0.1968 -0.1632  0.7919
15059TIP3    H166592   4.155   3.131  11.060 -1.1792 -0.1434  1.6847
15059TIP3    H266593   4.205   3.131  11.203  1.6340 -0.1095  0.7403
15060TIP3   OH266594   4.316   5.268   0.093 -0.7884  0.0330  0.0961
15060TIP3    H166595   4.368   5.253   0.172  0.1459 -1.4636 -0.7983
15060TIP3    H266596   4.373   5.319   0.036 -1.6062  1.4552  0.5211
15061TIP3   OH266597   4.478   5.997   5.960 -0.1575  0.2373  0.6330
15061TIP3    H166598   4.382   5.996   5.966 -0.2070  0.6177 -0.0524
15061TIP3    H266599   4.497   5.936   5.889  0.0427  1.1185 -0.0762
15062TIP3   OH266600   2.065   6.476  15.054 -0.4297 -0.3180  0.1876
15062TIP3    H166601   2.034   6.518  15.134  0.2878  1.0348 -0.2377
15062TIP3    H266602   2.076   6.548  14.992  1.6424 -1.0174 -0.2920
15063TIP3   OH266603   2.100   2.589   0.022 -0.1566  0.4000  0.6473
15063TIP3    H166604   2.176   2.644   0.004  0.6213 -1.0688 -0.5891
15063TIP3    H266605   2.072   2.558  -0.064 -1.1383 -0.4129  1.2586
15064TIP3   OH266606   3.021   5.614   6.057 -0.4930 -0.1704 -0.3072
15064TIP3    H166607   3.019   5.609   6.153 -1.7409  1.5925 -0.2003
15064TIP3    H266608   3.100   5.567   6.032  0.8198  0.8946  1.7065
15065TIP3   OH266609   6.200   2.593  16.004 -0.0677  0.0562 -0.0775
15065TIP3    H166610   6.138   2.525  16.032  0.0101  0.1983  0.4347
15065TIP3    H266611   6.148   2.650  15.948 -0.2799 -0.0925 -0.0318
15066TIP3   OH266612   5.467   6.587  13.240  0.1148 -0.0997  0.6914
15066TIP3    H166613   5.516   6.564  13.319  1.8339  1.6345  0.1623
15066TIP3    H266614   5.524   6.560  13.168 -1.4318 -1.6530  0.0126
15067TIP3   OH266615   5.108   5.153  13.543  0.4052  0.0684 -0.1989
15067TIP3    H166616   5.149   5.238  13.558 -1.8717  1.2371 -0.3511
15067TIP3    H266617   5.139   5.127  13.456 -3.2600  3.4893 -2.7049
15068TIP3   OH266618   1.406   1.157  16.378  0.1355 -0.0699  0.6788
15068TIP3    H166619   1.479   1.143  16.439  0.1791 -0.6824  0.4947
15068TIP3    H266620   1.337   1.196  16.431  0.0229 -0.9874  1.2155
15069TIP3   OH266621   2.316   4.038  12.927 -0.3479 -0.4269  0.0368
15069TIP3    H166622   2.276   4.089  12.997 -0.4885 -0.9712  0.3502
15069TIP3    H266623   2.298   4.088  12.847  1.5912  1.2731  0.6069
15070TIP3   OH266624   4.966   6.408   2.340 -0.9925  0.2108  0.2681
15070TIP3    H166625   4.901   6.354   2.295 -1.0604 -0.5501  1.2694
15070TIP3    H266626   5.049   6.364   2.324 -1.0502 -0.2082  1.1062
15071TIP3   OH266627   3.744   6.368  14.098 -0.0632 -0.9225  0.2645
15071TIP3    H166628   3.811   6.427  14.065  0.0022 -1.4536 -0.5533
15071TIP3    H266629   3.662   6.418  14.092 -0.0077 -0.9182 -0.4143
15072TIP3   OH266630   5.603   5.391   1.491  0.3670 -0.3484  0.6330
15072TIP3    H166631   5.677   5.354   1.539  0.6680  0.5314  0.8626
15072TIP3    H266632   5.610   5.354   1.403  0.0007 -1.7216  1.1708
15073TIP3   OH266633   6.733   5.180   2.126 -0.5979 -0.4916  0.5441
15073TIP3    H166634   6.823   5.160   2.098 -0.9913 -1.2893 -0.1771
15073TIP3    H266635   6.681   5.106   2.094 -1.8992  1.0870 -1.0833
15074TIP3   OH266636   2.778   6.592   5.507  0.0974 -0.3717 -0.5041
15074TIP3    H166637   2.731   6.576   5.588  0.7671 -0.9874 -0.2321
15074TIP3    H266638   2.757   6.683   5.485 -0.3450 -0.3034  0.1867
15075TIP3   OH266639   0.945   0.940  10.764 -0.2021 -0.6130 -0.0434
15075TIP3    H166640   0.926   0.865  10.820 -0.6035 -0.6681 -0.2485
15075TIP3    H266641   1.037   0.929  10.740 -0.9796 -2.5826 -2.3569
15076TIP3   OH266642   3.825   5.783  12.122 -0.3363 -0.6752  0.2378
15076TIP3    H166643   3.755   5.790  12.188 -0.2999 -2.1248  0.4426
15076TIP3    H266644   3.834   5.689  12.107 -2.3193 -0.3219 -3.9299
15077TIP3   OH266645   6.723   6.717   5.441  0.5339 -0.0070 -0.2318
15077TIP3    H166646   6.809   6.733   5.481 -0.3175  0.9117  1.2586
15077TIP3    H266647   6.736   6.638   5.388  2.1979 -0.0992  0.2693
15078TIP3   OH266648   0.947   0.492   0.868 -0.0884  0.7349 -0.1857
15078TIP3    H166649   1.033   0.470   0.905 -0.0026 -2.2083 -1.9615
15078TIP3    H266650   0.895   0.521   0.944  1.9454  0.9016  1.1743
15079TIP3   OH266651   4.038   2.344  16.662 -0.3271 -0.5624 -0.8364
15079TIP3    H166652   4.118   2.371  16.706 -0.1284 -1.0314 -0.9126
15079TIP3    H266653   3.999   2.279  16.720  0.2233 -1.5971 -1.6261
15080TIP3   OH266654   1.877   3.308   4.221  0.1292 -0.9172  0.8620
15080TIP3    H166655   1.878   3.404   4.218 -1.7304 -0.8918  0.3965
15080TIP3    H266656   1.933   3.281   4.149 -0.2164 -0.1667  0.3039
15081TIP3   OH266657   4.743   0.433  13.212 -0.0101  0.1405 -0.1974
15081TIP3    H166658   4.786   0.445  13.297 -0.4016 -1.6903  0.2822
15081TIP3    H266659   4.660   0.479  13.220  0.7359  1.5419 -0.2470
15082TIP3   OH266660   1.244   2.738  15.929 -0.1286 -0.2209  0.1669
15082TIP3    H166661   1.247   2.643  15.941 -0.4350 -0.3613 -0.8269
15082TIP3    H266662   1.328   2.769  15.963  0.3095 -0.9346 -0.2553
15083TIP3   OH266663   1.090   4.682  13.760  0.3731  0.5927  0.6500
15083TIP3    H166664   1.016   4.720  13.806 -0.3145 -0.6284  0.5964
15083TIP3    H266665   1.059   4.595  13.734  1.5856  0.3410  0.0135
15084TIP3   OH266666   4.813   0.224  16.383 -0.2751 -0.0242  0.1802
15084TIP3    H166667   4.737   0.220  16.441  0.8930 -0.3929  1.7261
15084TIP3    H266668   4.817   0.137  16.343  1.0024 -1.0022  2.3281
15085TIP3   OH266669   6.782   0.744   4.991  0.2666  0.3475 -0.2883
15085TIP3    H166670   6.740   0.687   4.926 -0.6886  1.8087 -0.9662
15085TIP3    H266671   6.814   0.818   4.941  0.6841  0.8627  0.7286
15086TIP3   OH266672   2.038   4.174   5.486  0.3440 -0.6062 -0.4514
15086TIP3    H166673   2.050   4.180   5.392  1.6810 -0.8690 -0.3077
15086TIP3    H266674   2.032   4.080   5.504  0.4361 -0.5719 -0.2357
15087TIP3   OH266675   4.955   3.236   1.933  0.5890  0.3914  0.1444
15087TIP3    H166676   4.927   3.321   1.898  1.0051 -0.3531 -2.1258
15087TIP3    H266677   4.946   3.176   1.859  1.6529 -1.2494  1.3097
15088TIP3   OH266678   3.435   4.288   2.253 -0.6449 -0.5127 -0.4311
15088TIP3    H166679   3.381   4.213   2.279 -0.7387 -0.5978 -0.8558
15088TIP3    H266680   3.390   4.323   2.175  0.9221 -1.7054 -1.9037
15089TIP3   OH266681   3.733   2.648   6.561 -0.0614  0.5533  0.2445
15089TIP3    H166682   3.717   2.686   6.475 -0.0242 -1.9630 -0.9032
15089TIP3    H266683   3.664   2.582   6.572  0.2186  0.5068  1.9459
15090TIP3   OH266684   0.674   2.446   2.189 -0.5056  0.2240  0.2526
15090TIP3    H166685   0.623   2.367   2.206 -2.9952  1.0091 -2.8680
15090TIP3    H266686   0.759   2.430   2.230 -2.4127 -2.1803  3.5317
15091TIP3   OH266687   6.014   2.513  14.366  0.3805  0.0182 -0.4266
15091TIP3    H166688   6.078   2.575  14.332 -1.7449  2.0810 -0.8593
15091TIP3    H266689   6.063   2.456  14.424  3.1582 -0.3894 -3.0487
15092TIP3   OH266690   2.269   4.163   0.915  0.0797 -0.1701 -0.5593
15092TIP3    H166691   2.194   4.177   0.857 -0.8857 -2.4178  0.0787
15092TIP3    H266692   2.308   4.082   0.883  0.9107 -0.1892  0.4894
15093TIP3   OH266693   4.675   5.630   0.321 -0.2178  0.0777 -0.0039
15093TIP3    H166694   4.720   5.577   0.387 -0.0857 -1.7616 -1.5285
15093TIP3    H266695   4.745   5.675   0.275 -0.2337  0.4680  0.3492
15094TIP3   OH266696   0.091   0.149  16.091  0.2787 -0.2015 -0.0206
15094TIP3    H166697   0.187   0.147  16.102  0.2171  0.7190  0.8034
15094TIP3    H266698   0.072   0.240  16.067 -0.4173 -0.3350  0.0244
15095TIP3   OH266699   0.163   1.335   0.641  0.6275 -0.5357  0.2390
15095TIP3    H166700   0.179   1.426   0.618  2.2185 -1.1666 -1.2393
15095TIP3    H266701   0.219   1.319   0.717 -0.2577 -0.0595  0.9914
15096TIP3   OH266702   4.850   4.125   2.768  0.8337 -0.1969  0.2793
15096TIP3    H166703   4.779   4.075   2.807  0.1562  0.3243 -0.2601
15096TIP3    H266704   4.904   4.060   2.723  1.7831 -0.8427  2.2664
15097TIP3   OH266705   3.999   6.477  15.558 -0.5750  0.5102  0.1290
15097TIP3    H166706   4.054   6.399  15.562 -1.9641 -0.5192 -0.3900
15097TIP3    H266707   4.014   6.521  15.641  0.3476 -0.2259  0.3596
15098TIP3   OH266708   0.297   5.969  14.508  0.6267 -0.1850 -0.6073
15098TIP3    H166709   0.346   5.886  14.511 -0.0868 -0.5885 -0.0528
15098TIP3    H266710   0.358   6.031  14.466  2.3298 -0.2213  1.6882
15099TIP3   OH266711   2.518   1.745   1.978  0.6468  0.6863 -0.2706
15099TIP3    H166712   2.545   1.688   1.906 -0.8640 -0.2666 -0.0910
15099TIP3    H266713   2.538   1.695   2.057 -1.2894  0.1300 -0.1270
15100TIP3   OH266714   2.671   6.033  15.160 -0.0469 -0.4878 -0.1150
15100TIP3    H166715   2.676   6.030  15.256 -1.9815 -1.5462 -0.0086
15100TIP3    H266716   2.648   6.124  15.141  0.4237 -0.2519  0.4239
15101TIP3   OH266717   6.646   2.710  11.610  1.0211 -0.7958  0.1922
15101TIP3    H166718   6.639   2.760  11.691  0.1196 -2.2523  1.0153
15101TIP3    H266719   6.735   2.730  11.578  0.6401  1.4477  0.3960
15102TIP3   OH266720   5.134   3.774  16.041 -0.1175  0.1905  0.1493
15102TIP3    H166721   5.118   3.868  16.048  1.2448  0.5617 -1.2836
15102TIP3    H266722   5.049   3.737  16.017 -0.4405  1.1964 -0.2878
15103TIP3   OH266723   1.894   1.612   0.975  0.4830 -0.0001  0.0325
15103TIP3    H166724   1.901   1.698   0.933  0.0361 -0.3984 -0.8750
15103TIP3    H266725   1.984   1.578   0.973  0.5415  0.1616 -0.2300
15104TIP3   OH266726   6.105   4.395  15.040  0.2243 -0.1357  0.9029
15104TIP3    H166727   6.144   4.320  14.996  0.6847  0.7061 -0.1279
15104TIP3    H266728   6.038   4.357  15.097 -0.6382 -1.2156 -0.7958
15105TIP3   OH266729   3.999   6.542   6.367  0.5000 -0.0956  0.1615
15105TIP3    H166730   3.953   6.625   6.382  1.1422  0.2681  0.1555
15105TIP3    H266731   4.028   6.547   6.276 -0.4068 -0.8089 -0.1767
15106TIP3   OH266732   0.261   1.029  11.489 -0.1095 -0.1484 -0.3683
15106TIP3    H166733   0.184   1.048  11.436 -0.8881  0.8826  1.0966
15106TIP3    H266734   0.316   1.107  11.480 -0.7712  0.5260  1.2211
15107TIP3   OH266735   5.346   3.375   4.294 -0.3873 -0.3789 -0.8029
15107TIP3    H166736   5.252   3.382   4.280 -0.6989 -0.4631  1.1196
15107TIP3    H266737   5.355   3.339   4.382  1.4350 -2.5776 -1.8368
15108TIP3   OH266738   1.868   0.576   2.714 -0.1202 -0.3872 -0.0050
15108TIP3    H166739   1.784   0.593   2.757 -0.2550 -0.2787 -0.3113
15108TIP3    H266740   1.852   0.502   2.656  0.4224 -1.4423  1.1752
15109TIP3   OH266741   3.672   1.199   2.558  0.0584  0.2914  0.3542
15109TIP3    H166742   3.728   1.176   2.632  0.8608 -0.1784 -0.3940
15109TIP3    H266743   3.664   1.118   2.507  0.4140  0.8838 -0.6584
15110TIP3   OH266744   2.691   1.170   1.077  0.2797 -0.2588 -0.2267
15110TIP3    H166745   2.622   1.174   1.144  0.2172  1.8124 -0.4079
15110TIP3    H266746   2.771   1.154   1.127 -0.0542 -0.7906  0.1504
15111TIP3   OH266747   6.538   3.180   4.122  0.1281  0.6690  0.4543
15111TIP3    H166748   6.554   3.113   4.187  1.0655  1.2753  0.8615
15111TIP3    H266749   6.443   3.193   4.123  0.0523  0.0627  1.0670
15112TIP3   OH266750   0.158   0.991  14.473  0.6358  0.0459  0.4267
15112TIP3    H166751   0.067   0.967  14.455  0.6830 -0.3204  0.6667
15112TIP3    H266752   0.169   1.077  14.432  0.0078  0.3598  0.9054
15113TIP3   OH266753   3.607   4.371  14.645  0.1102  0.0754 -0.6008
15113TIP3    H166754   3.632   4.413  14.563  1.3004  0.1074 -0.2351
15113TIP3    H266755   3.638   4.431  14.713 -0.3855 -0.2086 -0.1287
15114TIP3   OH266756   6.256   3.189   4.072  0.1550 -0.1981 -0.3671
15114TIP3    H166757   6.253   3.276   4.032  2.5922  0.1371  0.0681
15114TIP3    H266758   6.168   3.154   4.061 -0.0910  1.1645 -3.1372
15115TIP3   OH266759   6.592   4.386  15.555 -0.0028  0.1185  0.3370
15115TIP3    H166760   6.670   4.388  15.499  0.6308  1.9796  1.2441
15115TIP3    H266761   6.626   4.375  15.644 -0.7180  1.4119  0.7908
15116TIP3   OH266762   1.117   3.590  13.007 -0.3478  0.2408  0.3408
15116TIP3    H166763   1.053   3.520  12.993 -0.9287  0.8622 -0.0604
15116TIP3    H266764   1.177   3.553  13.073 -0.0068 -1.0646 -0.6723
15117TIP3   OH266765   6.477   4.059   3.535 -0.4604  0.2764  0.4399
15117TIP3    H166766   6.513   4.118   3.601  0.8512  0.2484 -0.2392
15117TIP3    H266767   6.524   3.977   3.549 -0.5655  0.1105 -0.1741
15118TIP3   OH266768   0.272   0.920   2.906  0.1805 -0.4213  0.5020
15118TIP3    H166769   0.243   0.988   2.967 -0.3063  1.8301 -2.1211
15118TIP3    H266770   0.361   0.900   2.933 -0.6337 -0.7728  3.0320
15119TIP3   OH266771   1.190   0.867   3.635  0.1474 -0.3990  0.1914
15119TIP3    H166772   1.146   0.871   3.549  0.6407  1.5156 -0.0054
15119TIP3    H266773   1.120   0.844   3.696 -0.7698  0.7923 -0.3801
15120TIP3   OH266774   2.058   4.388  15.485  0.2404  0.1189  0.2540
15120TIP3    H166775   2.092   4.477  15.500  1.0391 -0.1827  0.2802
15120TIP3    H266776   1.984   4.380  15.545  1.2963  0.1382  1.5936
15121TIP3   OH266777   2.379   1.683  14.552 -0.4946 -0.1795 -0.3851
15121TIP3    H166778   2.285   1.673  14.537 -0.0725 -0.1810 -3.1885
15121TIP3    H266779   2.416   1.699  14.466  2.0792  0.0366  0.7121
15122TIP3   OH266780   2.526   5.564   6.411  0.4044 -0.1763  0.4584
15122TIP3    H166781   2.500   5.535   6.499 -1.4256 -1.0004 -0.3277
15122TIP3    H266782   2.444   5.595   6.371  0.4143 -3.3874 -2.3048
15123TIP3   OH266783   4.882   0.185   1.565 -0.1788 -0.0076 -0.1919
15123TIP3    H166784   4.942   0.236   1.619  1.2180  1.8620 -3.3774
15123TIP3    H266785   4.795   0.220   1.586  0.4211  1.1694  0.3420
15124TIP3   OH266786   1.918   6.702   1.456  0.2796 -0.0465  0.1493
15124TIP3    H166787   1.873   6.786   1.449  1.2123  0.5277  0.8648
15124TIP3    H266788   1.849   6.640   1.479 -0.8268  0.0694 -2.6576
15125TIP3   OH266789   6.782   5.844  14.013  0.8721 -0.5715 -1.0722
15125TIP3    H166790   6.716   5.779  13.989  0.4663 -0.3673 -0.5303
15125TIP3    H266791   6.820   5.811  14.095 -0.7444  0.8630  0.2969
15126TIP3   OH266792   1.861   0.563  16.909 -0.4726 -0.6180  0.1288
15126TIP3    H166793   1.950   0.549  16.879 -0.3134 -0.6517  0.6163
15126TIP3    H266794   1.807   0.504  16.855 -0.1760 -0.7834  0.0141
15127TIP3   OH266795   4.462   3.668   0.855 -0.0244 -0.0894 -0.7341
15127TIP3    H166796   4.488   3.726   0.783 -0.6014  1.0646 -0.0117
15127TIP3    H266797   4.492   3.713   0.934 -0.8000 -0.6066 -0.1468
15128TIP3   OH266798   5.923   1.945   5.962  0.2351  0.1026 -0.7283
15128TIP3    H166799   5.938   1.860   5.920  1.5271  0.3211 -0.7304
15128TIP3    H266800   5.850   1.984   5.913 -0.8621 -1.3142 -0.2493
15129TIP3   OH266801   1.681   0.701   2.891 -0.1825  0.1122 -0.1085
15129TIP3    H166802   1.589   0.704   2.864 -0.6824  0.6356  1.5901
15129TIP3    H266803   1.709   0.793   2.892  0.4453 -0.0708 -0.9107
15130TIP3   OH266804   0.092   3.293  15.784  0.0662 -0.3841 -0.6045
15130TIP3    H166805   0.139   3.366  15.825  2.3411 -1.2421 -1.5926
15130TIP3    H266806  -0.000   3.308  15.805  0.7313  1.6375  0.9497
15131TIP3   OH266807   5.827   1.508  13.154  0.1698  0.1834 -0.4816
15131TIP3    H166808   5.788   1.519  13.068 -0.6692  0.7091 -0.0442
15131TIP3    H266809   5.829   1.413  13.168 -1.6173  0.1702 -0.2176
15132TIP3   OH266810   5.285   4.937  17.200  0.5338  0.0290 -0.0944
15132TIP3    H166811   5.263   4.854  17.158 -0.3333 -1.0612  2.4624
15132TIP3    H266812   5.300   4.997  17.126 -0.0884 -2.0323 -1.9666
15133TIP3   OH266813   2.261   5.104   3.198 -0.4549  0.6040  0.5491
15133TIP3    H166814   2.346   5.060   3.204 -0.6255  0.0865 -0.7729
15133TIP3    H266815   2.200   5.044   3.239 -0.2450  0.8078  1.1632
15134TIP3   OH266816   1.359   3.251   0.015  0.0504  0.0497  0.1735
15134TIP3    H166817   1.328   3.161   0.019  1.7625 -0.7496 -2.6650
15134TIP3    H266818   1.410   3.264   0.095  0.2097 -1.6721  0.3569
15135TIP3   OH266819   0.179   5.214  15.650  0.0158  0.5125  0.5986
15135TIP3    H166820   0.167   5.293  15.597 -0.0726 -0.0646 -0.2440
15135TIP3    H266821   0.246   5.238  15.714  0.2083  1.1718  0.1537
15136TIP3   OH266822   2.906   2.101  12.611  0.1192  0.1409 -0.2221
15136TIP3    H166823   2.914   2.010  12.584 -2.8139  0.4169 -2.2428
15136TIP3    H266824   2.889   2.097  12.705  0.2762 -1.3755 -0.2478
15137TIP3   OH266825   6.638   1.910  12.031 -0.2407  0.1070 -0.1146
15137TIP3    H166826   6.628   1.961  12.111 -2.3478 -1.0037  0.3765
15137TIP3    H266827   6.695   1.837  12.057 -1.1022 -0.3731  0.4268
15138TIP3   OH266828   2.096   3.006  12.815  0.3301  0.2863  0.1528
15138TIP3    H166829   2.099   3.001  12.719  0.2170  2.2088  0.0279
15138TIP3    H266830   2.006   2.984  12.837  0.4605 -0.5863 -0.1362
15139TIP3   OH266831   1.171   1.882  16.230 -0.3258  0.1437  0.3124
15139TIP3    H166832   1.142   1.793  16.249  0.9593 -0.8445 -2.1422
15139TIP3    H266833   1.218   1.875  16.147  0.5872  2.9624  0.5307
15140TIP3   OH266834   2.564   4.274   2.633  0.0100  0.5694  0.1681
15140TIP3    H166835   2.567   4.183   2.604  0.1199  0.9372 -0.9624
15140TIP3    H266836   2.510   4.318   2.568  1.1139  1.6022 -0.0547
15141TIP3   OH266837   3.815   4.182  13.594  0.2593 -0.0183  0.0955
15141TIP3    H166838   3.756   4.123  13.547 -2.0153  1.7317  0.6220
15141TIP3    H266839   3.855   4.235  13.524 -2.5664  2.0838 -0.0714
15142TIP3   OH266840   5.736   4.005   0.932  0.3085 -0.3052  0.5644
15142TIP3    H166841   5.823   4.026   0.897 -0.3783  1.1259 -0.3569
15142TIP3    H266842   5.715   3.919   0.894  0.2515  0.5085 -1.3100
15143TIP3   OH266843   5.258   2.722  14.769  0.2684 -0.2370  0.5861
15143TIP3    H166844   5.241   2.726  14.863 -1.9789  0.1366  0.1968
15143TIP3    H266845   5.215   2.642  14.740 -0.1568  0.3113 -0.3237
15144TIP3   OH266846   2.232   1.537   4.660 -0.0663 -0.1396  0.1792
15144TIP3    H166847   2.266   1.588   4.734 -0.7055 -2.4390  2.1070
15144TIP3    H266848   2.307   1.484   4.632  0.7729  2.1915 -2.2154
15145TIP3   OH266849   6.307   3.689  12.349  0.9224 -0.5380 -0.5013
15145TIP3    H166850   6.369   3.744  12.396  2.1867 -2.2756 -0.1037
15145TIP3    H266851   6.232   3.746  12.333  1.5247  0.8149  1.3591
15146TIP3   OH266852   1.781   3.268  14.774 -0.2396 -0.9532  0.0038
15146TIP3    H166853   1.841   3.221  14.832  2.2701 -1.2512 -2.6923
15146TIP3    H266854   1.781   3.216  14.693  0.0550  1.9351 -1.9140
15147TIP3   OH266855   4.869   1.744  15.128  0.0601 -0.3522 -0.4379
15147TIP3    H166856   4.897   1.666  15.176  1.0412  0.6003  0.5868
15147TIP3    H266857   4.936   1.758  15.062 -0.1009 -0.3520 -0.6031
15148TIP3   OH266858   0.779   1.894  13.267  0.3570 -0.0685  0.5830
15148TIP3    H166859   0.755   1.983  13.242 -0.9847 -0.6389 -0.2399
15148TIP3    H266860   0.721   1.873  13.340 -0.8288 -1.0242 -0.6210
15149TIP3   OH266861   3.394   1.211  14.067 -0.0058  0.1274  0.2582
15149TIP3    H166862   3.387   1.282  14.003 -0.7617 -0.0065  0.1868
15149TIP3    H266863   3.384   1.131  14.015 -2.4065  0.0670  0.7686
15150TIP3   OH266864   2.982   4.636   2.113 -0.2842  0.6556  0.3113
15150TIP3    H166865   3.035   4.609   2.038 -1.5366 -1.2545  0.1057
15150TIP3    H266866   2.892   4.625   2.084 -0.7776  0.2852  1.9718
15151TIP3   OH266867   3.187   4.317   5.294  0.6321 -0.3076  0.0935
15151TIP3    H166868   3.135   4.352   5.367 -1.1844 -0.8598 -0.9149
15151TIP3    H266869   3.184   4.385   5.227  0.8745 -0.5112 -0.1268
15152TIP3   OH266870   2.708   2.403   1.631  0.0953  0.7634  0.0885
15152TIP3    H166871   2.706   2.454   1.550  1.9207  0.5296 -0.1036
15152TIP3    H266872   2.675   2.463   1.697 -1.1270  1.0526 -0.7593
15153TIP3   OH266873   6.577   6.150   3.067 -0.0560  0.1416 -0.2929
15153TIP3    H166874   6.661   6.195   3.058 -0.4999  1.0718  0.2327
15153TIP3    H266875   6.529   6.173   2.987 -0.4417  0.9345  0.1671
15154TIP3   OH266876   5.867   1.657   0.048 -0.3373  0.0457  0.0026
15154TIP3    H166877   5.871   1.686  -0.043  1.4707  2.0402  0.6614
15154TIP3    H266878   5.956   1.628   0.068 -1.1250 -1.9726  0.6498
15155TIP3   OH266879   1.087   5.226  15.109 -0.2233 -0.5236 -0.0566
15155TIP3    H166880   1.017   5.223  15.044 -0.9155  0.2033  0.6393
15155TIP3    H266881   1.158   5.273  15.066 -1.2095  1.2379  0.1803
15156TIP3   OH266882   5.752   5.770  15.045 -0.3404  0.3540 -0.3291
15156TIP3    H166883   5.818   5.725  14.991 -1.6393 -0.9210 -0.9014
15156TIP3    H266884   5.675   5.773  14.989 -0.7957  1.7751  0.3645
15157TIP3   OH266885   5.221   6.448  15.688 -0.0336 -0.2737  0.1080
15157TIP3    H166886   5.213   6.528  15.739  1.0220  0.1988 -0.4354
15157TIP3    H266887   5.309   6.415  15.709 -0.5664 -1.4653  0.5616
15158TIP3   OH266888   6.574   2.033   4.579 -0.0415 -0.1514  0.1050
15158TIP3    H166889   6.626   2.000   4.505 -1.1874 -1.3853 -0.1815
15158TIP3    H266890   6.598   1.977   4.652  1.8799  1.7526  0.9562
15159TIP3   OH266891   5.828   1.212  13.039 -0.3970  0.1198  0.3295
15159TIP3    H166892   5.787   1.204  13.126 -2.1922 -1.1660 -0.5889
15159TIP3    H266893   5.783   1.147  12.986  2.9174 -1.3752 -0.7758
15160TIP3   OH266894   1.559   2.346  15.364 -0.0830 -0.3237  0.0468
15160TIP3    H166895   1.537   2.421  15.309  0.4354 -0.3639 -0.2180
15160TIP3    H266896   1.645   2.366  15.400 -0.3352 -0.3896  0.6889
15161TIP3   OH266897   4.418   1.322   6.610 -0.0029  0.1804 -0.2844
15161TIP3    H166898   4.505   1.308   6.573  0.3335 -1.3336  1.0003
15161TIP3    H266899   4.392   1.235   6.643 -1.1290  1.0380  1.1625
15162TIP3   OH266900   0.664   5.494   1.117 -0.3485  0.0035  0.3124
15162TIP3    H166901   0.666   5.504   1.022  0.1582 -0.6751  0.2512
15162TIP3    H266902   0.677   5.400   1.132 -1.6718 -0.0805  1.0074
15163TIP3   OH266903   0.818   1.500  12.851 -0.2440  0.0743  0.1226
15163TIP3    H166904   0.799   1.575  12.907 -0.4666 -0.2549  0.4881
15163TIP3    H266905   0.888   1.454  12.896 -0.6978 -0.4125  0.3335
15164TIP3   OH266906   3.992   3.340  15.864 -0.1321  0.2158 -0.0421
15164TIP3    H166907   3.970   3.250  15.837 -2.4036  0.7871 -0.2244
15164TIP3    H266908   4.081   3.354  15.831 -0.2560 -1.5152 -1.1893
15165TIP3   OH266909   0.425   2.660   2.668  0.0072  0.2469  0.1272
15165TIP3    H166910   0.510   2.701   2.682 -0.7114  1.2187  1.8423
15165TIP3    H266911   0.363   2.717   2.714 -1.6439 -0.1535 -1.5309
15166TIP3   OH266912   3.985   1.000   0.644  0.2920 -0.1262  0.4809
15166TIP3    H166913   4.046   0.944   0.596  0.1942  0.9545 -0.9388
15166TIP3    H266914   3.959   0.948   0.720  0.5941 -1.7940 -0.5442
15167TIP3   OH266915   3.478   0.303  16.524  0.5261 -0.0771  0.1927
15167TIP3    H166916   3.555   0.282  16.578 -0.6162 -0.5552  1.6763
15167TIP3    H266917   3.406   0.311  16.587 -0.6157  0.5202 -1.1616
15168TIP3   OH266918   4.462   1.903  16.806  0.1676  0.9198 -0.0713
15168TIP3    H166919   4.416   1.900  16.890  0.5047 -1.8768  0.0837
15168TIP3    H266920   4.539   1.958  16.823 -1.4067  2.9901  0.5427
15169TIP3   OH266921   1.518   2.073   3.923 -0.8161  0.0028  0.0520
15169TIP3    H166922   1.574   2.150   3.919 -2.9890  1.6391 -0.1571
15169TIP3    H266923   1.429   2.108   3.932 -1.8880 -2.4708 -0.3036
15170TIP3   OH266924   0.182   2.886  12.557 -0.4609 -0.2605 -0.5295
15170TIP3    H166925   0.269   2.901  12.519 -0.7735 -2.1498 -2.0406
15170TIP3    H266926   0.121   2.921  12.492 -0.8797 -0.1943 -0.1035
15171TIP3   OH266927   5.019   4.038  15.081  0.1523 -0.6702 -0.3130
15171TIP3    H166928   5.006   3.999  14.995 -0.4334 -0.1675 -0.4568
15171TIP3    H266929   5.052   3.966  15.135 -2.5720 -1.8466 -0.1125
15172TIP3   OH266930   3.098   4.976   3.714  0.6424  0.0806 -0.4702
15172TIP3    H166931   3.037   5.012   3.650 -0.4524  1.2093  1.1423
15172TIP3    H266932   3.184   4.988   3.675 -0.1146 -1.2740 -2.6695
15173TIP3   OH266933   4.357   4.176  13.755  0.8142  0.1900  0.5111
15173TIP3    H166934   4.262   4.181  13.752  0.7253  0.5508  3.0887
15173TIP3    H266935   4.376   4.092  13.797  1.6535 -0.1935 -0.6028
15174TIP3   OH266936   6.105   3.837   5.801 -0.1954  0.1059  0.9948
15174TIP3    H166937   6.059   3.803   5.878  0.1773  1.0448  1.6328
15174TIP3    H266938   6.176   3.890   5.836  0.7646 -0.4980  0.0035
15175TIP3   OH266939   1.175   1.972   6.012 -0.0626  0.5137 -0.8296
15175TIP3    H166940   1.138   2.044   6.064  0.7705  2.0054 -2.2803
15175TIP3    H266941   1.142   1.893   6.056 -0.3347  1.7366  1.2663
15176TIP3   OH266942   1.723   1.533  11.631 -0.0822 -0.2785 -0.0027
15176TIP3    H166943   1.654   1.587  11.669  0.5154 -0.7575  1.8442
15176TIP3    H266944   1.776   1.506  11.706  2.3061  0.3457 -1.4036
15177TIP3   OH266945   2.810   3.175  12.657 -0.0410  1.0725 -0.0412
15177TIP3    H166946   2.741   3.113  12.636  1.3830 -0.2027 -1.1324
15177TIP3    H266947   2.834   3.154  12.748 -0.7355  1.1824  0.1689
15178TIP3   OH266948   6.160   2.039  16.912 -0.1474 -0.4581 -0.3232
15178TIP3    H166949   6.088   2.094  16.880  0.2119 -0.9876 -2.1332
15178TIP3    H266950   6.152   1.958  16.860  2.8645  0.1952 -1.9030
15179TIP3   OH266951   2.197   0.286  13.331  0.2345  0.1583  0.4274
15179TIP3    H166952   2.154   0.211  13.289  1.5733 -0.5158  0.2557
15179TIP3    H266953   2.253   0.247  13.398  1.4643  0.9665 -0.1225
15180TIP3   OH266954   4.883   0.051   5.107  0.3563 -0.2614 -0.4445
15180TIP3    H166955   4.958  -0.007   5.117  1.9734  1.8737  0.1205
15180TIP3    H266956   4.874   0.062   5.012  0.4143 -0.9249 -0.5324
15181TIP3   OH266957   5.157   3.151   0.485 -0.1710  0.2747 -0.0400
15181TIP3    H166958   5.217   3.223   0.466 -0.4968  0.2707 -1.1250
15181TIP3    H266959   5.088   3.191   0.538  0.2654  0.4975  0.3656
15182TIP3   OH266960   3.646   6.344   5.598 -0.2828  0.1294  0.1901
15182TIP3    H166961   3.671   6.431   5.630  1.1887  0.2008 -1.0600
15182TIP3    H266962   3.566   6.323   5.645 -0.9678  2.3990  0.1257
15183TIP3   OH266963   0.403   0.663  14.318 -0.2432 -0.3912  0.8184
15183TIP3    H166964   0.433   0.584  14.273 -1.6639 -0.4682 -0.0188
15183TIP3    H266965   0.324   0.636  14.365 -1.0477  0.6549  0.0862
15184TIP3   OH266966   2.055   1.484  11.672  0.1730  0.4567 -0.5875
15184TIP3    H166967   2.062   1.400  11.626  1.1395  0.4794 -0.4808
15184TIP3    H266968   2.097   1.468  11.757 -1.6267  0.3918  0.3340
15185TIP3   OH266969   0.458   6.655   5.323  0.0325  0.2338 -0.5128
15185TIP3    H166970   0.508   6.729   5.357  0.1144  0.1000 -0.3370
15185TIP3    H266971   0.463   6.663   5.228 -0.7864  1.0106 -0.4988
15186TIP3   OH266972   2.609   0.762  12.290  0.0853  0.3591 -0.5479
15186TIP3    H166973   2.699   0.780  12.265  0.2023 -1.0394 -1.1634
15186TIP3    H266974   2.603   0.666  12.294 -1.0619  0.4630  0.6137
15187TIP3   OH266975   0.269   3.721  10.941 -0.1531 -0.2937  0.2483
15187TIP3    H166976   0.177   3.746  10.934 -0.4407 -1.3064  0.3968
15187TIP3    H266977   0.312   3.769  10.870 -1.1064 -1.2392 -0.9904
15188TIP3   OH266978   5.904   1.090  12.658 -0.8996 -0.2094 -0.0168
15188TIP3    H166979   5.890   1.155  12.589  1.6449  0.4848  0.0700
15188TIP3    H266980   5.953   1.136  12.725 -0.3305 -1.8223  0.7022
15189TIP3   OH266981   4.952   6.509  15.884  0.2059 -0.2213 -0.6148
15189TIP3    H166982   4.889   6.489  15.953 -0.5636  1.3491 -0.8254
15189TIP3    H266983   5.014   6.568  15.925  0.0615  0.2749 -1.0936
15190TIP3   OH266984   4.093   3.383  16.492 -0.1108  0.0778 -0.0671
15190TIP3    H166985   4.149   3.314  16.525  1.0697  0.6178 -0.8958
15190TIP3    H266986   4.083   3.444  16.566  0.7226  0.1801 -0.0380
15191TIP3   OH266987   4.175   6.503   4.144  0.3819  0.4764  0.2798
15191TIP3    H166988   4.202   6.433   4.085 -0.9915 -0.1086  0.3422
15191TIP3    H266989   4.232   6.494   4.220  0.5286 -0.2736  0.0826
15192TIP3   OH266990   4.492   1.582  14.518 -0.1028 -0.5371 -0.4857
15192TIP3    H166991   4.461   1.505  14.565 -0.2722  1.2775  2.4451
15192TIP3    H266992   4.576   1.554  14.481 -1.4569 -2.9765 -1.8633
15193TIP3   OH266993   4.719   1.085   5.300 -0.1280 -0.8179 -0.2064
15193TIP3    H166994   4.757   1.015   5.247  0.9923  0.2946 -0.9101
15193TIP3    H266995   4.691   1.151   5.236  2.0773  0.9618  0.6083
15194TIP3   OH266996   0.016   0.578  12.182  0.2902  0.1817  0.8144
15194TIP3    H166997   0.040   0.658  12.229 -1.6831  1.8477 -0.8919
15194TIP3    H266998  -0.069   0.553  12.219 -0.8438  0.9915 -1.1564
15195TIP3   OH266999   0.045   4.482   4.866 -0.4361 -0.0517 -0.2066
15195TIP3    H167000   0.126   4.436   4.891 -1.7133 -2.0985  0.2871
15195TIP3    H267001   0.023   4.447   4.780 -0.6029  0.7803 -0.5063
15196TIP3   OH267002   2.115   1.313  15.843  0.1473 -0.4974  0.4640
15196TIP3    H167003   2.108   1.386  15.781 -1.3410 -0.5910  0.4907
15196TIP3    H267004   2.196   1.330  15.891 -0.3003  1.2781  0.6381
15197TIP3   OH267005   4.423   4.689  16.354  0.3835  0.5580 -0.1556
15197TIP3    H167006   4.362   4.624  16.320 -1.4569  1.4036  1.4547
15197TIP3    H267007   4.376   4.731  16.426  2.3799  2.1291  0.2736
15198TIP3   OH267008   1.815   3.751  12.896 -0.4876 -0.2095 -0.1807
15198TIP3    H167009   1.787   3.760  12.987 -1.4902  3.3405 -0.7542
15198TIP3    H267010   1.911   3.749  12.900 -0.5663 -1.4002  1.0494
15199TIP3   OH267011   3.817   5.325   3.769 -0.0746  0.1345  0.2388
15199TIP3    H167012   3.890   5.386   3.759 -0.0786 -0.0144 -0.7161
15199TIP3    H267013   3.786   5.340   3.859 -0.2957  1.7795 -0.0902
15200TIP3   OH267014   5.659   5.644   5.048  0.0923 -0.5379  0.1458
15200TIP3    H167015   5.691   5.558   5.076 -2.1907 -0.9861  1.4919
15200TIP3    H267016   5.681   5.702   5.121  1.2181 -0.0422 -0.5665
15201TIP3   OH267017   6.128   0.844  14.757  0.1122 -0.5182 -0.5273
15201TIP3    H167018   6.046   0.870  14.799  0.3219 -0.7117  0.0056
15201TIP3    H267019   6.104   0.772  14.699  0.1352 -1.4652  0.6357
15202TIP3   OH267020   5.000   6.415   5.839  0.1079 -0.1568  0.0739
15202TIP3    H167021   5.083   6.446   5.877 -0.0183 -1.5348  1.5169
15202TIP3    H267022   5.022   6.329   5.801 -1.0348 -1.3414  2.0222
15203TIP3   OH267023   5.305   0.257  12.855 -0.5451 -0.4770 -0.2615
15203TIP3    H167024   5.306   0.273  12.761 -1.2831  2.5364  0.1945
15203TIP3    H267025   5.395   0.272  12.884 -1.0841  2.4129  0.0507
15204TIP3   OH267026   2.683   1.194   3.555 -0.5900  0.0934 -0.1390
15204TIP3    H167027   2.604   1.247   3.562 -0.4992  0.2302 -0.1632
15204TIP3    H267028   2.707   1.175   3.646 -2.5525 -2.7532 -0.1378
15205TIP3   OH267029   1.265   5.028  15.887  0.0669  0.0351 -0.2262
15205TIP3    H167030   1.345   5.075  15.912 -0.4683  1.1066 -0.4860
15205TIP3    H267031   1.195   5.090  15.906 -0.7560 -1.1848  0.6967
15206TIP3   OH267032   1.220   2.690  10.295  0.0700  0.5072 -0.0094
15206TIP3    H167033   1.175   2.611  10.264 -3.0939  1.7624  1.2386
15206TIP3    H267034   1.249   2.668  10.384  1.4618 -0.0931 -0.5948
15207TIP3   OH267035   2.803   3.007   2.628  0.2485  0.0309  0.0072
15207TIP3    H167036   2.710   3.032   2.623  0.5644  1.0915 -0.6732
15207TIP3    H267037   2.817   2.989   2.721 -0.1755  1.7118  0.4180
15208TIP3   OH267038   3.232   2.527   6.142  0.2405  0.0817  0.6813
15208TIP3    H167039   3.256   2.487   6.226  1.0819 -2.4201 -0.6885
15208TIP3    H267040   3.311   2.521   6.088 -0.9712 -0.5679 -1.0920
15209TIP3   OH267041   5.310   5.245   1.818  0.0937 -0.4264  0.0770
15209TIP3    H167042   5.285   5.338   1.821  1.0154 -0.1950  1.1698
15209TIP3    H267043   5.365   5.233   1.895 -0.1376 -1.9300  0.0245
15210TIP3   OH267044   4.097   5.220   6.486 -0.3644  0.2587 -0.3856
15210TIP3    H167045   4.143   5.140   6.513  2.8017  3.1269  3.2251
15210TIP3    H267046   4.018   5.222   6.540 -1.0703 -0.9443 -1.3347
15211TIP3   OH267047   0.913   2.323  13.786 -0.0741  0.2719 -0.0921
15211TIP3    H167048   0.947   2.248  13.738  0.1382 -0.5464  1.3058
15211TIP3    H267049   0.988   2.381  13.797  0.3576 -0.4561  0.9488
15212TIP3   OH267050   6.771   5.464   2.600  0.1448  0.7146 -0.3343
15212TIP3    H167051   6.799   5.397   2.538  0.5172  0.6426 -0.0875
15212TIP3    H267052   6.759   5.416   2.682  2.0728  1.2469  0.2743
15213TIP3   OH267053   2.174   1.850   5.230 -0.3839  0.7241  0.2212
15213TIP3    H167054   2.096   1.872   5.179 -0.3575 -0.6571 -0.4515
15213TIP3    H267055   2.182   1.755   5.220  1.7545  0.9361 -0.2668
15214TIP3   OH267056   2.157   1.536  12.908  0.2159  0.5117 -0.0616
15214TIP3    H167057   2.135   1.443  12.903  0.4489  0.2797  2.5731
15214TIP3    H267058   2.250   1.540  12.885  0.2756  0.0752  0.1006
15215TIP3   OH267059   5.034   5.406  16.328  0.1651 -0.1418  0.3189
15215TIP3    H167060   4.941   5.392  16.314  0.1802  0.6860 -0.6845
15215TIP3    H267061   5.041   5.494  16.365  0.5263 -0.2908  0.6119
15216TIP3   OH267062   4.118   0.959  16.121 -0.1547 -0.6214 -0.6529
15216TIP3    H167063   4.164   0.888  16.076  0.0516 -0.6881 -0.3418
15216TIP3    H267064   4.029   0.955  16.087 -0.4866 -1.8638  0.3161
15217TIP3   OH267065   6.617   0.076  11.772  0.2895 -0.0406  0.1213
15217TIP3    H167066   6.587   0.037  11.854 -0.3062  0.7018  0.2641
15217TIP3    H267067   6.706   0.108  11.792 -0.1928  0.9545  0.7588
15218TIP3   OH267068   1.426   3.071  13.618 -0.0633 -0.2892  0.1025
15218TIP3    H167069   1.512   3.031  13.602 -0.9756 -1.8213 -1.0325
15218TIP3    H267070   1.392   3.089  13.531 -0.2972  1.6535  0.5816
15219TIP3   OH267071   6.211   5.319  16.710 -0.1314  0.2966 -0.1079
15219TIP3    H167072   6.138   5.259  16.694  0.4162 -0.6018  0.6778
15219TIP3    H267073   6.176   5.406  16.689 -0.8674 -0.3141 -1.4723
15220TIP3   OH267074   5.770   1.472  11.417  0.1772  0.0268  0.1595
15220TIP3    H167075   5.817   1.484  11.335  0.1589 -0.7624  0.0290
15220TIP3    H267076   5.811   1.395  11.457 -2.0162 -1.6375 -0.6924
15221TIP3   OH267077   2.639   0.970   4.697 -0.3276 -0.3461  0.3538
15221TIP3    H167078   2.715   1.003   4.649  0.2053  1.9068  2.6586
15221TIP3    H267079   2.663   0.881   4.721  0.3708 -0.6703 -1.4426
15222TIP3   OH267080   0.750   1.844   4.300  0.4086  0.7097  0.2653
15222TIP3    H167081   0.846   1.842   4.300  0.3990  0.0660 -0.1162
15222TIP3    H267082   0.727   1.886   4.217  0.3640  1.4389  0.6403
15223TIP3   OH267083   3.285   5.898  14.711  0.0305  0.1745 -0.2206
15223TIP3    H167084   3.317   5.826  14.657 -0.6159 -0.9307  0.8197
15223TIP3    H267085   3.219   5.857  14.767 -0.4515  1.6216  0.2799
15224TIP3   OH267086   5.941   2.207  13.027 -0.3670 -0.0166  0.0266
15224TIP3    H167087   5.992   2.127  13.032  0.4445  0.3604 -1.8541
15224TIP3    H267088   5.850   2.178  13.035  0.0337 -0.9026  1.3832
15225TIP3   OH267089   5.982   6.312   1.442 -0.2647  0.1348 -0.3257
15225TIP3    H167090   5.903   6.291   1.491 -0.1149  2.0635  0.7780
15225TIP3    H267091   6.041   6.239   1.460 -0.6064  0.2927  1.5083
15226TIP3   OH267092   5.259   4.548   4.731  0.4514  0.2638  0.7193
15226TIP3    H167093   5.355   4.554   4.734  0.5023 -0.0593 -0.2234
15226TIP3    H267094   5.233   4.612   4.666  0.1903 -1.2338 -0.6793
15227TIP3   OH267095   2.603   6.540  12.781  0.8203  0.6281 -0.4881
15227TIP3    H167096   2.518   6.497  12.793  1.3771 -0.4192 -0.1599
15227TIP3    H267097   2.610   6.554  12.686  0.8125 -0.4156 -0.6487
15228TIP3   OH267098   4.851   6.498   1.312  0.1445 -0.3208  0.2747
15228TIP3    H167099   4.760   6.470   1.309  0.2464 -1.0152  2.4117
15228TIP3    H267100   4.852   6.568   1.377  1.3204 -1.1253  1.1364
15229TIP3   OH267101   2.263   4.144  12.466  0.1722 -0.0954 -0.3410
15229TIP3    H167102   2.295   4.224  12.425  1.5488  0.0961  1.0577
15229TIP3    H267103   2.303   4.073  12.415  2.1861  0.1407  0.8750
15230TIP3   OH267104   3.236   1.857   2.510  0.4578 -0.0369  0.8363
15230TIP3    H167105   3.202   1.799   2.578  1.8434 -1.4174  0.3752
15230TIP3    H267106   3.187   1.833   2.431  0.3556  0.0914  0.8601
15231TIP3   OH267107   4.610   2.870  12.053  0.0921  0.0438  0.0973
15231TIP3    H167108   4.547   2.874  12.125  0.1805 -0.1280  0.1854
15231TIP3    H267109   4.578   2.934  11.990  0.4514  0.7567  0.6415
15232TIP3   OH267110   3.696   0.631  15.146 -0.5222  0.4570  0.0272
15232TIP3    H167111   3.758   0.563  15.174  1.3725  1.9246 -0.4927
15232TIP3    H267112   3.616   0.584  15.124  0.3105 -1.4546  1.0162
15233TIP3   OH267113   6.238   4.738   3.643  0.2516  0.5130  0.1102
15233TIP3    H167114   6.234   4.748   3.548 -1.5220 -0.6433  0.0329
15233TIP3    H267115   6.174   4.801   3.677 -2.1231 -1.8810  0.2640
15234TIP3   OH267116   4.058   0.503   6.313 -0.2157  0.6568 -0.1565
15234TIP3    H167117   4.085   0.429   6.367  0.9276  1.8851  0.9772
15234TIP3    H267118   4.139   0.547   6.290 -0.9178  1.8290 -0.4335
15235TIP3   OH267119   4.372   0.204   5.287  0.6487  0.0519 -0.3352
15235TIP3    H167120   4.306   0.138   5.264  0.8263 -0.4551  0.6125
15235TIP3    H267121   4.326   0.288   5.277  0.4923 -0.1905 -1.7699
15236TIP3   OH267122   2.687   3.191  11.636  0.8581 -0.3017  0.1659
15236TIP3    H167123   2.697   3.146  11.552  0.2850 -0.8938  0.4066
15236TIP3    H267124   2.651   3.124  11.695  1.4221  0.0595  0.9254
15237TIP3   OH267125   3.807   3.761   4.277  0.3426 -0.7447 -0.0289
15237TIP3    H167126   3.886   3.802   4.311  0.4490 -0.5786 -0.4821
15237TIP3    H267127   3.810   3.777   4.183  0.9866 -2.8031 -0.3788
15238TIP3   OH267128   0.549   0.639  11.900 -0.4463 -0.4364  0.6835
15238TIP3    H167129   0.523   0.636  11.992  0.5100 -0.9135  0.9484
15238TIP3    H267130   0.473   0.607  11.852 -1.1376  0.3034  1.2646
15239TIP3   OH267131   4.870   4.188  15.595  0.2964 -0.1181 -0.3850
15239TIP3    H167132   4.798   4.251  15.583  1.2115  0.6447 -2.0777
15239TIP3    H267133   4.848   4.116  15.536  0.8509  0.0642 -0.8158
15240TIP3   OH267134   1.699   2.580  13.265  0.1463 -0.4018 -0.0931
15240TIP3    H167135   1.716   2.539  13.350 -0.9151 -1.3171 -0.3060
15240TIP3    H267136   1.785   2.605  13.232  0.7574 -1.8448  0.3653
15241TIP3   OH267137   2.961   0.719  15.961 -0.2144  0.4570  0.8233
15241TIP3    H167138   3.007   0.649  15.915 -3.5579  0.5747 -2.9511
15241TIP3    H267139   2.909   0.673  16.027 -1.2926 -0.5208 -0.6719
15242TIP3   OH267140   3.445   3.829  13.229 -0.3076  0.4159 -0.2670
15242TIP3    H167141   3.430   3.921  13.254  0.2809  0.3518  0.3282
15242TIP3    H267142   3.534   3.810  13.259  0.0070 -0.0023 -1.4395
15243TIP3   OH267143   0.668   6.615   3.625  0.1566 -0.3538  0.2449
15243TIP3    H167144   0.638   6.530   3.659  0.4324 -0.5881 -0.1026
15243TIP3    H267145   0.605   6.636   3.556  2.0447 -1.8994 -2.0161
15244TIP3   OH267146   5.374   3.336   5.611  0.5684 -0.0144  0.2258
15244TIP3    H167147   5.306   3.346   5.677 -0.4420  2.4231 -1.1204
15244TIP3    H267148   5.397   3.243   5.614 -2.6652 -0.8608  0.8924
15245TIP3   OH267149   0.241   3.497   2.552 -0.2093 -0.1861 -0.0418
15245TIP3    H167150   0.307   3.510   2.483  0.2133 -0.0562  0.3846
15245TIP3    H267151   0.184   3.428   2.518  0.2488 -0.4227 -0.3382
15246TIP3   OH267152   0.445   4.479   1.747  0.6855  0.0053 -0.3833
15246TIP3    H167153   0.422   4.458   1.838 -1.0549  1.5225 -0.4379
15246TIP3    H267154   0.439   4.395   1.702 -0.3139 -0.4532  0.5538
15247TIP3   OH267155   2.588   4.252   1.798 -0.3883  0.0727 -0.0040
15247TIP3    H167156   2.561   4.160   1.794 -0.4232  0.0277  1.2788
15247TIP3    H267157   2.673   4.253   1.754 -0.4026 -0.5695 -0.0566
15248TIP3   OH267158   3.114   6.370  13.144  0.2686  0.1529  0.6880
15248TIP3    H167159   3.111   6.403  13.054 -1.0318  0.4276  0.8159
15248TIP3    H267160   3.197   6.324  13.150  0.7376  0.8230 -0.4162
15249TIP3   OH267161   3.116   3.282  14.395 -0.3186 -0.7068  0.1876
15249TIP3    H167162   3.080   3.324  14.316  0.1423  1.2271  0.9828
15249TIP3    H267163   3.163   3.206  14.361 -0.0006  0.1811 -1.4319
15250TIP3   OH267164   5.083   4.170  12.597  0.3942 -0.6318  0.5737
15250TIP3    H167165   5.163   4.168  12.544  0.3170 -0.7112  0.4582
15250TIP3    H267166   5.012   4.167  12.533  0.2818  1.5947  0.5682
15251TIP3   OH267167   0.909   2.247  17.186 -0.1733 -0.2020  0.0029
15251TIP3    H167168   0.821   2.210  17.189  1.5743 -4.5477  0.3948
15251TIP3    H267169   0.925   2.277  17.275 -0.9484  0.0061  0.0851
15252TIP3   OH267170   4.831   5.378  16.734 -0.0867 -0.3906  0.3281
15252TIP3    H167171   4.911   5.329  16.713 -0.7141 -0.7115 -1.4329
15252TIP3    H267172   4.861   5.460  16.773  0.9855 -2.3418  3.8466
15253TIP3   OH267173   0.062   6.038  16.348  0.1244  0.4314 -0.5526
15253TIP3    H167174   0.001   6.013  16.279  0.1659  0.0556 -0.4557
15253TIP3    H267175   0.101   6.120  16.317 -1.4905  1.4463  0.0682
15254TIP3   OH267176   5.049   2.977  16.166  0.4926 -0.2254 -0.0469
15254TIP3    H167177   4.983   2.995  16.099  1.5621  1.9384 -0.5575
15254TIP3    H267178   5.069   2.884  16.155 -2.7771 -1.0814  0.4387
15255TIP3   OH267179   3.394   1.565   0.649  0.3443  0.2109 -0.3385
15255TIP3    H167180   3.319   1.550   0.592  0.3242 -0.1737 -0.2133
15255TIP3    H267181   3.401   1.485   0.702 -0.3950  1.0562  1.0687
15256TIP3   OH267182   1.720   4.903   5.433 -0.4929 -0.5512 -0.4747
15256TIP3    H167183   1.757   4.950   5.358  2.0739 -1.8392 -0.0658
15256TIP3    H267184   1.774   4.825   5.441 -0.0859  0.0478  3.3276
15257TIP3   OH267185   3.547   6.187  12.564  0.1536 -0.3868 -0.1429
15257TIP3    H167186   3.593   6.251  12.511  0.3581  0.6967  1.3069
15257TIP3    H267187   3.469   6.164  12.513  1.9576 -1.8072 -2.3581
15258TIP3   OH267188   0.053   1.541   1.666  0.0741  0.2661 -0.1350
15258TIP3    H167189   0.058   1.509   1.756  1.5648  0.0337 -0.2999
15258TIP3    H267190   0.020   1.630   1.674 -2.9792 -0.8349  0.4133
15259TIP3   OH267191   5.055   4.874  12.871 -0.0217 -0.1613 -0.1182
15259TIP3    H167192   4.965   4.898  12.893  0.6743  0.6947  1.9365
15259TIP3    H267193   5.059   4.881  12.775 -1.5186  2.0030 -0.0619
15260TIP3   OH267194   4.832   1.090   2.144 -0.3774  0.8078 -0.6701
15260TIP3    H167195   4.827   1.010   2.091 -0.8115  1.2151 -1.2576
15260TIP3    H267196   4.795   1.066   2.228  1.5686 -0.2263 -0.0789
15261TIP3   OH267197   2.280   0.401   4.044  0.1480  0.0416 -0.4459
15261TIP3    H167198   2.192   0.364   4.036 -0.0686  0.8629 -2.1449
15261TIP3    H267199   2.338   0.325   4.032 -0.3158 -0.0968 -2.0491
15262TIP3   OH267200   2.507   0.749  13.278 -0.0096  0.3010  0.9113
15262TIP3    H167201   2.599   0.724  13.267 -0.2826 -0.3647  0.1380
15262TIP3    H267202   2.472   0.687  13.341 -0.3333 -0.4508  0.0100
15263TIP3   OH267203   6.463   5.865   3.569 -0.1759  0.1013 -0.4444
15263TIP3    H167204   6.445   5.802   3.639  0.4289  0.6830  0.2498
15263TIP3    H267205   6.409   5.836   3.496 -1.3768 -0.0971  0.5047
15264TIP3   OH267206   2.362   2.881  15.435 -0.6748 -0.4267 -0.2719
15264TIP3    H167207   2.392   2.796  15.402  2.1059  0.3123  0.2281
15264TIP3    H267208   2.356   2.869  15.530  1.1825  0.3299 -0.0397
15265TIP3   OH267209   2.761   4.981   2.146  0.6453 -0.2155  0.4810
15265TIP3    H167210   2.755   4.933   2.228 -0.1378  2.4692  2.0816
15265TIP3    H267211   2.674   5.018   2.132  1.1522  0.5938 -0.7600
15266TIP3   OH267212   5.388   6.041  11.589 -0.0336  0.0175 -0.2388
15266TIP3    H167213   5.463   6.097  11.610 -0.5075 -0.2527  2.4525
15266TIP3    H267214   5.418   5.952  11.610 -0.4944 -0.3061 -0.9314
15267TIP3   OH267215   6.267   4.431  11.300  0.3333 -0.1243 -0.2757
15267TIP3    H167216   6.287   4.525  11.296 -2.3677  0.5094 -0.1457
15267TIP3    H267217   6.265   4.411  11.394 -3.0586  0.6896 -0.0875
15268TIP3   OH267218   5.881   6.433  16.146 -0.3263  0.0270 -0.4480
15268TIP3    H167219   5.904   6.502  16.084 -0.6516 -0.6260 -1.2932
15268TIP3    H267220   5.958   6.376  16.147  0.5207  1.1368  1.3031
15269TIP3   OH267221   1.005   2.722   0.222 -0.3117 -0.1539 -0.4457
15269TIP3    H167222   0.940   2.709   0.291  0.6282 -0.9327  0.3169
15269TIP3    H267223   0.995   2.646   0.165  0.2508 -0.5378 -0.0458
15270TIP3   OH267224   5.316   6.015   3.798  0.3765 -0.7149  0.6859
15270TIP3    H167225   5.371   5.951   3.843  1.4810  0.0587  0.4504
15270TIP3    H267226   5.312   6.090   3.857  0.2398 -0.4492  0.3426
15271TIP3   OH267227   5.159   4.859   5.598  0.0733  0.2712  0.1582
15271TIP3    H167228   5.118   4.835   5.515  0.5979  1.4682 -0.4698
15271TIP3    H267229   5.249   4.827   5.590  0.2431  0.7579  0.0798
15272TIP3   OH267230   1.256   2.561   5.986 -0.4530 -0.1210  0.2532
15272TIP3    H167231   1.326   2.616   6.019 -1.1742 -0.0823  1.7618
15272TIP3    H267232   1.188   2.565   6.054 -1.7941 -0.3740 -1.0565
15273TIP3   OH267233   5.610   6.398  15.229 -0.7319 -0.1391 -0.1913
15273TIP3    H167234   5.515   6.405  15.242 -1.0921  0.4218 -2.8855
15273TIP3    H267235   5.620   6.370  15.138  1.7015  0.4716 -0.1489
15274TIP3   OH267236   5.746   4.040  11.787 -0.0467 -0.0033  0.0577
15274TIP3    H167237   5.737   4.091  11.707 -2.6875  0.0548  0.3538
15274TIP3    H267238   5.802   4.093  11.844  0.2029  0.8606 -0.9787
15275TIP3   OH267239   1.480   1.054   4.695 -0.6636 -0.0199  0.1531
15275TIP3    H167240   1.399   1.051   4.645 -0.0942  0.3280 -0.8027
15275TIP3    H267241   1.469   0.987   4.763 -2.5725  1.4197  1.3119
15276TIP3   OH267242   4.816   0.047  11.037 -0.7575 -0.0217 -0.9455
15276TIP3    H167243   4.877   0.071  10.967  0.9098 -0.8312  0.1951
15276TIP3    H267244   4.830  -0.047  11.049  0.7462  0.5455  2.1096
15277TIP3   OH267245   2.859   5.544   5.773 -0.5341  0.4231 -0.6066
15277TIP3    H167246   2.830   5.634   5.789 -1.1719  0.2255 -0.6628
15277TIP3    H267247   2.806   5.490   5.831 -0.3731  0.0479 -0.8032
15278TIP3   OH267248   2.328   3.231  12.414 -0.3663  0.3867  0.0874
15278TIP3    H167249   2.291   3.168  12.476 -0.3775 -0.8331 -1.1289
15278TIP3    H267250   2.255   3.253  12.356  0.0050  0.4044 -0.3743
15279TIP3   OH267251   3.723   3.113  12.688  0.0373  0.0214 -0.2956
15279TIP3    H167252   3.701   3.044  12.625  1.2892  0.1314 -0.8656
15279TIP3    H267253   3.789   3.074  12.745  1.7776  1.1566 -1.4658
15280TIP3   OH267254   1.257   4.562   3.903  0.0383 -0.2735 -0.0841
15280TIP3    H167255   1.214   4.478   3.920 -1.1915  0.2303 -0.6544
15280TIP3    H267256   1.205   4.602   3.834  1.2468  0.5029 -0.5574
15281TIP3   OH267257   0.026   2.944   0.572 -0.2272  0.5904 -0.4069
15281TIP3    H167258   0.046   2.901   0.489  0.4078  1.2007 -0.5707
15281TIP3    H267259   0.018   2.872   0.635 -1.6996  0.0499 -1.1777
15282TIP3   OH267260   1.223   0.320  13.907 -0.5465  0.5477  0.1930
15282TIP3    H167261   1.312   0.350  13.926 -0.3586 -0.0705  0.3319
15282TIP3    H267262   1.184   0.305  13.994  0.3715 -2.4605  0.1511
15283TIP3   OH267263   1.120   3.862  12.086  0.4802 -0.1417 -0.3211
15283TIP3    H167264   1.118   3.795  12.155  1.9806 -2.2691 -2.2670
15283TIP3    H267265   1.188   3.923  12.114  0.0318 -0.1263  0.7986
15284TIP3   OH267266   1.523   0.933  14.044  0.0492  0.0496  0.0394
15284TIP3    H167267   1.486   1.019  14.026 -0.9765 -0.3217  0.3020
15284TIP3    H267268   1.560   0.940  14.132 -2.8853 -0.6489  1.4116
15285TIP3   OH267269   0.675   4.167   0.198 -0.5653 -0.0421  0.3829
15285TIP3    H167270   0.627   4.096   0.154 -0.7049  1.0470 -1.2370
15285TIP3    H267271   0.731   4.121   0.262 -1.7958 -1.5024  0.4542
15286TIP3   OH267272   0.224   1.039   1.180  0.2556 -0.2424  0.7018
15286TIP3    H167273   0.129   1.033   1.173 -0.0867  4.1091  0.3843
15286TIP3    H267274   0.257   1.008   1.096 -0.9851 -0.0033  0.1175
15287TIP3   OH267275   0.617   6.387   4.045  0.1052  0.1422 -0.3707
15287TIP3    H167276   0.580   6.475   4.050 -0.6458 -0.0570 -2.1299
15287TIP3    H267277   0.541   6.329   4.049  0.5296 -0.4059 -0.2122
15288TIP3   OH267278   3.846   0.911  17.104 -0.0645  0.0949  0.3272
15288TIP3    H167279   3.890   0.865  17.175 -0.6109  2.5967  2.3989
15288TIP3    H267280   3.887   0.879  17.024  2.2899 -0.9715  1.9258
15289TIP3   OH267281   6.013   0.565  16.441  0.1842 -0.1609  0.2562
15289TIP3    H167282   5.944   0.570  16.506 -0.4358 -0.6588 -0.3545
15289TIP3    H267283   5.968   0.542  16.359  0.6254  2.8258 -0.8934
15290TIP3   OH267284   3.270   0.155   6.046  0.1437 -0.4628 -0.4383
15290TIP3    H167285   3.325   0.199   6.111 -1.3631  0.1358  0.4700
15290TIP3    H267286   3.246   0.072   6.086  0.2326 -0.6455 -0.7592
15291TIP3   OH267287   0.586   1.858  16.018  0.0769  0.3775  0.3164
15291TIP3    H167288   0.587   1.951  16.042 -1.6910  0.3165  0.7326
15291TIP3    H267289   0.511   1.849  15.960 -1.8416 -1.3828  2.9344
15292TIP3   OH267290   4.332   1.500   3.933  0.2365 -0.2749 -0.1332
15292TIP3    H167291   4.312   1.425   3.990 -0.7049  0.1940  0.1822
15292TIP3    H267292   4.426   1.513   3.943  0.1648 -0.4886  0.9840
15293TIP3   OH267293   2.836   0.789   2.839 -0.1026  0.4051  0.0583
15293TIP3    H167294   2.795   0.717   2.792  1.5728  0.0167 -0.8518
15293TIP3    H267295   2.769   0.857   2.843 -2.4784 -1.9612  2.8410
15294TIP3   OH267296   1.886   4.436   2.749  0.0041 -0.0433 -0.1402
15294TIP3    H167297   1.833   4.411   2.674  1.4715 -2.1967 -0.5143
15294TIP3    H267298   1.833   4.412   2.825 -0.5221  0.0124 -0.4863
15295TIP3   OH267299   0.218   1.788  12.550  0.7910  0.7207  0.6283
15295TIP3    H167300   0.166   1.717  12.588  2.3849 -0.8717 -0.0808
15295TIP3    H267301   0.181   1.800  12.463  0.3060  0.9780  0.8703
15296TIP3   OH267302   4.557   0.158   0.643  0.1599  0.7131  0.2960
15296TIP3    H167303   4.637   0.179   0.691 -0.2020  0.5935  0.9543
15296TIP3    H267304   4.570   0.197   0.557  0.6840  1.1988  0.5911
15297TIP3   OH267305   2.801   0.466  14.285  0.5432 -0.7243 -0.4150
15297TIP3    H167306   2.748   0.386  14.288  0.3896 -0.6323 -0.7048
15297TIP3    H267307   2.862   0.451  14.213  0.2355 -0.4031 -0.7405
15298TIP3   OH267308   0.736   0.714   4.023 -0.1053 -0.2313 -0.0315
15298TIP3    H167309   0.646   0.735   4.051  0.4894  1.3251  0.7565
15298TIP3    H267310   0.788   0.788   4.054  1.0900  0.0277 -2.5702
15299TIP3   OH267311   0.591   5.723   3.380  0.2191  0.2625  0.6301
15299TIP3    H167312   0.596   5.636   3.342 -1.2656  0.2147  0.4910
15299TIP3    H267313   0.532   5.713   3.455 -1.8198  1.5774 -0.7380
15300TIP3   OH267314   2.630   1.296   1.678 -0.8126  0.0758 -0.0510
15300TIP3    H167315   2.689   1.317   1.750  0.3340 -1.0341 -0.6442
15300TIP3    H267316   2.686   1.255   1.612 -2.2201 -0.9152 -0.6684
15301TIP3   OH267317   4.180   0.636   3.123 -0.2265  0.1202  0.1167
15301TIP3    H167318   4.216   0.606   3.207  2.2356  0.6369 -0.7126
15301TIP3    H267319   4.148   0.724   3.141  0.3956  0.2714  0.4961
15302TIP3   OH267320   2.787   0.257   2.315 -0.6655 -0.0019 -0.4867
15302TIP3    H167321   2.766   0.172   2.354  0.6968 -0.3293 -0.4334
15302TIP3    H267322   2.816   0.237   2.226 -0.1136  0.3762 -0.3967
15303TIP3   OH267323   2.713   3.414  16.543 -0.3114  0.1465 -0.2594
15303TIP3    H167324   2.802   3.381  16.558 -0.4187 -0.3032 -0.5866
15303TIP3    H267325   2.715   3.445  16.452 -1.1995 -2.2679 -1.1592
15304TIP3   OH267326   0.263   0.066   3.421 -0.2998  0.5626  0.0311
15304TIP3    H167327   0.282   0.156   3.395  1.6735  0.7073  1.8812
15304TIP3    H267328   0.197   0.075   3.491 -2.2326  0.3866 -1.7049
15305TIP3   OH267329   4.219   2.499   4.495  0.0818  0.2566 -0.1937
15305TIP3    H167330   4.130   2.469   4.474  0.0505  0.4191 -0.2955
15305TIP3    H267331   4.275   2.450   4.435  0.2578 -1.3558  1.2351
15306TIP3   OH267332   0.506   5.714   3.098 -0.2419 -0.1967 -0.6244
15306TIP3    H167333   0.466   5.774   3.035  0.0659 -0.2272 -0.8546
15306TIP3    H267334   0.434   5.687   3.155  0.0997  2.5615  1.2427
15307TIP3   OH267335   1.122   1.954   1.772 -0.1162  0.0872  0.4262
15307TIP3    H167336   1.078   2.039   1.764 -3.4352 -1.5806  0.2405
15307TIP3    H267337   1.131   1.941   1.866 -2.6608 -0.7850  0.6020
15308TIP3   OH267338   2.374   1.345  11.839 -0.8206 -0.1796 -0.3548
15308TIP3    H167339   2.400   1.253  11.849 -0.8126 -0.1847 -0.4211
15308TIP3    H267340   2.432   1.393  11.899 -1.1549 -0.2707  0.0384
15309TIP3   OH267341   1.877   6.439   0.399 -0.0228 -0.3223  0.1272
15309TIP3    H167342   1.817   6.369   0.425  2.0343 -1.3863  2.1971
15309TIP3    H267343   1.908   6.476   0.482  0.4420  1.7156 -0.9287
15310TIP3   OH267344   1.861   5.591  14.402  0.0877  0.2893  0.2166
15310TIP3    H167345   1.887   5.520  14.461  0.2689 -1.3765 -1.8137
15310TIP3    H267346   1.868   5.553  14.314 -0.7983  2.5173 -0.8508
15311TIP3   OH267347   1.713   3.049   0.661  0.2282  0.0523 -0.4054
15311TIP3    H167348   1.803   3.032   0.633 -0.3738  0.0408 -2.4005
15311TIP3    H267349   1.682   3.116   0.602 -0.4622  1.5028  1.5421
15312TIP3   OH267350   1.448   0.034  16.042  0.2621  0.7499 -0.0726
15312TIP3    H167351   1.428   0.035  16.135  1.2482 -0.0858  0.1655
15312TIP3    H267352   1.407   0.113  16.007 -0.7821  0.6560  0.9237
15313TIP3   OH267353   4.278   6.455  15.943 -0.0523  0.2579  0.5628
15313TIP3    H167354   4.190   6.418  15.934  0.1957  0.1611 -1.5644
15313TIP3    H267355   4.332   6.381  15.970 -0.0612 -0.3472 -1.0688
15314TIP3   OH267356   6.222   6.267   5.395 -0.3819 -0.6259  0.4550
15314TIP3    H167357   6.177   6.347   5.419 -0.6652 -0.9382  0.9770
15314TIP3    H267358   6.271   6.242   5.473 -0.9657 -1.4144  0.5823
15315TIP3   OH267359   4.214   4.801   1.371 -0.3567  0.0465 -0.0797
15315TIP3    H167360   4.309   4.803   1.382 -0.1543  0.3230 -1.7718
15315TIP3    H267361   4.193   4.883   1.326 -1.3921 -0.0280  0.2492
15316TIP3   OH267362   1.914   5.680   0.576 -0.4362 -0.2374 -0.6454
15316TIP3    H167363   1.934   5.643   0.490 -0.8799  0.3004 -0.9806
15316TIP3    H267364   1.881   5.605   0.627  1.9152 -1.0227 -0.2453
15317TIP3   OH267365   5.713   0.374  14.734 -0.0119 -0.0037  0.2358
15317TIP3    H167366   5.745   0.292  14.772 -1.3361 -0.1816  0.9645
15317TIP3    H267367   5.643   0.348  14.675  0.4959  0.4917 -0.6107
15318TIP3   OH267368   5.807   4.512  15.317 -0.3791 -0.2059  0.4748
15318TIP3    H167369   5.802   4.418  15.336 -2.6706  0.1946  2.0603
15318TIP3    H267370   5.862   4.518  15.238  0.1226 -2.8212  0.5819
15319TIP3   OH267371   5.313   2.017   1.352  1.3137  0.1500 -0.4656
15319TIP3    H167372   5.279   2.105   1.367  2.1209  0.2917  0.6293
15319TIP3    H267373   5.238   1.966   1.323  0.9228  1.2848 -1.4657
15320TIP3   OH267374   6.259   2.717  15.063 -0.0146  0.0462  0.1345
15320TIP3    H167375   6.337   2.706  15.009 -0.0947  1.3779 -0.2824
15320TIP3    H267376   6.186   2.712  15.002 -0.1076  1.4548  0.0995
15321TIP3   OH267377   1.060   3.450   3.747  0.2803  0.2597 -0.3244
15321TIP3    H167378   1.128   3.462   3.813  1.2029 -0.0736 -1.2116
15321TIP3    H267379   1.092   3.497   3.670 -0.7655  0.5970 -0.5708
15322TIP3   OH267380   3.176   6.245   5.869  0.0309  0.5457 -0.2267
15322TIP3    H167381   3.108   6.307   5.840  0.1965  2.3082  2.9111
15322TIP3    H267382   3.130   6.162   5.877 -1.2104  1.2045 -0.3586
15323TIP3   OH267383   0.273   3.500   3.766  0.0420  0.3442 -0.6003
15323TIP3    H167384   0.325   3.478   3.843 -2.7134 -0.4219  1.1119
15323TIP3    H267385   0.335   3.494   3.693  2.9585  2.0539  1.6077
15324TIP3   OH267386   5.128   3.382  11.282  1.0498  0.0331 -1.1095
15324TIP3    H167387   5.155   3.404  11.371  0.7492 -1.8541 -0.5395
15324TIP3    H267388   5.202   3.335  11.245  1.7450  2.0918 -2.3685
15325TIP3   OH267389   5.110   4.206   0.197  0.3088  0.3403  0.2223
15325TIP3    H167390   5.038   4.210   0.134  1.1209  2.1259 -0.6171
15325TIP3    H267391   5.146   4.118   0.187 -0.1523  0.2973 -1.1352
15326TIP3   OH267392   5.274   5.589   6.447 -0.0333 -0.2232  0.4054
15326TIP3    H167393   5.331   5.643   6.502 -0.0729  0.2528 -0.0276
15326TIP3    H267394   5.260   5.510   6.500  2.1256 -0.9410 -0.0207
15327TIP3   OH267395   3.997   3.531  12.446 -0.1004  0.4199 -0.0640
15327TIP3    H167396   3.926   3.557  12.388 -0.8956 -0.0940  0.6696
15327TIP3    H267397   4.035   3.454  12.404  0.2813  0.9274 -0.6561
15328TIP3   OH267398   2.853   4.170   1.707  0.2950 -0.0138  0.3490
15328TIP3    H167399   2.814   4.168   1.620 -0.8861 -0.7632  0.8828
15328TIP3    H267400   2.927   4.230   1.699 -0.2478  0.4889 -0.9839
15329TIP3   OH267401   3.052   6.197   5.461 -0.2624  0.0904  0.1625
15329TIP3    H167402   2.968   6.164   5.430  0.2004 -2.4378  1.5155
15329TIP3    H267403   3.093   6.122   5.504  3.5662  0.6934 -2.2553
15330TIP3   OH267404   1.831   6.158   1.909 -0.2999  0.0249 -0.0192
15330TIP3    H167405   1.832   6.138   1.816 -1.2371 -0.2681  0.0245
15330TIP3    H267406   1.827   6.254   1.914 -0.8285  0.0163 -0.2871
15331TIP3   OH267407   4.388   1.775  14.727  0.6575 -0.0885  0.0364
15331TIP3    H167408   4.484   1.771  14.721  1.0009  3.4348  1.7587
15331TIP3    H267409   4.368   1.752  14.817  0.0475  0.9009  0.1651
15332TIP3   OH267410   5.452   0.896   0.236 -0.1507  0.0745 -0.6702
15332TIP3    H167411   5.481   0.806   0.244  1.6748  0.6511 -0.5433
15332TIP3    H267412   5.509   0.945   0.296 -2.8696  0.9531  1.3287
15333TIP3   OH267413   4.583   4.359   0.670  0.4963 -0.2072  0.3970
15333TIP3    H167414   4.550   4.442   0.637  2.0104 -0.3283 -1.5329
15333TIP3    H267415   4.615   4.313   0.592  0.6276 -2.1597  1.5564
15334TIP3   OH267416   3.745   5.753  17.120 -0.4975  0.4602 -0.4746
15334TIP3    H167417   3.664   5.758  17.069 -1.0752  3.2805  0.6343
15334TIP3    H267418   3.728   5.808  17.197  2.3207  0.7404 -0.0034
15335TIP3   OH267419   3.099   4.282   1.664 -0.6686  0.2057  0.4342
15335TIP3    H167420   3.119   4.363   1.711  1.0409  0.6971 -1.1408
15335TIP3    H267421   3.183   4.247   1.637 -1.5708 -0.4185 -1.7154
15336TIP3   OH267422   1.971   1.717  16.972 -0.3801  1.0685 -0.1201
15336TIP3    H167423   1.979   1.790  16.911  0.8798  0.0994 -1.1374
15336TIP3    H267424   1.897   1.666  16.938  0.4628  0.4074 -0.9843
15337TIP3   OH267425   1.975   4.980  12.559 -0.2434  0.4793  0.2892
15337TIP3    H167426   1.923   5.014  12.631 -1.5859 -0.5978 -0.1453
15337TIP3    H267427   1.950   4.887  12.553  0.1668  0.4540 -1.2750
15338TIP3   OH267428   6.559   3.321  15.836  0.1836  0.0989 -0.1440
15338TIP3    H167429   6.465   3.322  15.855  0.2994  0.9390  0.4151
15338TIP3    H267430   6.566   3.280  15.750 -0.5211 -1.9552  0.7538
15339TIP3   OH267431   2.609   0.751   0.043 -0.4071 -0.0074  0.0521
15339TIP3    H167432   2.630   0.818   0.108 -1.1723  0.3886 -0.1137
15339TIP3    H267433   2.520   0.770   0.016  0.9748  1.8732 -3.5645
15340TIP3   OH267434   4.985   2.341   1.043  0.7126 -0.2707 -0.0370
15340TIP3    H167435   4.899   2.307   1.066  0.1815 -0.5682 -2.3668
15340TIP3    H267436   4.978   2.436   1.056  0.2335 -0.3519  0.3080
15341TIP3   OH267437   5.771   5.907  16.927 -0.2128 -0.0765  0.2983
15341TIP3    H167438   5.719   5.905  17.007  0.1875 -2.3407  0.5251
15341TIP3    H267439   5.859   5.880  16.955  0.6387  1.8878 -0.4102
15342TIP3   OH267440   0.271   1.861   3.036 -0.3810  0.4273  0.8781
15342TIP3    H167441   0.206   1.864   2.966 -0.6006  1.1591  1.1113
15342TIP3    H267442   0.225   1.820   3.110 -1.0624  2.3063  1.5323
15343TIP3   OH267443   5.206   0.913   0.638 -0.1213 -0.7255  0.0698
15343TIP3    H167444   5.203   0.973   0.712  3.3165  1.0315 -1.1097
15343TIP3    H267445   5.140   0.945   0.578  0.9771  1.3129 -0.0932
15344TIP3   OH267446   1.556   4.307  14.804 -0.2841 -0.0138 -0.2932
15344TIP3    H167447   1.627   4.248  14.778  0.3426  0.6312 -0.0391
15344TIP3    H267448   1.480   4.277  14.753  0.2210 -0.5668 -0.7215
15345TIP3   OH267449   1.656   5.941  16.188 -0.3744  0.7853 -0.3001
15345TIP3    H167450   1.740   5.988  16.191  0.0582 -0.0388  1.0837
15345TIP3    H267451   1.633   5.928  16.280 -1.9289  0.8197 -0.6762
15346TIP3   OH267452   1.287   5.572  13.230 -0.2344  0.4122  0.6152
15346TIP3    H167453   1.339   5.642  13.269 -0.5339  1.2901 -0.5133
15346TIP3    H267454   1.322   5.491  13.268 -0.8154  1.2475  3.0087
15347TIP3   OH267455   2.314   5.426  16.812  0.0429  0.0833  0.4219
15347TIP3    H167456   2.296   5.491  16.744  1.0226  0.6643  0.7021
15347TIP3    H267457   2.369   5.360  16.769 -1.1498 -0.6949  0.0740
15348TIP3   OH267458   3.200   5.608  17.234  0.3304  0.2061 -0.1481
15348TIP3    H167459   3.171   5.553  17.306  0.2295  0.8456  0.2978
15348TIP3    H267460   3.193   5.551  17.157 -0.2522 -0.2492  0.2333
15349TIP3   OH267461   2.724   2.053   1.219  0.5445 -0.2582  0.5537
15349TIP3    H167462   2.639   2.095   1.208  0.2031 -0.9268  0.6146
15349TIP3    H267463   2.775   2.115   1.270  0.8262  1.1398 -1.3676
15350TIP3   OH267464   3.858   0.810   5.869  0.2502  0.1632 -0.2716
15350TIP3    H167465   3.764   0.826   5.866 -0.0046 -0.9197  1.2843
15350TIP3    H267466   3.890   0.870   5.937  0.4710 -0.3706  0.1022
15351TIP3   OH267467   6.494   5.105  10.986 -0.0293 -0.7507 -0.9546
15351TIP3    H167468   6.476   5.109  10.892 -2.3683 -0.2638 -0.5346
15351TIP3    H267469   6.426   5.048  11.022 -0.8334  1.1815  0.7664
15352TIP3   OH267470   4.714   5.971   2.000 -0.9931  0.1217  0.1778
15352TIP3    H167471   4.743   6.062   1.989 -0.7888  0.1344  0.8044
15352TIP3    H267472   4.759   5.923   1.930 -0.8975  0.4519  0.0087
15353TIP3   OH267473   0.610   0.225  14.832 -0.0422 -0.6457  0.5703
15353TIP3    H167474   0.519   0.234  14.805 -0.0910 -0.3063  0.8521
15353TIP3    H267475   0.650   0.172  14.763 -0.2616 -0.1033  0.0225
15354TIP3   OH267476   5.804   5.681   2.559  0.3752  0.3752  0.3997
15354TIP3    H167477   5.734   5.706   2.498 -0.4056 -0.2423  1.0331
15354TIP3    H267478   5.871   5.748   2.547 -0.4107  1.0906 -0.0730
15355TIP3   OH267479   5.405   5.564   2.009 -0.3138 -0.2651  0.2345
15355TIP3    H167480   5.384   5.498   2.075 -0.0207 -2.0504 -1.4159
15355TIP3    H267481   5.336   5.555   1.943  0.8515 -0.3146 -1.0013
15356TIP3   OH267482   1.779   2.014   6.147  0.1862  0.1660 -0.2532
15356TIP3    H167483   1.863   2.029   6.104  0.8049 -0.9805  0.5328
15356TIP3    H267484   1.749   1.930   6.113 -0.3670  0.2977 -0.0971
15357TIP3   OH267485   2.433   3.673  16.215  0.2481 -0.5322 -0.0170
15357TIP3    H167486   2.342   3.697  16.199 -0.3769 -1.8724  1.5093
15357TIP3    H267487   2.480   3.705  16.137 -1.8927 -2.1470 -2.0163
15358TIP3   OH267488   2.333   2.429   5.340  0.1350  0.1700  0.7755
15358TIP3    H167489   2.336   2.444   5.434 -2.1833  1.9986  0.5962
15358TIP3    H267490   2.383   2.502   5.302  0.1005  0.0721  0.5401
15359TIP3   OH267491   5.594   4.690  11.257  0.8156 -0.1751  0.1557
15359TIP3    H167492   5.501   4.684  11.235  0.9397  0.6393 -0.6167
15359TIP3    H267493   5.597   4.681  11.353 -0.0771  0.0263  0.2011
15360TIP3   OH267494   2.250   1.677   3.524  0.1680  0.1518 -0.1389
15360TIP3    H167495   2.160   1.647   3.520  0.4093 -0.5789 -0.2080
15360TIP3    H267496   2.269   1.683   3.618  0.1392  0.0195 -0.1243
15361TIP3   OH267497   1.208   6.716  12.106  0.7463  0.3169  0.1050
15361TIP3    H167498   1.240   6.728  12.016 -1.9521  0.7785 -0.8348
15361TIP3    H267499   1.247   6.789  12.154 -0.3498  1.9711 -1.4272
15362TIP3   OH267500   0.462   5.858   4.065 -0.2644  0.2919  0.6076
15362TIP3    H167501   0.493   5.814   4.144  3.8237 -1.3162 -1.7093
15362TIP3    H267502   0.527   5.927   4.050 -0.7592  0.3298 -1.5217
15363TIP3   OH267503   1.820   3.940   3.995 -0.2136  0.8403  0.6922
15363TIP3    H167504   1.732   3.975   3.985 -0.5223  0.0863  0.7680
15363TIP3    H267505   1.813   3.848   3.969  0.8185  1.0931 -0.5628
15364TIP3   OH267506   4.553   6.450  16.889  0.1875 -0.0614  0.6215
15364TIP3    H167507   4.549   6.447  16.984  1.5653  1.8973  0.7666
15364TIP3    H267508   4.628   6.394  16.866  0.4404  0.2260  0.7477
15365TIP3   OH267509   2.119   1.597   2.336 -0.1717  0.0936  0.3080
15365TIP3    H167510   2.134   1.639   2.251 -0.2910  0.9302  0.6938
15365TIP3    H267511   2.137   1.666   2.400  1.2849 -0.9057  1.0177
15366TIP3   OH267512   1.023   2.258  14.256  0.3024 -0.2553 -0.2167
15366TIP3    H167513   0.972   2.312  14.195  0.7678 -2.2261 -2.4237
15366TIP3    H267514   1.109   2.298  14.258  0.3527 -0.3043 -1.0760
15367TIP3   OH267515   2.116   4.792  13.097 -0.2862 -0.2052 -0.5234
15367TIP3    H167516   2.031   4.766  13.061 -0.2211  0.5896 -1.2790
15367TIP3    H267517   2.146   4.862  13.039  1.1319 -0.8329 -0.5604
15368TIP3   OH267518   2.097   5.456   5.305 -0.1587 -0.5132 -0.2788
15368TIP3    H167519   2.119   5.499   5.388 -0.7492  1.3454 -1.0619
15368TIP3    H267520   2.133   5.514   5.238 -1.3895 -1.0136 -1.3853
15369TIP3   OH267521   4.172   2.351  15.496  0.2478  0.0783 -0.6872
15369TIP3    H167522   4.192   2.409  15.570  0.2418 -2.9471  1.7876
15369TIP3    H267523   4.088   2.312  15.518  0.0948 -0.6379 -2.4711
15370TIP3   OH267524   1.087   4.923   5.820  0.4641  0.2839 -0.7543
15370TIP3    H167525   1.181   4.904   5.828  0.2776 -0.0063  0.7487
15370TIP3    H267526   1.071   4.991   5.886 -0.5466 -0.2308 -0.4704
15371TIP3   OH267527   2.472   3.825   2.078 -0.0014  0.0740  0.6297
15371TIP3    H167528   2.491   3.778   2.159 -3.5155  0.2540  1.6652
15371TIP3    H267529   2.473   3.917   2.103  1.2601  0.2473 -0.0739
15372TIP3   OH267530   4.583   4.615   2.642 -0.2454  0.4795 -0.0991
15372TIP3    H167531   4.608   4.704   2.615 -1.0016  1.1786  1.4057
15372TIP3    H267532   4.664   4.578   2.678 -0.2892  1.1245  0.6844
15373TIP3   OH267533   3.565   6.355  16.379 -0.3607 -0.2987 -0.2222
15373TIP3    H167534   3.651   6.395  16.378 -1.2077  1.6572  1.5851
15373TIP3    H267535   3.561   6.307  16.462 -0.2913 -2.0895 -1.2178
15374TIP3   OH267536   2.426   0.144   6.336 -0.1354  0.3527  0.2427
15374TIP3    H167537   2.450   0.237   6.330 -0.6947  0.5270  0.7290
15374TIP3    H267538   2.401   0.131   6.427  1.2064 -0.5919  0.4922
15375TIP3   OH267539   2.522   3.092   2.124 -0.6853 -0.0596  0.1616
15375TIP3    H167540   2.541   3.086   2.217  0.8431  1.5112 -0.0137
15375TIP3    H267541   2.523   3.001   2.093  0.5487 -0.4817  1.3582
15376TIP3   OH267542   3.175   4.159  16.304  0.0724 -0.0300 -0.4875
15376TIP3    H167543   3.142   4.215  16.374 -0.5506 -1.7196  0.6085
15376TIP3    H267544   3.188   4.074  16.345  1.1347 -0.6762 -2.0841
15377TIP3   OH267545   6.138   2.391   0.480  0.0294  0.1598 -0.6765
15377TIP3    H167546   6.078   2.428   0.545 -0.2864 -0.6437 -0.5037
15377TIP3    H267547   6.171   2.466   0.432  0.3092  0.7720  0.4535
15378TIP3   OH267548   6.342   2.070  14.135 -0.2901 -0.0213 -0.2577
15378TIP3    H167549   6.348   1.998  14.198  0.1443 -0.9526 -1.3547
15378TIP3    H267550   6.253   2.065  14.100 -0.0352 -0.4512 -0.8426
15379TIP3   OH267551   6.729   4.638  14.529 -0.2517 -0.5392 -0.2436
15379TIP3    H167552   6.751   4.722  14.487 -0.2189 -0.7687 -0.6901
15379TIP3    H267553   6.635   4.629  14.515 -0.2681 -0.5445 -0.1330
15380TIP3   OH267554   3.973   3.926  12.743 -0.3906 -0.1810 -0.0254
15380TIP3    H167555   3.961   3.976  12.662 -0.7251 -0.3107 -0.0529
15380TIP3    H267556   4.021   3.848  12.716 -0.6386 -0.2988 -0.1208
15381TIP3   OH267557   3.295   5.729  11.669  0.2380  0.0528  0.0874
15381TIP3    H167558   3.256   5.687  11.593 -1.6777  2.6409 -0.4220
15381TIP3    H267559   3.364   5.669  11.697  0.4815 -1.2866 -3.2090
15382TIP3   OH267560   5.245   5.711  14.668  0.2311 -0.3277  0.0105
15382TIP3    H167561   5.238   5.653  14.593 -0.9705 -0.5046  0.2583
15382TIP3    H267562   5.257   5.653  14.743 -1.5402 -0.2975  0.3330
15383TIP3   OH267563   5.861   1.691  13.355 -0.1411  0.1777  0.0018
15383TIP3    H167564   5.887   1.618  13.411 -0.9047  0.9980  1.4430
15383TIP3    H267565   5.844   1.651  13.270 -0.2432 -1.2803  0.6956
15384TIP3   OH267566   5.194   3.978   0.105 -0.2155 -0.4881 -0.0047
15384TIP3    H167567   5.196   3.893   0.149 -1.6934  0.0260  1.0716
15384TIP3    H267568   5.132   3.966   0.033 -0.2257 -0.3934 -0.0120
15385TIP3   OH267569   0.567   3.617  12.532  0.0383 -0.4209  0.1440
15385TIP3    H167570   0.499   3.579  12.588 -0.1948 -0.6225 -0.2757
15385TIP3    H267571   0.586   3.549  12.468  0.7452 -0.4211  0.3493
15386TIP3   OH267572   2.497   0.293  12.823 -0.6790 -0.2089  0.2621
15386TIP3    H167573   2.449   0.272  12.743 -2.2713 -2.3512  1.7123
15386TIP3    H267574   2.525   0.383  12.811 -0.9829 -0.4588 -2.6570
15387TIP3   OH267575   2.082   0.672  11.398 -0.4647  0.0695  0.2653
15387TIP3    H167576   2.165   0.644  11.435 -0.4659 -0.9774 -0.4952
15387TIP3    H267577   2.103   0.748  11.344  0.1398 -0.7058 -0.5999
15388TIP3   OH267578   4.903   6.064  16.623  0.3936  0.4268  0.1980
15388TIP3    H167579   4.981   6.009  16.631  0.9855  1.4950  1.9958
15388TIP3    H267580   4.907   6.098  16.533  1.2614 -0.6009 -0.1710
15389TIP3   OH267581   6.190   1.543  15.622 -0.7009 -0.0468 -0.3426
15389TIP3    H167582   6.166   1.578  15.707  0.0540 -0.5009  0.0594
15389TIP3    H267583   6.119   1.482  15.601 -0.9942  0.2238 -0.1414
15390TIP3   OH267584   3.420   6.644   4.129  0.4105 -0.4113  0.0400
15390TIP3    H167585   3.369   6.613   4.054 -0.8097 -0.2548  0.7863
15390TIP3    H267586   3.416   6.739   4.123 -1.2688 -0.3854  1.3355
15391TIP3   OH267587   5.805   4.335  10.838 -0.0368 -0.2419 -0.1680
15391TIP3    H167588   5.803   4.245  10.807 -0.1186 -0.3781  0.2261
15391TIP3    H267589   5.883   4.373  10.798  0.3818 -0.6881  0.2155
15392TIP3   OH267590   1.721   3.019  13.611 -0.8214  0.5564  0.2353
15392TIP3    H167591   1.782   2.949  13.586 -0.5661  1.3741 -1.4943
15392TIP3    H267592   1.767   3.067  13.680  1.0391  1.8689 -1.8390
15393TIP3   OH267593   0.170   3.643   1.620 -0.8057  0.1262 -0.3632
15393TIP3    H167594   0.091   3.689   1.646 -0.7012  1.2619 -2.0103
15393TIP3    H267595   0.138   3.562   1.579 -0.9975 -1.0615  2.0255
15394TIP3   OH267596   5.717   3.479  11.549  0.5491  0.0121  0.1515
15394TIP3    H167597   5.716   3.573  11.532  0.4901 -0.4002 -2.2989
15394TIP3    H267598   5.752   3.440  11.469  0.6332 -2.0528  1.1499
15395TIP3   OH267599   2.202   5.596  15.802  0.5005 -0.1498 -0.1711
15395TIP3    H167600   2.160   5.640  15.876 -1.5233 -1.6216 -0.4219
15395TIP3    H267601   2.293   5.585  15.830 -0.1971 -0.5953  2.0772
15396TIP3   OH267602   0.775   1.997  11.325  0.6507  0.8263  0.3551
15396TIP3    H167603   0.686   1.965  11.342  0.1845  1.3765 -0.9890
15396TIP3    H267604   0.764   2.092  11.313  1.2903  0.7763 -0.6798
15397TIP3   OH267605   1.968   6.159   2.150  0.3118 -0.6744 -0.2588
15397TIP3    H167606   2.034   6.220   2.118 -0.5711  0.5207  0.1828
15397TIP3    H267607   1.940   6.111   2.072  1.3757 -0.8842 -0.5184
15398TIP3   OH267608   6.038   6.259   2.160 -0.7621  0.1232  0.5458
15398TIP3    H167609   5.952   6.250   2.119 -0.0861 -0.0404 -0.8487
15398TIP3    H267610   6.018   6.279   2.252 -2.2775 -0.7681  0.4300
15399TIP3   OH267611   6.398   1.073   2.916 -0.5773  0.1525 -0.0174
15399TIP3    H167612   6.339   1.113   2.980  1.8420  1.5638  1.4104
15399TIP3    H267613   6.447   1.147   2.880  0.0654 -0.9435 -1.4314
15400TIP3   OH267614   6.526   0.690  15.461 -0.0297  0.4173 -0.0328
15400TIP3    H167615   6.531   0.681  15.366  1.4384  1.0487 -0.0226
15400TIP3    H267616   6.518   0.785  15.475 -1.7378  0.2246  0.4198
15401TIP3   OH267617   6.402   0.796   1.861 -0.5554  0.0594 -0.4709
15401TIP3    H167618   6.407   0.850   1.940  3.5958 -1.0581  0.1578
15401TIP3    H267619   6.372   0.710   1.892 -0.3214  0.0255 -0.3382
15402TIP3   OH267620   4.595   5.450  16.578  0.1211 -0.3391 -0.2416
15402TIP3    H167621   4.645   5.520  16.535  0.7681 -0.6224  0.0467
15402TIP3    H267622   4.640   5.435  16.660  1.4787 -2.8247 -1.4042
15403TIP3   OH267623   1.326   5.621  12.607  0.3594 -0.1727  0.2327
15403TIP3    H167624   1.331   5.558  12.679  0.8636 -0.6922 -0.2531
15403TIP3    H267625   1.373   5.579  12.535  0.7097  0.7666 -0.0938
15404TIP3   OH267626   1.922   3.964   0.797 -0.7986  0.4295  0.4513
15404TIP3    H167627   1.891   4.051   0.822 -0.1840  0.4504  1.1708
15404TIP3    H267628   1.944   3.922   0.880 -0.7404 -0.2742  0.0813
15405TIP3   OH267629   1.818   0.810  11.234  0.4999 -0.0250 -0.1588
15405TIP3    H167630   1.827   0.745  11.163  1.1465 -0.3748  0.2387
15405TIP3    H267631   1.806   0.893  11.188  0.8795 -0.2553 -0.6872
15406TIP3   OH267632   2.187   1.393   3.311  0.1017 -0.0386  0.0814
15406TIP3    H167633   2.126   1.466   3.312  1.8198  1.4237  0.2570
15406TIP3    H267634   2.154   1.335   3.242 -0.3123  1.7645 -1.2865
15407TIP3   OH267635   3.304   2.259   6.291 -0.3357  0.4559  0.0625
15407TIP3    H167636   3.222   2.224   6.324  0.0661 -0.3027  0.2736
15407TIP3    H267637   3.371   2.217   6.344  0.1917  1.0879 -0.0911
15408TIP3   OH267638   3.005   1.720   0.969 -0.4396 -0.2038 -0.0676
15408TIP3    H167639   2.952   1.800   0.971  2.0576  1.5235 -0.2656
15408TIP3    H267640   3.005   1.694   0.877  0.8532  1.1036 -0.4695
15409TIP3   OH267641   3.965   6.607   0.170  0.5311 -0.2430  0.0078
15409TIP3    H167642   4.012   6.666   0.229 -0.2210  0.3100  0.0510
15409TIP3    H267643   3.920   6.545   0.228  0.7958 -0.4718 -0.0253
15410TIP3   OH267644   3.103   3.382  13.915 -0.2706 -0.3919 -0.0436
15410TIP3    H167645   3.147   3.323  13.854  0.1038 -0.6755  0.4976
15410TIP3    H267646   3.173   3.441  13.945 -0.5093 -0.0789 -0.0995
15411TIP3   OH267647   5.591   1.222   0.642  0.7301  0.5405 -0.2272
15411TIP3    H167648   5.567   1.305   0.684  1.2146 -0.6619  2.5437
15411TIP3    H267649   5.634   1.248   0.560 -1.3458  2.9329 -0.6019
15412TIP3   OH267650   5.411   5.552  17.039  0.1389  0.3793  0.6829
15412TIP3    H167651   5.491   5.583  16.996  1.0723 -0.9065  1.4448
15412TIP3    H267652   5.356   5.521  16.967  0.9665 -0.1478  0.2663
15413TIP3   OH267653   4.041   2.821  13.988 -0.7569  0.5914 -0.1237
15413TIP3    H167654   4.029   2.904  14.033 -0.0389  0.5159  0.2141
15413TIP3    H267655   4.032   2.842  13.895  0.9039  1.3088 -0.1228
15414TIP3   OH267656   3.969   5.525  11.376  0.7000 -0.1604 -0.3888
15414TIP3    H167657   3.882   5.534  11.336  0.6644  1.7158  0.0732
15414TIP3    H267658   4.018   5.470  11.316 -0.2195  0.3592 -1.6252
15415TIP3   OH267659   3.345   4.492   3.734  0.6053 -0.0929 -0.2571
15415TIP3    H167660   3.330   4.504   3.641 -1.1778  1.1439  0.1709
15415TIP3    H267661   3.372   4.578   3.766 -0.7307 -0.0033  0.7013
15416TIP3   OH267662   2.177   6.784   3.014  0.3855 -0.1543 -0.7635
15416TIP3    H167663   2.083   6.801   3.006  0.2426 -0.4964  0.1336
15416TIP3    H267664   2.218   6.870   3.002 -0.0471  0.0131 -1.0606
15417TIP3   OH267665   5.401   1.294  13.581 -0.3928 -0.0459  0.0415
15417TIP3    H167666   5.311   1.271  13.559 -0.4792  0.1402  0.1943
15417TIP3    H267667   5.450   1.213  13.571 -0.6930 -0.2977  0.5710
15418TIP3   OH267668   2.802   1.309   0.101 -0.4577  0.8403 -0.1746
15418TIP3    H167669   2.892   1.331   0.075 -0.2168  0.7807  0.5877
15418TIP3    H267670   2.751   1.320   0.021  0.2637  0.6684 -0.6724
15419TIP3   OH267671   2.434   0.104   2.207 -0.1533  0.2096  0.0591
15419TIP3    H167672   2.439   0.148   2.292 -0.6210  1.5872 -0.6028
15419TIP3    H267673   2.352   0.137   2.168  0.7768  0.7163 -1.5260
15420TIP3   OH267674   6.363   1.970   6.036 -0.1670  0.0625 -0.2601
15420TIP3    H167675   6.368   1.954   6.130  0.4191 -0.5076 -0.3916
15420TIP3    H267676   6.308   2.048   6.028  0.4239  0.5693  0.5997
15421TIP3   OH267677   3.424   2.690  16.490  0.0974 -0.3122 -0.1952
15421TIP3    H167678   3.515   2.685  16.459  0.2990  0.1213  0.3115
15421TIP3    H267679   3.432   2.702  16.585 -0.4619  0.8920 -0.2878
15422TIP3   OH267680   3.499   2.667   4.028 -0.2105  0.0193 -0.4179
15422TIP3    H167681   3.503   2.579   4.066  0.0050  0.3480  0.3195
15422TIP3    H267682   3.442   2.657   3.952  0.5828 -0.9601 -0.8918
15423TIP3   OH267683   4.784   2.293  15.244  0.2405 -0.0062 -0.5427
15423TIP3    H167684   4.769   2.387  15.250  1.4192  0.2609 -1.7124
15423TIP3    H267685   4.713   2.260  15.189 -0.2712  0.1573  0.0089
15424TIP3   OH267686   6.327   5.359   3.726 -0.1752  0.1585 -0.8354
15424TIP3    H167687   6.304   5.272   3.760  1.7407  0.0975  0.3613
15424TIP3    H267688   6.243   5.402   3.711 -1.1298 -1.7008 -0.9235
15425TIP3   OH267689   6.311   3.625  14.649 -0.6376  0.4308  0.0210
15425TIP3    H167690   6.234   3.589  14.604 -0.7150 -1.6762  1.8161
15425TIP3    H267691   6.353   3.681  14.583 -0.6414 -2.7487 -2.7969
15426TIP3   OH267692   4.445   2.239   6.484  0.2894 -0.5250 -0.4490
15426TIP3    H167693   4.387   2.201   6.549  0.6370 -0.3392 -0.0274
15426TIP3    H267694   4.452   2.331   6.508 -0.3295 -0.2514 -1.3035
15427TIP3   OH267695   5.481   3.534   6.935  0.3498  0.4482 -0.5777
15427TIP3    H167696   5.406   3.589   6.916 -0.1241  0.2836  0.7319
15427TIP3    H267697   5.538   3.543   6.859 -0.1693  1.9774 -0.8056
15428TIP3   OH267698   3.874   3.746  13.853 -0.6884  0.0839 -0.0666
15428TIP3    H167699   3.940   3.677  13.862  0.2964  0.9747 -0.3038
15428TIP3    H267700   3.921   3.818  13.810 -1.6394  0.9739  0.3744
15429TIP3   OH267701   0.920   3.377   0.500  0.1717 -0.2330 -0.3075
15429TIP3    H167702   0.856   3.354   0.432  1.0024 -1.7871 -0.5987
15429TIP3    H267703   0.991   3.313   0.488  0.7114  0.0071  1.4830
15430TIP3   OH267704   1.482   2.716   0.086  0.0894 -0.4379 -0.2350
15430TIP3    H167705   1.501   2.809   0.083 -0.2895 -0.3947 -1.6390
15430TIP3    H267706   1.508   2.683   0.000 -1.6414 -1.2544 -0.4821
15431TIP3   OH267707   1.330   3.787  17.126 -0.1505 -0.7840 -0.0973
15431TIP3    H167708   1.340   3.698  17.161 -0.7030 -0.5750  0.6000
15431TIP3    H267709   1.255   3.781  17.067  1.0544 -1.2400 -1.6125
15432TIP3   OH267710   5.493   0.847   5.738 -0.9137 -0.2126  0.8450
15432TIP3    H167711   5.441   0.830   5.817 -1.5748  0.3523  0.5331
15432TIP3    H267712   5.433   0.892   5.679 -0.1550  0.1659  0.3624
15433TIP3   OH267713   4.271   5.734  14.929  0.9566  0.2611  0.7172
15433TIP3    H167714   4.180   5.709  14.944  1.5768 -1.6889  1.3389
15433TIP3    H267715   4.271   5.776  14.843 -0.6339  0.8823  1.0084
15434TIP3   OH267716   3.840   1.028  12.299  0.2332 -0.0696  0.0308
15434TIP3    H167717   3.844   1.044  12.205  1.6250 -0.7854 -0.0373
15434TIP3    H267718   3.778   0.955  12.308  0.2152 -0.1015 -0.3425
15435TIP3   OH267719   0.755   3.635  16.082  0.4209 -0.0234  0.1359
15435TIP3    H167720   0.803   3.652  16.163 -1.8152  1.2650  1.2225
15435TIP3    H267721   0.798   3.692  16.018  1.9154 -0.7153  0.4904
15436TIP3   OH267722   4.777   0.118  15.139  0.0243  0.3510  0.3107
15436TIP3    H167723   4.782   0.036  15.088 -0.2913 -0.9129  2.2557
15436TIP3    H267724   4.833   0.179  15.091  1.6154 -1.5078 -0.2747
15437TIP3   OH267725   1.502   2.224  10.927 -0.0030  0.1263  0.4969
15437TIP3    H167726   1.438   2.158  10.954 -0.5416 -0.1568 -1.3815
15437TIP3    H267727   1.580   2.174  10.902 -0.8526  0.0504 -2.1679
15438TIP3   OH267728   6.576   4.665   4.373 -0.1719  0.3127  0.1847
15438TIP3    H167729   6.639   4.702   4.312  1.4440 -0.0386  1.6267
15438TIP3    H267730   6.594   4.709   4.456 -0.6813 -1.0302  1.0135
15439TIP3   OH267731   1.282   2.388  11.110 -0.1478 -0.2949  0.5749
15439TIP3    H167732   1.337   2.460  11.080 -0.4965 -0.8882 -1.5610
15439TIP3    H267733   1.227   2.427  11.179 -0.0651  1.3878 -0.2735
15440TIP3   OH267734   3.275   5.176   0.559 -0.0304 -0.4386  0.6069
15440TIP3    H167735   3.180   5.182   0.555  0.1387  1.5634 -1.2484
15440TIP3    H267736   3.294   5.082   0.548 -1.7103 -0.6315 -0.7927
15441TIP3   OH267737   6.493   4.453   3.101 -0.6494 -0.3092  0.0477
15441TIP3    H167738   6.398   4.450   3.089 -0.6589 -0.2993  0.1190
15441TIP3    H267739   6.520   4.361   3.095 -0.3767 -0.1163 -2.2083
15442TIP3   OH267740   2.465   5.178   0.799 -0.3317  0.3232 -0.1961
15442TIP3    H167741   2.523   5.254   0.805  0.6130 -0.3777 -0.4170
15442TIP3    H267742   2.509   5.111   0.852 -0.8844 -0.2429 -0.4572
15443TIP3   OH267743   0.406   1.714  16.248 -1.1348 -0.3845  0.1817
15443TIP3    H167744   0.366   1.769  16.181  0.0258  0.8743  0.5060
15443TIP3    H267745   0.374   1.749  16.331  1.0836  1.0589  0.4802
15444TIP3   OH267746   0.329   1.736   4.459 -0.2596  0.4379  0.6323
15444TIP3    H167747   0.270   1.764   4.530 -0.0837  1.9509  0.1874
15444TIP3    H267748   0.399   1.801   4.459  1.1447 -1.0414  0.7861
15445TIP3   OH267749   1.264   5.042   0.189 -0.1709 -0.0968  0.7037
15445TIP3    H167750   1.185   4.991   0.173  0.3860 -0.4750 -0.9263
15445TIP3    H267751   1.334   4.994   0.144  0.7360  0.9640  0.9399
15446TIP3   OH267752   3.311   2.010  17.150  0.1285  0.4093 -0.4685
15446TIP3    H167753   3.265   1.979  17.227 -0.9712 -0.3501 -1.4137
15446TIP3    H267754   3.379   2.069  17.184  1.0236 -1.5572  1.2115
15447TIP3   OH267755   5.859   3.324   5.231 -0.0908  0.1887 -0.2877
15447TIP3    H167756   5.770   3.326   5.196 -0.5399  1.0779  0.8937
15447TIP3    H267757   5.880   3.415   5.250  0.0246 -0.2833  2.0407
15448TIP3   OH267758   5.654   2.808  15.534 -0.1612  0.4208  0.3379
15448TIP3    H167759   5.697   2.782  15.616 -1.8411 -0.7546  0.8676
15448TIP3    H267760   5.561   2.808  15.555 -0.5677  0.6173 -1.4382
15449TIP3   OH267761   1.697   6.019  11.563  0.0436 -0.5362  0.0276
15449TIP3    H167762   1.636   6.033  11.636  0.8383 -1.3573  0.8592
15449TIP3    H267763   1.668   6.081  11.496 -1.4363 -0.6067  0.5772
15450TIP3   OH267764   6.194   5.243   0.280 -0.1027 -0.1048 -0.2709
15450TIP3    H167765   6.265   5.179   0.284 -0.6642 -0.8914 -2.3773
15450TIP3    H267766   6.134   5.216   0.349  1.0666 -0.1034  0.7810
15451TIP3   OH267767   0.232   5.935   1.255  0.1292  0.4188 -0.2593
15451TIP3    H167768   0.313   5.900   1.292 -0.4231 -0.2923  0.2947
15451TIP3    H267769   0.255   6.022   1.223  0.5544  1.1768  2.0296
15452TIP3   OH267770   6.166   0.230   1.203 -0.0353 -0.1538  0.2730
15452TIP3    H167771   6.175   0.151   1.151  0.5673 -0.8379  1.3915
15452TIP3    H267772   6.139   0.199   1.290 -0.5752  0.9227  0.4989
15453TIP3   OH267773   3.998   0.585  12.575  0.0409 -0.1272  0.1380
15453TIP3    H167774   3.956   0.536  12.646  0.8389 -2.5406 -1.0105
15453TIP3    H267775   4.070   0.528  12.546  0.3536  1.2742 -1.9222
15454TIP3   OH267776   0.225   3.558   5.157 -0.5439 -0.0511 -0.4111
15454TIP3    H167777   0.143   3.564   5.109 -0.3242 -1.0827 -0.9249
15454TIP3    H267778   0.232   3.466   5.181  1.0581 -0.2133 -1.4353
15455TIP3   OH267779   5.968   5.776  15.860 -0.5973  0.1507  0.0275
15455TIP3    H167780   5.993   5.783  15.768  1.0641 -0.1004  0.4421
15455TIP3    H267781   5.878   5.744  15.859 -0.4929 -0.1068 -1.5004
15456TIP3   OH267782   5.841   5.895   5.949 -0.7202 -0.7321  0.4704
15456TIP3    H167783   5.773   5.962   5.943  1.7319  1.8381  1.0064
15456TIP3    H267784   5.865   5.892   6.041 -0.0056 -1.5868  0.2686
15457TIP3   OH267785   0.490   3.813  15.587  0.6616  0.9085  0.0915
15457TIP3    H167786   0.498   3.908  15.577  2.8127  0.8551  0.9953
15457TIP3    H267787   0.412   3.790  15.536 -0.1439  3.2068  0.2330
15458TIP3   OH267788   0.234   2.985   3.599  0.4365 -0.1320 -0.0458
15458TIP3    H167789   0.221   3.080   3.594  2.2333  0.1296 -0.1136
15458TIP3    H267790   0.175   2.950   3.532 -1.1140  0.8251  0.7737
15459TIP3   OH267791   0.140   3.317   5.280 -0.3168 -0.6189 -0.3060
15459TIP3    H167792   0.168   3.277   5.363  0.9388  1.9031  0.5269
15459TIP3    H267793   0.059   3.362   5.301 -0.5658 -0.8681 -0.7263
15460TIP3   OH267794   4.451   2.476  16.372 -1.0361  0.4602 -0.2851
15460TIP3    H167795   4.404   2.394  16.386 -0.0942 -0.1997 -0.9554
15460TIP3    H267796   4.462   2.481  16.277 -0.8055  1.2033 -0.2208
15461TIP3   OH267797   2.082   2.407   3.929  0.5251  0.3939  0.2324
15461TIP3    H167798   2.016   2.465   3.891  1.1257  1.0351  0.1738
15461TIP3    H267799   2.034   2.359   3.996 -0.3885 -0.2906 -0.8833
15462TIP3   OH267800   3.845   2.905   6.652  0.1544  0.2622  0.1068
15462TIP3    H167801   3.817   2.816   6.634  4.0595 -0.5448 -2.7464
15462TIP3    H267802   3.905   2.897   6.726 -0.4798  0.7254  0.6782
15463TIP3   OH267803   4.695   1.497   4.913 -0.4232 -0.5082 -0.3619
15463TIP3    H167804   4.784   1.520   4.884 -0.7571 -0.2532 -1.2094
15463TIP3    H267805   4.649   1.473   4.832 -1.7461  1.4630 -0.2480
15464TIP3   OH267806   3.938   1.495  15.156 -0.3603 -0.1469  0.1700
15464TIP3    H167807   3.905   1.584  15.142  0.9180  0.2003 -0.7717
15464TIP3    H267808   3.889   1.442  15.094  0.6351  0.3162 -1.0241
15465TIP3   OH267809   0.171   0.708   1.782 -0.3171  0.0366  0.0637
15465TIP3    H167810   0.172   0.614   1.762  0.1326 -0.4497  2.1771
15465TIP3    H267811   0.085   0.723   1.821 -0.9549  0.8285 -1.6202
15466TIP3   OH267812   1.864   3.802   0.307  0.1269 -0.5594 -0.3102
15466TIP3    H167813   1.899   3.832   0.391  1.5429  1.8859 -1.7225
15466TIP3    H267814   1.792   3.863   0.288 -0.4076 -1.3120 -0.7174
15467TIP3   OH267815   1.149   3.949  11.566 -0.5324  1.0413 -0.1555
15467TIP3    H167816   1.243   3.949  11.545 -0.5112  0.0112 -0.0674
15467TIP3    H267817   1.144   3.914  11.655 -1.0819  0.0877 -0.5539
15468TIP3   OH267818   4.828   5.380  12.208  0.0382 -0.0104  0.0618
15468TIP3    H167819   4.760   5.360  12.145  1.0393 -1.6089 -0.5395
15468TIP3    H267820   4.806   5.326  12.285 -0.6194  1.1694  0.7085
15469TIP3   OH267821   1.917   2.974   4.727 -0.1000 -0.0343 -0.1353
15469TIP3    H167822   1.991   2.915   4.740  1.0323  1.0719 -1.4785
15469TIP3    H267823   1.868   2.935   4.654 -0.7245 -0.6253  0.5840
15470TIP3   OH267824   1.485   1.688   4.471 -0.0107 -0.2286  0.3616
15470TIP3    H167825   1.520   1.657   4.388  1.3762  2.7149 -0.1911
15470TIP3    H267826   1.561   1.721   4.519 -1.0016 -0.5444  2.2128
15471TIP3   OH267827   3.581   1.736  11.511  0.0484 -0.2082 -0.3794
15471TIP3    H167828   3.566   1.731  11.416  2.6261 -0.8742 -0.7711
15471TIP3    H267829   3.635   1.813  11.523 -0.6595  0.1394  0.6197
15472TIP3   OH267830   1.532   5.170   4.423 -0.5809  0.4784  0.2883
15472TIP3    H167831   1.568   5.249   4.463  0.3035  0.8868 -1.2603
15472TIP3    H267832   1.586   5.156   4.345 -1.4096 -1.0491 -0.0318
15473TIP3   OH267833   1.569   4.169  13.930  0.6747  0.4022  0.0406
15473TIP3    H167834   1.656   4.130  13.936 -0.1938 -1.4631  0.8068
15473TIP3    H267835   1.532   4.160  14.018 -0.1774  1.4623 -0.1952
15474TIP3   OH267836   5.531   2.653  12.740 -0.5267 -0.3561  0.4995
15474TIP3    H167837   5.559   2.690  12.824 -0.7898 -1.0520  0.8943
15474TIP3    H267838   5.610   2.613  12.703 -0.3351  0.2355  0.2606
15475TIP3   OH267839   6.447   0.089  16.628 -0.0446 -0.6412  0.4675
15475TIP3    H167840   6.533   0.061  16.657  0.3444  0.5328  0.4818
15475TIP3    H267841   6.410   0.134  16.705  0.1219  0.5716 -0.1497
15476TIP3   OH267842   0.208   1.320  17.135  0.2601 -0.0630 -0.1373
15476TIP3    H167843   0.218   1.312  17.230  0.0729  2.2783  0.1132
15476TIP3    H267844   0.134   1.262  17.114 -2.1025  2.1306  1.7066
15477TIP3   OH267845   1.462   3.003  14.490 -0.4365  0.0693  0.1425
15477TIP3    H167846   1.500   2.933  14.543 -1.4286 -0.7325 -0.1796
15477TIP3    H267847   1.479   3.083  14.540 -0.9402 -0.6216  1.4409
15478TIP3   OH267848   3.719   2.617   4.635 -0.1638 -0.2731 -0.5199
15478TIP3    H167849   3.704   2.710   4.615 -1.3852 -0.1077  1.0484
15478TIP3    H267850   3.634   2.586   4.665  0.9843 -1.1143  1.9647
15479TIP3   OH267851   4.956   2.338   0.433  0.0065 -0.0804  0.2993
15479TIP3    H167852   4.945   2.270   0.367 -2.9740  0.4345  0.1832
15479TIP3    H267853   4.869   2.377   0.442  1.3937  2.9278  1.2371
15480TIP3   OH267854   6.584   0.794  12.470 -0.2336  0.1484  0.4070
15480TIP3    H167855   6.573   0.861  12.538  2.4599 -0.4745  1.5166
15480TIP3    H267856   6.496   0.781  12.435 -1.3411  1.9189  2.4030
15481TIP3   OH267857   5.989   5.635   6.115  0.0576 -0.4429 -0.4726
15481TIP3    H167858   6.010   5.725   6.139  1.0414 -1.0764  1.1365
15481TIP3    H267859   5.994   5.587   6.197 -2.7474 -1.5662 -0.9132
15482TIP3   OH267860   5.398   2.089  10.698  0.0359 -0.1723 -0.4818
15482TIP3    H167861   5.431   2.034  10.769 -0.3999 -0.1402 -0.2553
15482TIP3    H267862   5.430   2.045  10.618  0.4204 -0.2739 -0.2755
15483TIP3   OH267863   6.204   6.714  11.285  0.5018  0.4155  0.4922
15483TIP3    H167864   6.186   6.765  11.206  1.4536  2.0032  1.2671
15483TIP3    H267865   6.130   6.653  11.293  0.9303 -0.4874 -2.1814
15484TIP3   OH267866   0.844   2.924   4.398  0.0029  0.0333 -0.4107
15484TIP3    H167867   0.913   2.965   4.345  1.6226 -1.3339  0.5976
15484TIP3    H267868   0.796   2.998   4.436  0.2467  1.0131 -1.9204
15485TIP3   OH267869   3.330   6.689  10.948  0.5924 -0.5327 -0.2963
15485TIP3    H167870   3.257   6.682  10.887  0.3774 -0.1601 -0.0821
15485TIP3    H267871   3.406   6.661  10.898  0.2782 -1.0890 -0.4737
15486TIP3   OH267872   2.686   2.737  17.234  0.1065 -0.3809  0.0012
15486TIP3    H167873   2.714   2.725  17.144  0.4701  1.4542 -0.1541
15486TIP3    H267874   2.649   2.653  17.260  2.6713 -1.8308 -0.8984
15487TIP3   OH267875   0.019   4.864  16.756 -0.2098 -0.0192 -0.0332
15487TIP3    H167876  -0.068   4.901  16.768  0.6413  2.3120 -0.8868
15487TIP3    H267877   0.063   4.924  16.697  2.2705 -0.7093  1.0540
15488TIP3   OH267878   4.478   5.080   6.435 -0.6807 -0.1647 -0.0769
15488TIP3    H167879   4.514   5.143   6.372 -1.0894  0.6662  0.5048
15488TIP3    H267880   4.556   5.037   6.472 -0.3298  0.6611  0.1821
15489TIP3   OH267881   1.499   4.839  11.839  0.3281  0.1609  0.4755
15489TIP3    H167882   1.511   4.767  11.778  0.0655  0.0895  0.5074
15489TIP3    H267883   1.482   4.797  11.924  1.0781  0.2546  0.6839
15490TIP3   OH267884   6.557   3.766  16.249 -0.5696  0.4423  0.5977
15490TIP3    H167885   6.541   3.722  16.166 -1.0914 -0.4453  1.1549
15490TIP3    H267886   6.588   3.696  16.307 -0.4994  0.9984  1.2339
15491TIP3   OH267887   0.811   2.772  13.078 -0.2382 -0.1143  0.3038
15491TIP3    H167888   0.847   2.773  13.167 -3.2657 -1.1967  1.5939
15491TIP3    H267889   0.818   2.681  13.049 -0.4723 -0.0229 -0.0516
15492TIP3   OH267890   5.696   2.861   5.972  0.0855 -0.6000  0.4515
15492TIP3    H167891   5.686   2.813   6.055 -1.2199 -0.0653  0.6178
15492TIP3    H267892   5.756   2.807   5.920 -0.4240 -1.8072  1.1003
15493TIP3   OH267893   1.323   0.095  17.141  0.1403  0.5001 -0.0837
15493TIP3    H167894   1.339   0.156  17.213  0.6719 -0.2756  0.4628
15493TIP3    H267895   1.410   0.080  17.103  0.0158  0.0929 -0.2103
15494TIP3   OH267896   2.019   1.645   0.712 -0.2844  0.3559  0.1286
15494TIP3    H167897   1.950   1.586   0.684 -0.2253 -0.5966  1.8661
15494TIP3    H267898   2.093   1.587   0.733 -0.1450  1.0415  1.6384
15495TIP3   OH267899   0.896   5.598   3.384  0.3378 -0.3538 -0.6615
15495TIP3    H167900   0.882   5.664   3.316 -2.6456 -0.2051  0.0470
15495TIP3    H267901   0.817   5.545   3.382  1.1374 -1.6506  1.2821
15496TIP3   OH267902   2.287   1.212   1.076 -0.3448  0.2400  0.1414
15496TIP3    H167903   2.319   1.186   0.990 -1.7700 -2.0828  0.2662
15496TIP3    H267904   2.214   1.152   1.094 -0.7090  1.3216  2.5369
15497TIP3   OH267905   1.657   3.819  15.625 -0.3847 -0.5564  0.4965
15497TIP3    H167906   1.727   3.857  15.679  0.7739 -0.9724 -0.6771
15497TIP3    H267907   1.576   3.851  15.665  0.4891  0.5482  1.4359
15498TIP3   OH267908   3.119   6.082   0.628  0.7180  0.6554 -0.0123
15498TIP3    H167909   3.177   6.031   0.572  1.7934  0.9489  0.8120
15498TIP3    H267910   3.153   6.068   0.716 -1.5904 -0.6641  0.7115
15499TIP3   OH267911   1.858   6.553  12.046  0.2970  0.2542  0.0161
15499TIP3    H167912   1.826   6.498  11.975  1.1786  0.1390 -0.2876
15499TIP3    H267913   1.902   6.493  12.106 -0.8357  0.2780  0.9081
15500TIP3   OH267914   1.241   2.726  14.044 -0.0020 -0.2419 -0.4782
15500TIP3    H167915   1.228   2.765  14.130  0.7909 -2.3904  0.6544
15500TIP3    H267916   1.317   2.772  14.008 -1.4327  1.9205 -0.8360
15501TIP3   OH267917   2.998   0.202  13.902 -0.2896  0.3518  0.2244
15501TIP3    H167918   3.063   0.138  13.873 -0.9202 -0.0860 -0.2411
15501TIP3    H267919   2.946   0.155  13.968 -1.6393 -0.0700 -1.1289
15502TIP3   OH267920   3.446   2.099   3.332  0.2528  0.2077  0.8510
15502TIP3    H167921   3.522   2.109   3.390  1.5205 -0.5693 -0.6379
15502TIP3    H267922   3.484   2.093   3.244 -1.5738  0.2959  0.0399
15503TIP3   OH267923   3.911   2.006   2.277 -0.2341  0.0088 -0.0935
15503TIP3    H167924   3.905   2.072   2.208 -0.1658  0.4634  0.3302
15503TIP3    H267925   3.999   2.016   2.313  1.0721 -2.6924 -2.3712
15504TIP3   OH267926   2.445   1.110  12.900 -0.1624  0.7802  0.0592
15504TIP3    H167927   2.492   1.108  12.983 -2.3296  1.6108  1.3132
15504TIP3    H267928   2.443   1.018  12.871  0.9622  0.5543  0.6896
15505TIP3   OH267929   2.554   6.282   4.545 -0.6227  0.1633 -0.1599
15505TIP3    H167930   2.549   6.320   4.633 -1.2701 -1.3134  0.4581
15505TIP3    H267931   2.610   6.342   4.496 -0.7254  1.3055  1.1034
15506TIP3   OH267932   2.622   3.531  16.775  0.2982  0.5050 -0.2241
15506TIP3    H167933   2.663   3.493  16.697  0.5511  0.4292 -0.0565
15506TIP3    H267934   2.559   3.465  16.804 -0.3614  0.8650 -0.8169
15507TIP3   OH267935   4.296   4.505   1.584 -0.7293  0.1573  0.5006
15507TIP3    H167936   4.307   4.590   1.542 -0.4284  0.1829  0.6253
15507TIP3    H267937   4.227   4.462   1.534 -0.1022  0.0298 -0.2743
15508TIP3   OH267938   1.055   5.750  15.359 -0.2178 -0.5157  0.4605
15508TIP3    H167939   1.099   5.672  15.395  0.0594  0.1098  1.4785
15508TIP3    H267940   0.987   5.714  15.302  0.7819 -1.5034 -0.1450
15509TIP3   OH267941   0.396   5.325  13.079  0.3576  0.2537  1.4075
15509TIP3    H167942   0.309   5.292  13.102  0.3288  0.6543  1.9050
15509TIP3    H267943   0.447   5.311  13.159  0.7674 -0.0471  1.0889
15510TIP3   OH267944   1.457   4.008   5.534  0.0520  0.2826 -0.0625
15510TIP3    H167945   1.515   3.933   5.544 -0.8722 -0.3095  0.9566
15510TIP3    H267946   1.376   3.983   5.579 -0.9661  1.1321 -1.3510
15511TIP3   OH267947   6.156   3.646   0.943 -0.4568 -0.8378 -0.2060
15511TIP3    H167948   6.126   3.557   0.924 -2.9310  0.2644 -1.7383
15511TIP3    H267949   6.114   3.670   1.025 -0.8067 -0.6315 -0.4442
15512TIP3   OH267950   2.777   0.302   1.691  0.2600 -0.2179 -0.6942
15512TIP3    H167951   2.700   0.358   1.684 -0.8198 -1.8519 -2.1634
15512TIP3    H267952   2.744   0.218   1.722  1.5409 -0.7078 -0.6219
15513TIP3   OH267953   0.249   0.418  15.774  0.2179  0.5008 -0.0976
15513TIP3    H167954   0.329   0.463  15.749 -0.4804  1.7589 -0.1252
15513TIP3    H267955   0.209   0.475  15.839 -0.8732  0.0891 -0.3947
15514TIP3   OH267956   4.377   2.776   6.278 -0.0195  0.6520  0.0360
15514TIP3    H167957   4.325   2.837   6.329  1.7821  0.8891  1.6042
15514TIP3    H267958   4.416   2.717   6.342  2.6845  1.2681 -0.9753
15515TIP3   OH267959   4.540   0.803  12.982  0.7071 -0.3174  0.3470
15515TIP3    H167960   4.538   0.735  13.050  0.0338  0.2054  0.8587
15515TIP3    H267961   4.554   0.885  13.030  1.8325 -0.1087 -0.2910
15516TIP3   OH267962   1.252   0.898   1.217 -0.0176 -0.3909  0.4097
15516TIP3    H167963   1.219   0.916   1.305 -1.1168 -1.9352  0.3492
15516TIP3    H267964   1.179   0.920   1.159  0.2543 -0.5888 -0.0085
15517TIP3   OH267965   0.654   5.809  16.027  0.1147  0.0054 -0.2262
15517TIP3    H167966   0.576   5.767  16.065  1.1030 -1.0474  0.6743
15517TIP3    H267967   0.676   5.879  16.089 -0.1105  0.2968 -0.4757
15518TIP3   OH267968   5.348   2.254   4.473  0.7215 -0.3881 -0.0338
15518TIP3    H167969   5.388   2.324   4.423  0.2973 -0.1300 -0.0180
15518TIP3    H267970   5.360   2.279   4.564  1.4281 -0.8214 -0.0086
15519TIP3   OH267971   2.161   1.283   1.871  0.6683 -0.0730 -0.2402
15519TIP3    H167972   2.233   1.345   1.886  1.4795 -1.0486 -0.0858
15519TIP3    H267973   2.195   1.221   1.807 -0.8210  0.7474 -1.8608
15520TIP3   OH267974   3.903   0.640   5.453 -1.0174  0.2801  0.4591
15520TIP3    H167975   3.896   0.548   5.479 -1.1465  0.6002  1.5887
15520TIP3    H267976   3.931   0.685   5.533  0.3728  1.0362 -0.4220
15521TIP3   OH267977   0.216   6.489   5.385 -0.1996  0.2857  0.6806
15521TIP3    H167978   0.282   6.558   5.390  1.1581 -0.9543  0.0812
15521TIP3    H267979   0.258   6.418   5.337 -2.3875 -0.0460 -0.8516
15522TIP3   OH267980   2.862   2.140   3.442  0.2305 -0.5364  0.3547
15522TIP3    H167981   2.771   2.111   3.429 -0.1002  1.4922 -2.3852
15522TIP3    H267982   2.857   2.235   3.443  2.4845 -0.3355 -1.5358
15523TIP3   OH267983   2.650   5.053   1.388 -0.0695 -0.1829 -0.6186
15523TIP3    H167984   2.616   4.963   1.387  0.4312 -0.3669 -1.5923
15523TIP3    H267985   2.667   5.073   1.296 -0.1614  0.9106 -0.4053
15524TIP3   OH267986   4.561   1.361   1.654 -0.4153 -0.4243 -0.1458
15524TIP3    H167987   4.530   1.441   1.695  0.0375 -0.1620 -0.3214
15524TIP3    H267988   4.483   1.326   1.609 -0.3019  0.5772 -1.1292
15525TIP3   OH267989   4.318   4.277  11.230 -0.3882  0.4217  0.0895
15525TIP3    H167990   4.261   4.210  11.269  1.1597  0.3583  2.3973
15525TIP3    H267991   4.351   4.236  11.150 -2.6162  0.0161 -0.6600
15526TIP3   OH267992   0.505   0.708  13.980  0.2113 -0.8033  0.5130
15526TIP3    H167993   0.595   0.738  13.994  0.2330 -0.6919  0.1405
15526TIP3    H267994   0.495   0.635  14.040  0.7944 -1.2858  0.0372
15527TIP3   OH267995   0.197   6.383   1.660  0.4995  0.0900  0.1009
15527TIP3    H167996   0.121   6.415   1.707 -0.4629  0.7325 -1.8661
15527TIP3    H267997   0.163   6.353   1.576  2.2086 -0.9460 -0.2529
15528TIP3   OH267998   2.513   3.653  12.330  0.2637 -0.1652  0.1636
15528TIP3    H167999   2.488   3.571  12.287 -1.7228  1.0427 -1.0845
15528TIP3    H268000   2.520   3.716  12.258  3.4852  0.3887  0.9082
15529TIP3   OH268001   0.876   5.959  13.276 -0.3455  0.9959  0.5517
15529TIP3    H168002   0.958   5.920  13.245 -0.3443  0.7880  0.8135
15529TIP3    H268003   0.847   6.015  13.204 -0.5646  0.1796 -0.0070
15530TIP3   OH268004   5.532   4.322  13.277  0.2484  0.2502  0.1766
15530TIP3    H168005   5.475   4.247  13.261  1.1206 -0.5994  1.0027
15530TIP3    H268006   5.473   4.391  13.307 -0.4431 -0.3856  0.2824
15531TIP3   OH268007   6.362   2.169   1.526  0.0455  0.3086 -0.4766
15531TIP3    H168008   6.269   2.193   1.527  0.4294  2.0129  3.4921
15531TIP3    H268009   6.384   2.155   1.619  3.6714 -0.4441 -1.3767
15532TIP3   OH268010   2.516   0.408   0.854  0.4644 -0.0305 -0.0838
15532TIP3    H168011   2.482   0.453   0.931  2.9943 -0.2541  1.2103
15532TIP3    H268012   2.472   0.323   0.854  1.1357 -0.3925  1.6725
15533TIP3   OH268013   1.815   0.087   4.665 -0.0042  0.3151 -0.3784
15533TIP3    H168014   1.812   0.019   4.598 -1.7185  0.1557 -0.1663
15533TIP3    H268015   1.724   0.098   4.692  0.6450  0.4802  1.8317
15534TIP3   OH268016   1.774   1.190  13.277 -0.2460  0.5435  0.3068
15534TIP3    H168017   1.771   1.152  13.189 -1.1499 -1.0795  1.0039
15534TIP3    H268018   1.725   1.272  13.269 -2.6912 -0.9001 -0.1223
15535TIP3   OH268019   1.065   4.165   5.735 -0.0900 -0.2498 -1.1001
15535TIP3    H168020   1.151   4.154   5.776 -0.9184  0.1462  0.8490
15535TIP3    H268021   1.004   4.125   5.797 -1.4922  1.2000 -1.5024
15536TIP3   OH268022   3.581   1.140  11.911 -0.1380  0.4853 -0.1745
15536TIP3    H168023   3.601   1.054  11.874 -0.0441  0.4127  0.0438
15536TIP3    H268024   3.509   1.124  11.972 -0.2659  0.5984 -0.2945
15537TIP3   OH268025   1.567   1.692   2.803 -0.2642  0.0358  0.0603
15537TIP3    H168026   1.497   1.753   2.828 -1.0492 -0.7381 -0.1949
15537TIP3    H268027   1.642   1.719   2.855 -0.5789  1.2558 -0.0843
15538TIP3   OH268028   6.250   2.986   0.626  0.1329 -0.1673 -0.3615
15538TIP3    H168029   6.331   3.011   0.671  0.0671 -2.8161  1.3017
15538TIP3    H268030   6.180   3.006   0.689 -0.1220 -2.0232 -0.0245
15539TIP3   OH268031   0.354   5.428  12.597  0.3057 -0.2437  0.3607
15539TIP3    H168032   0.377   5.463  12.511  2.3445  3.0651  2.1752
15539TIP3    H268033   0.270   5.469  12.618  0.3780 -0.1411  0.4492
15540TIP3   OH268034   4.763   3.990  11.234  0.3564  0.0118  0.5491
15540TIP3    H168035   4.819   4.064  11.258  0.3338 -0.1210  1.0161
15540TIP3    H268036   4.732   4.012  11.146  0.2385  0.6244  0.7364
15541TIP3   OH268037   5.330   3.617   5.683 -0.0647 -0.2541  0.1461
15541TIP3    H168038   5.376   3.631   5.766 -1.4982  0.4858  0.8567
15541TIP3    H268039   5.363   3.534   5.650  0.5938 -0.5099  1.4232
15542TIP3   OH268040   1.136   3.016  16.444 -0.4906 -0.1724 -0.2925
15542TIP3    H168041   1.158   2.973  16.361 -0.2110  0.6655 -0.6523
15542TIP3    H268042   1.046   3.046  16.431 -0.7259 -0.7396  0.0005
15543TIP3   OH268043   0.998   3.763  17.036 -0.6963  0.1161 -0.4353
15543TIP3    H168044   0.950   3.723  17.108  0.3610 -2.7734 -1.2895
15543TIP3    H268045   0.938   3.830  17.002 -1.8816  0.3456  2.0041
15544TIP3   OH268046   1.048   4.973   4.246 -0.1749 -0.3693  0.0251
15544TIP3    H168047   1.101   5.053   4.248 -0.6189 -0.0777  0.2284
15544TIP3    H268048   1.040   4.953   4.153 -0.6469  0.2157 -0.0624
15545TIP3   OH268049   1.916   0.237  14.535 -0.2114 -0.1675 -0.2194
15545TIP3    H168050   1.865   0.171  14.488 -1.0537 -0.4636  1.0955
15545TIP3    H268051   1.960   0.287  14.466 -1.8667 -0.2413 -1.3416
15546TIP3   OH268052   6.386   5.355  15.581 -0.0417  0.0920 -0.0625
15546TIP3    H168053   6.433   5.425  15.535  1.7656  0.2191  1.8593
15546TIP3    H268054   6.296   5.387  15.589 -0.6225 -0.2905 -4.1305
15547TIP3   OH268055   2.113   2.482  14.888 -0.3511  0.7015  0.1332
15547TIP3    H168056   2.039   2.537  14.912  0.5635  1.5233  1.1131
15547TIP3    H268057   2.148   2.451  14.971 -0.6482 -1.1001 -0.4052
15548TIP3   OH268058   0.140   5.995  12.665 -0.0674 -0.6640 -0.0125
15548TIP3    H168059   0.092   6.036  12.593 -1.1840  1.5996  1.9669
15548TIP3    H268060   0.232   6.015  12.646 -0.2053 -1.3729 -1.5609
15549TIP3   OH268061   0.970   0.991   2.923  0.0101  0.4533 -0.2403
15549TIP3    H168062   1.035   1.055   2.949 -0.7424  1.2628 -0.3400
15549TIP3    H268063   0.975   0.988   2.828  1.1329 -0.7975 -0.1620
15550TIP3   OH268064   3.102   4.526  10.751 -0.1049  0.1256 -0.1569
15550TIP3    H168065   3.046   4.585  10.802 -0.7741 -1.7570  1.3554
15550TIP3    H268066   3.049   4.504  10.674 -0.2590  0.6744 -0.2106
15551TIP3   OH268067   0.184   6.462   3.832 -0.6065  0.3304 -0.1402
15551TIP3    H168068   0.244   6.392   3.859 -0.7706  0.8729  1.7171
15551TIP3    H268069   0.112   6.417   3.789 -0.8282 -0.6856  1.2477
15552TIP3   OH268070   0.890   3.376  12.977 -0.2074  0.0690 -0.2203
15552TIP3    H168071   0.886   3.396  12.883  1.0371 -1.1543 -0.5699
15552TIP3    H268072   0.843   3.293  12.986 -1.1690  0.6779  0.4035
15553TIP3   OH268073   0.696   0.291   1.780 -0.1307 -0.3183 -0.0694
15553TIP3    H168074   0.745   0.367   1.749 -0.8474  1.0009  1.9138
15553TIP3    H268075   0.611   0.299   1.737  0.4581 -1.0855 -1.3803
15554TIP3   OH268076   4.288   2.936  14.238  0.3122 -0.2734 -0.0467
15554TIP3    H168077   4.226   2.948  14.310 -2.3032 -0.9811 -2.1026
15554TIP3    H268078   4.374   2.950  14.278 -1.1530  0.8775  2.8540
15555TIP3   OH268079   2.585   0.251  14.606 -0.1891  0.0188  0.1265
15555TIP3    H168080   2.514   0.208  14.557 -0.2724 -1.7469  1.7278
15555TIP3    H268081   2.568   0.229  14.697  1.2331  1.3832  0.7404
15556TIP3   OH268082   0.112   1.503  15.623  0.4197  0.2325 -0.6540
15556TIP3    H168083   0.028   1.479  15.663  0.5413 -1.4465 -1.3598
15556TIP3    H268084   0.087   1.541  15.539  0.1966  3.2127  0.6967
15557TIP3   OH268085   6.496   1.176  12.242  0.2863 -0.1924  0.4100
15557TIP3    H168086   6.565   1.111  12.226  1.0501  0.9881 -1.3120
15557TIP3    H268087   6.428   1.154  12.178  0.2220  0.2483  0.3282
15558TIP3   OH268088   1.915   5.896   1.242  0.3995  0.0273  0.7927
15558TIP3    H168089   1.977   5.908   1.314  1.0751  0.5464  0.1271
15558TIP3    H268090   1.854   5.829   1.274  0.6111  0.3565  1.8996
15559TIP3   OH268091   5.151   4.173   1.918 -0.4741  0.0275  0.0865
15559TIP3    H168092   5.141   4.109   1.989 -0.9119  0.2217  0.2019
15559TIP3    H268093   5.183   4.121   1.844 -0.4613 -0.2591  0.2905
15560TIP3   OH268094   3.354   4.467  15.569 -0.5753 -0.4581  0.6589
15560TIP3    H168095   3.270   4.423  15.578 -1.2017  1.0683  2.4315
15560TIP3    H268096   3.357   4.496  15.478 -1.4615 -1.5084  0.2919
15561TIP3   OH268097   3.243   2.020  12.540  0.0585 -0.2775 -0.0529
15561TIP3    H168098   3.243   2.094  12.601 -0.9766 -2.2981  2.4935
15561TIP3    H268099   3.327   1.976  12.557 -0.6380 -1.3707  0.5974
15562TIP3   OH268100   2.180   0.899  13.426  0.4999 -0.1951  0.1813
15562TIP3    H168101   2.141   0.837  13.488  2.1362  2.4191  3.9373
15562TIP3    H268102   2.108   0.957  13.403 -0.2656 -1.5430 -0.9643
15563TIP3   OH268103   5.448   3.765  16.683  0.0230  0.4875 -0.3657
15563TIP3    H168104   5.443   3.671  16.698  0.6131  0.3410 -1.0652
15563TIP3    H268105   5.437   3.804  16.770 -2.5529 -0.1321 -0.3522
15564TIP3   OH268106   2.418   2.354   6.086  0.1918  0.3766  0.0705
15564TIP3    H168107   2.348   2.346   6.020  0.7675 -0.1059 -0.4853
15564TIP3    H268108   2.405   2.279   6.144 -0.9974  1.4071  1.1785
15565TIP3   OH268109   0.567   3.729   1.993 -0.0257 -0.5819  0.3298
15565TIP3    H168110   0.655   3.727   1.955 -0.8172  0.4469 -1.6164
15565TIP3    H268111   0.580   3.766   2.081  1.6599 -1.7606  0.6078
15566TIP3   OH268112   4.164   2.148   0.961 -0.1092 -0.4496  0.0695
15566TIP3    H168113   4.144   2.055   0.952 -0.8892 -0.2124 -0.6641
15566TIP3    H268114   4.080   2.192   0.952  0.4145  0.4035 -0.7491
15567TIP3   OH268115   0.040   5.734   2.641 -0.5503 -0.2719 -0.1118
15567TIP3    H168116   0.126   5.692   2.635  0.1744  1.1483  0.2505
15567TIP3    H268117  -0.022   5.661   2.642  0.7119 -1.3514  0.8647
15568TIP3   OH268118   3.387   2.249  16.765  0.3799 -0.5176 -0.1055
15568TIP3    H168119   3.363   2.304  16.690  3.5558  1.5914  0.3216
15568TIP3    H268120   3.377   2.307  16.840  0.1408 -1.7234  0.8036
15569TIP3   OH268121   0.853   4.053  11.059 -0.0816 -0.3757 -0.2195
15569TIP3    H168122   0.820   3.998  11.130 -0.8213  0.1167 -0.1791
15569TIP3    H268123   0.845   3.999  10.981 -1.3148 -0.1467 -0.2654
15570TIP3   OH268124   3.023   5.409   3.946  1.3847  0.5785  0.2457
15570TIP3    H168125   3.093   5.374   3.891  1.6057  0.5249  0.5581
15570TIP3    H268126   3.001   5.336   4.005  1.5073  0.8087  0.5727
15571TIP3   OH268127   5.545   0.502   1.334  0.3625 -0.5656  0.0885
15571TIP3    H168128   5.518   0.514   1.242  0.6493 -0.1864  0.0528
15571TIP3    H268129   5.551   0.407   1.345 -1.7048 -0.7087  0.2981
15572TIP3   OH268130   6.190   6.401  16.703 -0.0747  0.0568  0.4856
15572TIP3    H168131   6.173   6.472  16.764  1.0363 -1.5176  2.6846
15572TIP3    H268132   6.240   6.442  16.632 -0.1041  1.6205  1.3576
15573TIP3   OH268133   1.541   5.228  15.810 -0.1421 -0.2765 -1.0734
15573TIP3    H168134   1.526   5.305  15.754  1.0124  2.4770  2.2501
15573TIP3    H268135   1.498   5.250  15.893  0.1408 -3.2987 -0.0619
15574TIP3   OH268136   4.198   5.194   1.173  0.7069  0.2350 -0.5805
15574TIP3    H168137   4.166   5.115   1.216  1.0575 -0.5554 -1.7481
15574TIP3    H268138   4.119   5.241   1.148  0.4986  0.8893  1.2437
15575TIP3   OH268139   1.560   2.549   6.236  0.0078 -0.2709  0.1811
15575TIP3    H168140   1.538   2.482   6.301 -0.2280 -0.7539 -0.3885
15575TIP3    H268141   1.656   2.547   6.232 -0.0459 -1.5699 -0.8533
15576TIP3   OH268142   3.625   6.414  16.017  0.0488  0.6521  0.3309
15576TIP3    H168143   3.576   6.449  15.943  1.7204 -0.6212 -1.4200
15576TIP3    H268144   3.558   6.393  16.082 -1.7855 -0.9546 -1.9706
15577TIP3   OH268145   6.131   0.028  15.881 -0.4785  0.0334  0.1314
15577TIP3    H168146   6.122   0.121  15.904  1.3457 -0.2837  2.2964
15577TIP3    H268147   6.120  -0.018  15.964  0.1091 -1.5731 -0.6715
15578TIP3   OH268148   1.093   1.640   4.947 -0.2810 -0.2553 -0.0205
15578TIP3    H168149   1.162   1.684   4.997 -0.3720  0.8894 -0.8924
15578TIP3    H268150   1.077   1.698   4.873 -1.1201 -1.2708 -0.6320
15579TIP3   OH268151   4.337   6.708   3.373 -0.7275  0.3532  0.1224
15579TIP3    H168152   4.335   6.791   3.421  0.1624 -0.6923  2.0571
15579TIP3    H268153   4.414   6.714   3.317 -0.4333  0.6883  0.5605
15580TIP3   OH268154   0.940   6.231  12.863  0.2175  0.4335  0.3249
15580TIP3    H168155   1.021   6.181  12.870 -0.8338 -1.1638  1.4875
15580TIP3    H268156   0.888   6.204  12.939 -1.5260  1.1707 -0.5725
15581TIP3   OH268157   4.399   2.443  14.504 -0.2339 -0.4763  0.8459
15581TIP3    H168158   4.330   2.412  14.444 -1.0674  0.6530  1.2153
15581TIP3    H268159   4.388   2.390  14.583  1.3445 -2.5057 -0.2225
15582TIP3   OH268160   1.087   5.791   0.672 -0.1510 -0.3072 -0.1860
15582TIP3    H168161   1.041   5.801   0.588 -0.5999  1.3928  0.2375
15582TIP3    H268162   1.071   5.701   0.698 -0.9562 -0.5214 -1.3872
15583TIP3   OH268163   2.193   1.577  11.351  0.6872 -0.0265 -0.3833
15583TIP3    H168164   2.279   1.560  11.390  1.7937  1.5756 -2.0359
15583TIP3    H268165   2.202   1.548  11.260 -0.6001 -0.0589 -0.5097
15584TIP3   OH268166   2.259   4.041   5.890 -0.1245  0.3976  0.0570
15584TIP3    H168167   2.230   3.993   5.813  0.4266 -1.0569  0.7327
15584TIP3    H268168   2.319   3.980   5.935  0.2310  1.5448  1.1672
15585TIP3   OH268169   5.483   0.176   0.927 -0.2995 -0.0898  0.2586
15585TIP3    H168170   5.556   0.161   0.868 -1.1646  1.2869 -1.2070
15585TIP3    H268171   5.423   0.103   0.910  1.0365 -1.6602  2.0295
15586TIP3   OH268172   3.018   3.830   4.269 -0.9004 -0.1074 -0.4792
15586TIP3    H168173   3.066   3.905   4.306 -1.2469 -0.5746  0.9413
15586TIP3    H268174   3.077   3.794   4.203 -0.4838  1.0626 -0.7602
15587TIP3   OH268175   4.545   1.528   2.871 -0.1329 -0.2915 -0.0109
15587TIP3    H168176   4.536   1.578   2.952 -0.5913  0.4788 -0.5311
15587TIP3    H268177   4.609   1.578   2.820  1.1507 -1.4710  0.3971
15588TIP3   OH268178   0.353   2.928  14.130  0.2285 -0.5631  0.3302
15588TIP3    H168179   0.368   2.834  14.140  1.3645 -0.3753  0.4249
15588TIP3    H268180   0.319   2.956  14.214  0.2954 -0.8162  0.4404
15589TIP3   OH268181   0.881   0.760  11.650  0.2517 -0.0266 -0.2086
15589TIP3    H168182   0.826   0.803  11.714 -0.7085 -2.1751  0.4582
15589TIP3    H268183   0.859   0.802  11.567 -0.2962  1.0864  0.4960
15590TIP3   OH268184   2.991   0.357   5.289  0.8248 -0.9412 -0.0791
15590TIP3    H168185   3.051   0.357   5.215 -1.7333 -2.5009 -2.2290
15590TIP3    H268186   2.904   0.350   5.250 -0.9628  2.8453  2.8431
15591TIP3   OH268187   6.314   2.949  15.991 -0.3506 -0.5535  0.0177
15591TIP3    H168188   6.223   2.932  16.018  0.1888 -1.0436  1.6106
15591TIP3    H268189   6.338   3.029  16.038  0.5908 -1.3844  0.9705
15592TIP3   OH268190   4.502   5.195  16.503  0.0296  0.2984  0.1509
15592TIP3    H168191   4.531   5.283  16.530 -0.3206  0.9154 -1.4464
15592TIP3    H268192   4.408   5.194  16.523 -0.2124  0.7262 -0.9337
15593TIP3   OH268193   3.627   2.051  12.105 -0.2137 -0.1022 -0.0843
15593TIP3    H168194   3.546   2.102  12.105  0.1645  0.5858  2.5100
15593TIP3    H268195   3.696   2.116  12.115  0.6134 -0.7809 -1.1941
15594TIP3   OH268196   3.565   2.780   3.060 -0.5575  0.1307 -0.5753
15594TIP3    H168197   3.488   2.731   3.088  0.5242  0.0078  2.3760
15594TIP3    H268198   3.628   2.713   3.035  0.3582  0.0181  1.9271
15595TIP3   OH268199   5.686   0.585   5.128  0.7599  0.9576  0.1564
15595TIP3    H168200   5.637   0.640   5.189 -0.8493 -1.0666  0.7557
15595TIP3    H268201   5.725   0.518   5.183  0.4358 -0.0795 -0.8614
15596TIP3   OH268202   6.763   5.613  11.022 -0.4380  0.0953 -0.7233
15596TIP3    H168203   6.781   5.690  10.968  2.1450 -1.0429 -1.5800
15596TIP3    H268204   6.685   5.573  10.983 -1.1426  1.6799 -0.9379
15597TIP3   OH268205   1.260   2.168   0.351 -0.0472  0.6331 -0.3797
15597TIP3    H168206   1.311   2.242   0.317  1.3431 -0.1735 -0.1088
15597TIP3    H268207   1.178   2.207   0.381  0.7015  2.0870 -0.1670
15598TIP3   OH268208   1.253   3.030  11.545 -0.2415 -0.1547 -0.0461
15598TIP3    H168209   1.319   2.960  11.545 -0.8165 -0.6974 -0.8621
15598TIP3    H268210   1.183   2.997  11.490 -1.1229  0.5074  0.6662
15599TIP3   OH268211   5.640   0.759   3.261 -0.0997  0.0742  0.4008
15599TIP3    H168212   5.555   0.725   3.290 -0.4353 -2.1356 -2.8803
15599TIP3    H268213   5.697   0.750   3.337 -1.4319 -3.6031  1.0577
15600TIP3   OH268214   6.061   5.129   2.316  0.1541 -0.0644 -0.5049
15600TIP3    H168215   5.976   5.139   2.271 -0.2379 -0.6004  0.1080
15600TIP3    H268216   6.123   5.173   2.259  0.0520 -2.7214 -2.8122
15601TIP3   OH268217   1.320   2.790   1.581 -0.3548 -0.4196  0.0098
15601TIP3    H168218   1.352   2.700   1.590  0.2778 -0.1794  0.2168
15601TIP3    H268219   1.237   2.791   1.628 -2.2755 -1.8528 -3.1917
15602TIP3   OH268220   2.978   3.059  15.606  0.0212  0.0493  0.3318
15602TIP3    H168221   3.060   3.033  15.648  0.3925 -0.3547 -0.6235
15602TIP3    H268222   2.919   2.985  15.621  0.6469 -0.7813 -1.1964
15603TIP3   OH268223   2.425   6.529  17.055 -0.0017  0.3733  0.5606
15603TIP3    H168224   2.396   6.446  17.018 -0.5251  0.9481 -0.3400
15603TIP3    H268225   2.484   6.566  16.989 -1.4967  1.7367 -0.0262
15604TIP3   OH268226   1.782   1.474   3.110  0.3904 -0.1238 -0.8048
15604TIP3    H168227   1.838   1.461   3.187 -2.2090  0.2501  1.2328
15604TIP3    H268228   1.757   1.385   3.083  1.3673 -0.2589 -1.2989
15605TIP3   OH268229   4.543   2.928  15.680 -0.3705  0.3026  0.0859
15605TIP3    H168230   4.535   3.021  15.698 -1.0567  0.0077  1.3559
15605TIP3    H268231   4.456   2.902  15.650 -0.3723 -0.0682  0.4064
15606TIP3   OH268232   0.288   4.936   1.358 -0.1981  0.0274  0.2016
15606TIP3    H168233   0.195   4.955   1.348 -0.0023  2.1573  1.9328
15606TIP3    H268234   0.292   4.874   1.431 -0.1366  1.9335  1.8735
15607TIP3   OH268235   2.116   0.982   0.323  0.1479 -0.6735 -0.0657
15607TIP3    H168236   2.092   1.001   0.413 -1.4621 -1.7143 -0.2642
15607TIP3    H268237   2.035   0.989   0.274  0.9882 -0.2612 -1.4270
15608TIP3   OH268238   1.970   1.176   0.537 -0.2963  0.0275  0.5231
15608TIP3    H168239   1.900   1.124   0.575 -0.3507 -0.2690  0.0242
15608TIP3    H268240   1.935   1.265   0.535 -0.4391 -0.0202  0.8031
15609TIP3   OH268241   3.380   3.408  14.770  0.1085 -0.0853  0.0080
15609TIP3    H168242   3.322   3.484  14.764  0.4328  0.1056 -0.8821
15609TIP3    H268243   3.459   3.442  14.813  0.4716  0.2254 -0.8873
15610TIP3   OH268244   2.192   1.622  13.284 -0.0732 -0.3590  0.0915
15610TIP3    H168245   2.123   1.665  13.232 -0.8739 -2.2494 -0.4261
15610TIP3    H268246   2.273   1.666  13.257 -0.7620  0.1623 -1.1463
15611TIP3   OH268247   5.527   0.324  14.546  0.1937 -0.1469 -0.1540
15611TIP3    H168248   5.478   0.403  14.523 -0.5206 -0.2163  1.1082
15611TIP3    H268249   5.608   0.330  14.494 -0.8926  0.2208 -1.8628
15612TIP3   OH268250   3.196   1.215   4.407  0.3001 -0.3040  0.4274
15612TIP3    H168251   3.124   1.245   4.462 -1.5919 -2.2047 -0.8741
15612TIP3    H268252   3.258   1.288   4.405 -1.2090  1.0707  2.2451
15613TIP3   OH268253   3.235   0.320  16.060  0.1361 -0.1497  0.0161
15613TIP3    H168254   3.158   0.268  16.083 -1.1940  1.2810 -1.1061
15613TIP3    H268255   3.300   0.256  16.033 -0.8996 -1.3473  0.3215
15614TIP3   OH268256   1.506   4.168   0.853 -0.6254  0.1177 -0.2919
15614TIP3    H168257   1.534   4.240   0.909 -2.0858 -0.5332  1.3142
15614TIP3    H268258   1.419   4.145   0.885 -0.1171 -2.4913 -0.6725
15615TIP3   OH268259   2.366   5.792   5.310 -0.4574  0.5315 -0.1481
15615TIP3    H168260   2.328   5.855   5.372  0.4719  1.6101 -0.6513
15615TIP3    H268261   2.299   5.780   5.243 -1.9009 -1.4426  1.5781
15616TIP3   OH268262   0.276   6.128   2.702  0.0989  0.1598 -0.7230
15616TIP3    H168263   0.186   6.095   2.705  0.3996 -0.7121 -1.1156
15616TIP3    H268264   0.328   6.055   2.668  1.1528  0.2397  0.6519
15617TIP3   OH268265   4.492   2.183   5.650 -0.1318  0.4714 -0.2040
15617TIP3    H168266   4.556   2.254   5.650 -0.3839  0.7623  2.9767
15617TIP3    H268267   4.430   2.206   5.720 -1.4886 -1.7566 -0.6213
15618TIP3   OH268268   3.227   3.681   2.647 -0.6262  0.3079  0.0730
15618TIP3    H168269   3.248   3.760   2.597 -0.3832  1.2109  1.5811
15618TIP3    H268270   3.270   3.610   2.598  1.7726  1.4908  0.3804
15619TIP3   OH268271   5.221   4.818  13.608  0.2309  0.1049  0.0740
15619TIP3    H168272   5.237   4.739  13.660  0.8467 -0.3784 -0.8473
15619TIP3    H268273   5.278   4.884  13.648 -0.1178  0.0316  0.7032
15620TIP3   OH268274   4.468   5.506  15.286  0.9758 -0.6748  0.6127
15620TIP3    H168275   4.385   5.462  15.302  1.1268 -0.7132  1.2976
15620TIP3    H268276   4.517   5.446  15.229  0.0417 -0.0832 -0.8395
15621TIP3   OH268277   5.427   0.429   1.033  0.0627  0.0374  0.0084
15621TIP3    H168278   5.455   0.347   0.993  1.8367  0.8641 -0.4918
15621TIP3    H268279   5.332   0.419   1.045  0.0604 -1.5806 -1.1890
15622TIP3   OH268280   2.394   1.066  11.883 -0.8006 -0.2761  0.4879
15622TIP3    H168281   2.383   1.022  11.967 -2.6588  0.1036  0.4802
15622TIP3    H268282   2.327   1.026  11.827  0.1202 -0.2024 -0.6733
15623TIP3   OH268283   3.611   1.089  16.706  0.4985 -0.0151  0.6576
15623TIP3    H168284   3.685   1.065  16.650  0.4108 -0.7998  0.8716
15623TIP3    H268285   3.608   1.185  16.703  0.7344 -0.0367 -0.3691
15624TIP3   OH268286   4.975   0.824  13.536  0.1224 -0.2466  0.1416
15624TIP3    H168287   4.956   0.796  13.625  4.2274 -1.1569  0.7927
15624TIP3    H268288   5.043   0.765  13.505 -1.5588 -0.2988 -3.8497
15625TIP3   OH268289   5.688   2.355   3.616 -0.0803 -0.1745  0.0792
15625TIP3    H168290   5.616   2.400   3.662 -0.1217 -1.9251  1.7740
15625TIP3    H268291   5.757   2.347   3.682  1.0853  0.0539 -1.0831
15626TIP3   OH268292   1.807   0.475  12.445  0.4783  0.2642  0.2396
15626TIP3    H168293   1.861   0.554  12.448  1.2009 -0.1479 -1.2660
15626TIP3    H268294   1.870   0.403  12.454 -0.3454 -0.1233  3.2411
15627TIP3   OH268295   0.522   1.167   5.542 -0.0610 -0.1487  0.4294
15627TIP3    H168296   0.541   1.238   5.603 -0.8719  0.5722 -0.1511
15627TIP3    H268297   0.443   1.125   5.577  0.1633 -0.4871  0.5323
15628TIP3   OH268298   4.659   4.965  12.500  0.1369 -0.4941  0.3492
15628TIP3    H168299   4.587   4.902  12.504  0.2074 -0.6110 -0.2552
15628TIP3    H268300   4.635   5.032  12.565 -1.8101  0.8178 -1.6411
15629TIP3   OH268301   2.631   5.081  16.865  0.0524  0.1934 -0.1862
15629TIP3    H168302   2.586   5.139  16.803 -2.2405  0.4937  1.7029
15629TIP3    H268303   2.624   4.994  16.826 -0.2532  0.5603 -0.9523
15630TIP3   OH268304   2.271   0.582  11.571 -0.2964 -0.1761  0.1971
15630TIP3    H168305   2.355   0.549  11.603  0.1864  0.4616 -0.3983
15630TIP3    H268306   2.214   0.580  11.648  0.4441 -0.0048  0.7566
15631TIP3   OH268307   4.622   3.652   4.671  0.2166 -0.0993  0.2713
15631TIP3    H168308   4.696   3.599   4.701  0.4461 -0.3527 -0.7123
15631TIP3    H268309   4.545   3.603   4.697  0.4378 -1.3444 -1.3796
15632TIP3   OH268310   3.945   2.269   5.319 -0.0363  0.3217 -0.2047
15632TIP3    H168311   3.980   2.185   5.288  2.2725  0.9368  0.6012
15632TIP3    H268312   3.850   2.259   5.316  0.2050 -2.8439  1.2832
15633TIP3   OH268313   5.377   4.617  11.029  0.0758 -0.9678  0.4924
15633TIP3    H168314   5.330   4.614  11.112  0.4648 -0.6608  0.7287
15633TIP3    H268315   5.310   4.605  10.962 -0.2406 -1.1890  0.8530
15634TIP3   OH268316   3.493   6.352  15.450 -0.4675  1.0395  0.0511
15634TIP3    H168317   3.585   6.349  15.426  0.1652  0.5748  2.4264
15634TIP3    H268318   3.446   6.328  15.370  1.5496 -0.8847 -0.5895
15635TIP3   OH268319   2.444   0.292  16.889 -0.2067  0.1087 -0.0506
15635TIP3    H168320   2.426   0.369  16.943 -0.6026 -0.2590  0.3482
15635TIP3    H268321   2.444   0.325  16.799  1.4189  0.9112  0.2215
15636TIP3   OH268322   2.355   4.072   0.066 -0.1029  0.3708  0.0396
15636TIP3    H168323   2.418   4.015   0.023 -0.8121 -0.0653 -0.4340
15636TIP3    H268324   2.339   4.142   0.003 -0.5682  0.1373 -0.1063
15637TIP3   OH268325   1.540   3.081  15.346 -0.1942 -0.3780  0.0065
15637TIP3    H168326   1.569   3.155  15.292 -0.6751 -1.1284 -1.3074
15637TIP3    H268327   1.448   3.069  15.323 -0.3725 -0.7852  0.9121
15638TIP3   OH268328   2.911   4.632  13.726 -0.1596 -0.9505 -0.4193
15638TIP3    H168329   2.953   4.630  13.640 -0.8828  0.4893 -0.8254
15638TIP3    H268330   2.938   4.716  13.764  0.3249 -1.6577  0.8640
15639TIP3   OH268331   2.099   2.746  11.478  0.0916 -0.1169 -0.1546
15639TIP3    H168332   2.124   2.751  11.386 -0.7640 -2.3978 -0.5685
15639TIP3    H268333   2.084   2.837  11.504  0.4224  0.5733 -2.2429
15640TIP3   OH268334   3.758   6.144  12.221 -0.0109  0.7852 -0.3022
15640TIP3    H168335   3.838   6.188  12.250 -0.2959  0.3135  1.2377
15640TIP3    H268336   3.733   6.088  12.295  0.0369 -1.5543 -1.9937
15641TIP3   OH268337   0.578   0.915  12.771  0.1436 -0.6151 -0.2573
15641TIP3    H168338   0.606   0.824  12.781  0.1492 -0.4958  0.9231
15641TIP3    H268339   0.658   0.966  12.781  0.0306 -0.4463 -0.2117
15642TIP3   OH268340   6.600   2.805   1.219 -0.2085 -0.4269 -0.0968
15642TIP3    H168341   6.637   2.724   1.184  2.4246 -0.7864  3.2115
15642TIP3    H268342   6.505   2.791   1.216  0.1927 -4.0080  1.0519
15643TIP3   OH268343   4.861   2.348  12.529  0.1837 -0.2648  0.1021
15643TIP3    H168344   4.949   2.313  12.539 -0.0370 -0.7325  0.4136
15643TIP3    H268345   4.811   2.277  12.489  0.4651  0.7308 -2.0854
15644TIP3   OH268346   3.848   5.207  13.113 -0.0124  0.0064 -0.2329
15644TIP3    H168347   3.867   5.158  13.193 -0.6098  1.2596  0.6805
15644TIP3    H268348   3.903   5.285  13.119 -2.0128  1.3926  0.2090
15645TIP3   OH268349   3.824   1.182   1.299  0.0122 -0.4094 -0.7868
15645TIP3    H168350   3.905   1.222   1.267  0.7451 -0.7219  0.6308
15645TIP3    H268351   3.843   1.088   1.299 -0.4661 -0.5036 -0.7632
15646TIP3   OH268352   5.715   4.744   1.580  0.3133 -0.2245  0.6336
15646TIP3    H168353   5.752   4.832   1.594  2.1591 -1.1054  1.3891
15646TIP3    H268354   5.711   4.705   1.667 -0.2028 -1.0288  0.2581
15647TIP3   OH268355   3.458   1.746  14.236  0.7994 -0.1566 -0.7402
15647TIP3    H168356   3.412   1.753  14.153  2.2956 -0.8298 -1.6544
15647TIP3    H268357   3.440   1.656  14.266  0.6848 -0.0850 -0.5929
15648TIP3   OH268358   0.867   2.828  11.378 -0.4591  0.0925  0.2160
15648TIP3    H168359   0.921   2.842  11.456  0.5922 -0.5147 -0.3803
15648TIP3    H268360   0.843   2.735  11.382 -0.7299  0.1545  0.0322
15649TIP3   OH268361   2.038   1.952  16.154  0.3676 -0.0935  0.7114
15649TIP3    H168362   1.991   2.020  16.202  1.2518  0.5026  0.7620
15649TIP3    H268363   2.127   1.954  16.191  0.6625 -0.6151  0.0492
15650TIP3   OH268364   4.741   0.905  15.822 -0.0289  0.1889  0.5009
15650TIP3    H168365   4.740   0.901  15.726 -1.5619  0.0263  0.5234
15650TIP3    H268366   4.666   0.959  15.845 -1.2584 -1.9887  1.7071
15651TIP3   OH268367   1.574   0.312   1.194  0.1055  0.4506 -0.3754
15651TIP3    H168368   1.630   0.240   1.166  0.7323  1.1877 -1.0302
15651TIP3    H268369   1.577   0.308   1.290  0.4449 -0.1589 -0.4104
15652TIP3   OH268370   0.674   1.404  15.646  0.6089 -0.6728 -0.5939
15652TIP3    H168371   0.643   1.313  15.649 -2.4987  0.3151 -0.6408
15652TIP3    H268372   0.609   1.453  15.697 -0.4527  2.2093 -4.5118
15653TIP3   OH268373   3.868   3.488   1.641 -0.4161  0.4026 -0.2033
15653TIP3    H168374   3.897   3.549   1.708 -1.6561  0.4738  0.2886
15653TIP3    H268375   3.912   3.406   1.663 -1.3880  0.2292  1.1543
15654TIP3   OH268376   6.589   3.544   0.881  0.2396 -0.1501 -1.0165
15654TIP3    H168377   6.553   3.547   0.792  1.3645  1.0899 -1.4426
15654TIP3    H268378   6.544   3.613   0.928 -2.5183 -2.7024  0.2523
15655TIP3   OH268379   3.495   1.507   1.080  0.0115  0.5929  0.6430
15655TIP3    H168380   3.479   1.518   0.986  0.1888  1.1636  0.6769
15655TIP3    H268381   3.565   1.442   1.085  1.4200  2.0518  0.2986
15656TIP3   OH268382   0.163   6.676   3.219 -0.7567 -0.2859 -0.1816
15656TIP3    H168383   0.247   6.721   3.224 -1.1536  0.5986 -1.4213
15656TIP3    H268384   0.119   6.699   3.301  0.0093 -0.4062  0.2804
15657TIP3   OH268385   5.430   3.030  15.172 -0.6575  0.0187 -0.5461
15657TIP3    H168386   5.505   3.031  15.231 -0.6871  1.0217 -0.5204
15657TIP3    H268387   5.406   2.938  15.164 -0.0467 -0.2038  0.2385
15658TIP3   OH268388   1.972   1.516  15.055 -0.2839  0.2275 -0.2589
15658TIP3    H168389   1.971   1.500  14.961 -0.6027 -0.3143 -0.1664
15658TIP3    H268390   1.880   1.525  15.079 -0.1238  2.0480 -0.2711
15659TIP3   OH268391   4.101   1.398  16.005 -1.0590 -0.0226  0.5082
15659TIP3    H168392   4.076   1.342  16.078  0.2618 -1.4636 -0.1083
15659TIP3    H268393   4.049   1.478  16.017 -3.3086 -1.5347  1.1506
15660TIP3   OH268394   4.738   5.254   3.356  0.1865 -0.6528  0.1872
15660TIP3    H168395   4.684   5.220   3.428  0.0049  0.6988  0.7087
15660TIP3    H268396   4.808   5.304   3.400  1.4461 -1.7874 -0.5032
15661TIP3   OH268397   1.677   0.536  16.408 -0.2780  0.2087 -0.0092
15661TIP3    H168398   1.655   0.580  16.490 -0.9873 -0.5907  0.2428
15661TIP3    H268399   1.655   0.598  16.340 -0.1770  0.6828  0.3887
15662TIP3   OH268400   1.355   2.363   4.055  0.1899 -0.2048 -0.0930
15662TIP3    H168401   1.398   2.362   4.141  0.1335  0.0324 -0.0617
15662TIP3    H268402   1.295   2.289   4.057 -0.9498  0.7336  0.6486
15663TIP3   OH268403   4.535   6.383  16.419  0.4433  0.6261  0.0862
15663TIP3    H168404   4.447   6.371  16.455  0.2319  1.5053 -0.1375
15663TIP3    H268405   4.535   6.331  16.338 -0.0809  1.1422 -0.2507
15664TIP3   OH268406   0.961   1.568   5.586 -0.5643  0.3312 -0.2244
15664TIP3    H168407   0.933   1.477   5.578  0.5191 -0.1333  1.1157
15664TIP3    H268408   0.894   1.609   5.642  1.0401 -0.6362  2.4917
15665TIP3   OH268409   2.036   3.957   5.172 -0.3457  0.3824  0.6465
15665TIP3    H168410   1.946   3.942   5.199 -0.4608  2.4447  1.4315
15665TIP3    H268411   2.056   4.046   5.200  0.9818  1.0160 -2.0958
15666TIP3   OH268412   4.932   2.608   1.005 -0.9148  0.2096 -0.8176
15666TIP3    H168413   4.919   2.612   0.911 -1.6438 -1.2152 -0.7852
15666TIP3    H268414   4.961   2.696   1.029 -0.0826  0.3990 -2.4588
15667TIP3   OH268415   1.504   2.018   6.029 -0.3882 -0.2722  0.4165
15667TIP3    H168416   1.503   2.113   6.019  0.5235 -0.2538  0.4365
15667TIP3    H268417   1.554   2.002   6.109  1.0401 -0.8306 -0.5538
15668TIP3   OH268418   1.328   2.182  17.168  0.3991 -0.3653  0.4393
15668TIP3    H168419   1.270   2.246  17.210 -0.7432 -1.3148  0.3608
15668TIP3    H268420   1.416   2.216  17.182 -0.3558  3.9173 -4.0108
15669TIP3   OH268421   3.106   4.604   4.443  0.2439 -0.4200 -0.2023
15669TIP3    H168422   3.168   4.537   4.473  0.1097 -1.0600 -1.3213
15669TIP3    H268423   3.020   4.570   4.469  0.4384  1.4162  3.1643
15670TIP3   OH268424   0.581   5.897   1.445  0.2117  0.0487 -0.0618
15670TIP3    H168425   0.585   5.961   1.374  0.7559  1.4515  1.2033
15670TIP3    H268426   0.511   5.837   1.420  0.9488  0.0230 -2.1814
15671TIP3   OH268427   0.260   6.613  16.282 -1.0903  0.3192  0.1697
15671TIP3    H168428   0.181   6.661  16.305  0.6735  2.5430  1.7778
15671TIP3    H268429   0.315   6.618  16.359  0.2629 -2.0567 -0.5780
15672TIP3   OH268430   0.848   1.080  16.469 -0.3293  0.0838  0.2048
15672TIP3    H168431   0.853   1.166  16.428 -0.2624 -0.7125 -1.4982
15672TIP3    H268432   0.761   1.047  16.444 -0.5678 -0.1332  1.2878
15673TIP3   OH268433   5.315   5.734   5.588 -0.5955  0.1030 -0.2349
15673TIP3    H168434   5.354   5.701   5.507 -0.6777  1.0906 -0.6830
15673TIP3    H268435   5.253   5.666   5.614 -0.4322 -0.3049 -0.8967
15674TIP3   OH268436   6.222   4.732  13.551  0.3492 -0.5350 -0.3775
15674TIP3    H168437   6.288   4.671  13.515  0.8379 -0.6595  0.6919
15674TIP3    H268438   6.274   4.802  13.590 -0.1087 -1.3020  1.6489
15675TIP3   OH268439   1.150   0.929   0.753  0.6255  0.3034  0.1467
15675TIP3    H168440   1.119   1.016   0.728 -2.5979 -0.4122  1.3382
15675TIP3    H268441   1.157   0.882   0.671 -0.2756  0.9086 -0.2909
15676TIP3   OH268442   3.326   5.487  14.238 -0.4467  0.3639  0.3028
15676TIP3    H168443   3.411   5.478  14.281  0.5746  2.7860 -1.0982
15676TIP3    H268444   3.275   5.543  14.297 -0.7366 -0.2937  0.6787
15677TIP3   OH268445   6.132   3.238  13.639 -0.6627  0.6239 -0.3785
15677TIP3    H168446   6.097   3.210  13.555 -0.4778 -0.1488 -0.1952
15677TIP3    H268447   6.175   3.322  13.620  0.9186 -0.4087 -1.4009
15678TIP3   OH268448   2.221   5.912   3.719 -0.2875 -0.0942 -0.1685
15678TIP3    H168449   2.217   5.970   3.643  1.1589  0.7875  0.4165
15678TIP3    H268450   2.201   5.968   3.794 -2.2964 -1.0834  0.0859
15679TIP3   OH268451   4.489   4.690  10.983 -0.1260 -0.5777 -0.4874
15679TIP3    H168452   4.456   4.749  10.915 -0.1744 -1.2000 -1.0071
15679TIP3    H268453   4.449   4.605  10.963 -1.3787 -0.4330  1.2180
15680TIP3   OH268454   1.796   2.091  12.240  0.1455  0.5047 -0.2428
15680TIP3    H168455   1.807   2.101  12.146  2.7060 -1.1117 -0.1793
15680TIP3    H268456   1.783   2.180  12.272  0.0812  1.1635 -2.0399
15681TIP3   OH268457   6.274   5.632   4.961  0.3731 -0.0504 -0.3844
15681TIP3    H168458   6.334   5.588   4.900  0.3674  0.6553 -0.9101
15681TIP3    H268459   6.224   5.693   4.906 -0.6687 -0.4708  0.0892
15682TIP3   OH268460   2.681   0.515  15.095 -0.2222  0.7213 -0.1364
15682TIP3    H168461   2.595   0.480  15.071 -0.5392  0.8649  0.7602
15682TIP3    H268462   2.663   0.581  15.162  0.5664  0.9004 -0.0883
15683TIP3   OH268463   1.022   3.440   6.102  0.8227 -0.2054 -0.2721
15683TIP3    H168464   0.968   3.473   6.175 -1.2766 -1.0655 -1.3900
15683TIP3    H268465   1.041   3.518   6.050 -1.0109 -0.1537 -0.9076
15684TIP3   OH268466   4.086   1.410   4.768  0.5776  0.6025 -0.0503
15684TIP3    H168467   4.017   1.475   4.769 -0.2953 -0.3165  0.6299
15684TIP3    H268468   4.080   1.367   4.853  1.5467  0.0565 -0.2471
15685TIP3   OH268469   4.576   2.676   0.638  0.4715 -0.0322 -0.3613
15685TIP3    H168470   4.483   2.700   0.640  0.0343 -1.3496 -2.8768
15685TIP3    H268471   4.604   2.700   0.550  2.1238 -1.0949 -0.1351
15686TIP3   OH268472   5.963   4.644  15.768  0.1923  0.1166  0.0322
15686TIP3    H168473   5.973   4.550  15.786  0.9988  0.2028  0.0514
15686TIP3    H268474   5.930   4.647  15.678 -1.4159 -0.2320  0.5993
15687TIP3   OH268475   5.210   5.764  10.425  0.1250 -0.6661  0.6335
15687TIP3    H168476   5.229   5.725  10.510  3.8713  1.5246  0.9198
15687TIP3    H268477   5.202   5.858  10.443  0.0577 -0.2764 -1.2936
15688TIP3   OH268478   3.759   3.571  13.205 -0.0516 -0.0605 -0.3390
15688TIP3    H168479   3.717   3.499  13.251  0.2751  0.2987  0.5158
15688TIP3    H268480   3.747   3.550  13.112 -0.5699 -0.8530 -0.0934
15689TIP3   OH268481   2.710   0.333   3.671  0.4174 -0.0198  0.2003
15689TIP3    H168482   2.737   0.424   3.675  0.6051 -0.0877  0.5186
15689TIP3    H268483   2.628   0.334   3.622  0.4404  0.3137  0.1685
15690TIP3   OH268484   4.730   6.031  13.277 -0.2233 -0.1912  0.0640
15690TIP3    H168485   4.803   5.989  13.231  0.5375  1.1564  0.0243
15690TIP3    H268486   4.712   5.973  13.351  0.1825 -1.0777 -0.5181
15691TIP3   OH268487   6.129   4.195   4.969 -0.4396 -0.1179 -0.0577
15691TIP3    H168488   6.037   4.187   4.944 -0.2307  0.4229 -1.0543
15691TIP3    H268489   6.174   4.129   4.916 -0.1908 -0.0275  0.0405
15692TIP3   OH268490   4.933   5.227  11.185 -0.0925 -0.0918  0.2922
15692TIP3    H168491   4.856   5.252  11.235  1.6780  0.7906  2.6684
15692TIP3    H268492   4.984   5.171  11.245  1.7301  0.3977 -0.7546
15693TIP3   OH268493   1.312   5.957  11.337 -0.5500 -0.0385  0.0810
15693TIP3    H168494   1.224   5.924  11.358 -0.2432 -1.0886 -0.2606
15693TIP3    H268495   1.306   6.052  11.352 -0.6374 -0.5470  3.8488
15694TIP3   OH268496   2.402   2.974  11.787 -0.4650  0.0236  0.0365
15694TIP3    H168497   2.355   3.049  11.823  1.3587  2.2315 -1.9905
15694TIP3    H268498   2.335   2.924  11.741 -1.4072  1.4245 -0.1507
15695TIP3   OH268499   6.015   0.998  13.589  0.4512  0.0938  0.4243
15695TIP3    H168500   6.001   1.089  13.614  2.5470  0.8419 -1.0535
15695TIP3    H268501   6.037   0.953  13.671 -0.8920  0.8238  1.2022
15696TIP3   OH268502   2.492   4.504   5.728 -0.1869 -0.3421 -0.2588
15696TIP3    H168503   2.467   4.595   5.712  0.0910 -0.0613  0.8838
15696TIP3    H268504   2.452   4.455   5.656 -1.0312  0.5695 -0.4145
15697TIP3   OH268505   4.642   1.635  13.448  0.6355 -0.0352 -0.2646
15697TIP3    H168506   4.561   1.636  13.397  0.1430  0.9673  0.5191
15697TIP3    H268507   4.613   1.629  13.539  1.4540 -0.1839 -0.0090
15698TIP3   OH268508   6.050   6.578  12.665  0.4913  0.1289  0.1970
15698TIP3    H168509   6.022   6.487  12.671 -1.4272  0.6965  0.0015
15698TIP3    H268510   6.146   6.573  12.662  0.4217 -1.8484  0.5764
15699TIP3   OH268511   3.954   2.601  15.327 -0.1997  0.0613  0.4506
15699TIP3    H168512   3.956   2.506  15.342  0.1159 -0.0892 -0.5595
15699TIP3    H268513   3.927   2.611  15.236  0.7675  0.9246  0.2532
15700TIP3   OH268514   5.207   2.994  14.220 -0.1209 -0.2238 -0.2407
15700TIP3    H168515   5.117   2.964  14.227 -0.5831  1.3582  0.6516
15700TIP3    H268516   5.213   3.069  14.279  0.6535  2.2720 -3.3082
15701TIP3   OH268517   1.397   3.627  13.669 -0.9901 -0.0372 -0.5011
15701TIP3    H168518   1.416   3.540  13.705  1.3701 -0.0520 -1.6646
15701TIP3    H268519   1.469   3.643  13.607 -1.8692  2.3816 -0.9361
15702TIP3   OH268520   6.142   2.089   5.859 -0.0003  0.2140 -0.1339
15702TIP3    H168521   6.080   2.022   5.887  1.4078 -1.2077 -0.3087
15702TIP3    H268522   6.145   2.151   5.932 -0.8556 -0.2438  0.2981
15703TIP3   OH268523   5.317   1.898   5.699 -0.0511  0.0254  0.2353
15703TIP3    H168524   5.404   1.921   5.667  0.5668 -1.1565  1.0264
15703TIP3    H268525   5.333   1.847   5.779 -1.3826 -1.9347 -0.6899
15704TIP3   OH268526   3.283   3.961   5.002  0.4944 -0.0748  0.1496
15704TIP3    H168527   3.238   4.044   4.983 -0.6500 -0.6907  0.1375
15704TIP3    H268528   3.350   3.985   5.066  0.4238  0.9372 -0.1443
15705TIP3   OH268529   6.337   4.456  10.799 -0.2271 -0.0452 -0.2941
15705TIP3    H168530   6.384   4.413  10.728 -0.4755 -0.7949 -0.0189
15705TIP3    H268531   6.253   4.482  10.761 -0.1777 -0.0386 -0.3981
15706TIP3   OH268532   2.213   2.732   1.246 -0.5349  0.2334 -1.1184
15706TIP3    H168533   2.190   2.657   1.191 -1.4931 -0.2298 -0.1005
15706TIP3    H268534   2.230   2.803   1.183  0.1377 -0.7539 -2.0774
15707TIP3   OH268535   4.442   5.930   3.074  0.1365  0.0184 -0.5909
15707TIP3    H168536   4.363   5.958   3.027 -0.0534  1.1170  0.3663
15707TIP3    H268537   4.480   6.011   3.107  0.4339 -0.7206  0.9092
15708TIP3   OH268538   2.729   3.537  16.300  0.0963 -0.0933 -0.2482
15708TIP3    H168539   2.651   3.587  16.276  1.1307  1.3762 -0.6285
15708TIP3    H268540   2.783   3.537  16.221  0.5068 -1.0633  0.0216
15709TIP3   OH268541   1.160   4.776   4.696 -0.5649 -0.2946 -0.4509
15709TIP3    H168542   1.133   4.688   4.668 -2.3353  0.1125 -0.0469
15709TIP3    H268543   1.133   4.782   4.787  3.4524 -0.8837  0.9050
15710TIP3   OH268544   2.077   2.025   6.093 -0.9293  0.2353  0.4449
15710TIP3    H168545   2.102   2.089   6.160 -1.6316  0.9880  0.0033
15710TIP3    H268546   2.151   1.964   6.088 -0.9412  0.0602  2.0406
15711TIP3   OH268547   2.579   4.145   4.528 -0.5399  0.3785 -0.3397
15711TIP3    H168548   2.617   4.150   4.616  2.1234  2.3495 -1.5069
15711TIP3    H268549   2.509   4.080   4.536  0.6107 -0.6073  2.8626
15712TIP3   OH268550   4.105   5.993  13.979 -0.0330 -0.8256  0.2521
15712TIP3    H168551   4.069   6.074  13.944  3.7582  0.8092  0.0100
15712TIP3    H268552   4.127   6.013  14.070  2.5604 -1.0014 -0.3025
15713TIP3   OH268553   6.262   5.226   4.140 -0.4119  0.1713  0.1848
15713TIP3    H168554   6.340   5.279   4.155 -1.3261  1.6549 -0.2284
15713TIP3    H268555   6.262   5.209   4.046  0.2144 -1.1034  0.4077
15714TIP3   OH268556   5.699   0.576   2.384 -0.0597  0.2649  0.3454
15714TIP3    H168557   5.752   0.595   2.462  1.6451  1.7484 -1.1392
15714TIP3    H268558   5.746   0.617   2.312 -1.4938 -1.2973 -1.5394
15715TIP3   OH268559   5.176   0.444  10.552  0.2949  0.2658  0.1099
15715TIP3    H168560   5.146   0.353  10.555 -1.2386  0.7252 -0.8456
15715TIP3    H268561   5.097   0.495  10.532  1.5097  1.6202 -1.3961
15716TIP3   OH268562   1.409   2.406   0.266 -0.4203  0.5576  0.4258
15716TIP3    H168563   1.453   2.455   0.336  0.5840 -0.1779  0.3246
15716TIP3    H268564   1.408   2.467   0.192  1.2156  0.3055  0.1647
15717TIP3   OH268565   4.640   1.796  12.849  0.1910  0.0783 -0.2792
15717TIP3    H168566   4.704   1.737  12.891 -0.0975 -0.5624 -0.7213
15717TIP3    H268567   4.677   1.812  12.763 -0.6393 -0.9690 -0.8489
15718TIP3   OH268568   4.954   6.690   3.694 -0.8467 -0.4895 -0.0504
15718TIP3    H168569   4.889   6.644   3.748 -2.7097 -0.0208 -1.8011
15718TIP3    H268570   4.930   6.783   3.703  0.2870 -0.2150  0.1704
15719TIP3   OH268571   6.736   3.207   4.395  0.3185 -0.7477  0.0696
15719TIP3    H168572   6.651   3.176   4.363  1.3050 -1.2487 -2.0910
15719TIP3    H268573   6.736   3.301   4.376  0.9479 -1.0645 -1.5387
15720TIP3   OH268574   4.597   2.719  12.944 -0.1605 -0.3876 -0.2528
15720TIP3    H168575   4.640   2.635  12.960 -1.2964 -1.1689 -1.2602
15720TIP3    H268576   4.616   2.739  12.852 -0.4358  0.1422 -0.1989
15721TIP3   OH268577   2.338   4.565   1.908  0.4497 -0.0358 -0.1170
15721TIP3    H168578   2.423   4.563   1.953  0.5304 -2.1632 -0.3045
15721TIP3    H268579   2.301   4.478   1.924 -1.0078  0.3517 -1.3335
15722TIP3   OH268580   0.866   3.731   3.040 -0.5402  0.6362 -0.3712
15722TIP3    H168581   0.788   3.691   3.004  1.2086 -2.0756 -1.3009
15722TIP3    H268582   0.889   3.675   3.115  0.2523  1.6617  0.1642
15723TIP3   OH268583   4.629   4.111  14.606 -0.1548 -0.4998 -0.4079
15723TIP3    H168584   4.565   4.180  14.586 -0.0151 -0.4423 -0.6621
15723TIP3    H268585   4.656   4.129  14.695 -1.7950 -1.5543  0.3308
15724TIP3   OH268586   4.283   3.234   1.520  0.6350 -0.7764  0.3992
15724TIP3    H168587   4.271   3.157   1.465  0.5734 -0.1458 -0.4785
15724TIP3    H268588   4.359   3.278   1.484 -0.9786  1.0537 -0.8483
15725TIP3   OH268589   3.621   0.818  17.238 -0.0662  0.0860  0.0758
15725TIP3    H168590   3.599   0.887  17.301 -1.1807  0.5119 -0.7743
15725TIP3    H268591   3.703   0.847  17.198 -1.0188  1.4012 -0.9567
15726TIP3   OH268592   6.207   4.179   5.954 -0.2226 -0.4121  0.0587
15726TIP3    H168593   6.297   4.211   5.951  0.1822 -1.5072  0.3529
15726TIP3    H268594   6.194   4.133   5.871 -0.5194 -0.2387  0.0072
15727TIP3   OH268595   4.607   4.189  14.926  0.1036 -0.1393  0.0426
15727TIP3    H168596   4.522   4.149  14.908  1.2340 -1.7918 -1.7563
15727TIP3    H268597   4.658   4.120  14.969  1.3144  0.0688 -1.0268
15728TIP3   OH268598   6.656   1.384   2.261 -0.0566 -0.3354 -0.3888
15728TIP3    H168599   6.728   1.421   2.210 -0.1631 -1.0328 -1.0508
15728TIP3    H268600   6.696   1.313   2.310  0.1045  0.5168  0.7274
15729TIP3   OH268601   2.568   3.707   2.313  0.2794 -0.0174 -0.5263
15729TIP3    H168602   2.507   3.642   2.278  2.7969 -2.6275 -0.2567
15729TIP3    H268603   2.569   3.690   2.407  0.9632  0.4041 -0.4572
15730TIP3   OH268604   5.835   4.392  14.161  0.4829  0.2759 -0.4458
15730TIP3    H168605   5.814   4.405  14.068 -1.3652  0.9146  0.0358
15730TIP3    H268606   5.928   4.412  14.167  0.2713  1.8458 -1.8766
15731TIP3   OH268607   0.529   5.120   0.065  0.2130 -0.0981 -0.0190
15731TIP3    H168608   0.532   5.178   0.141  0.8448 -1.1303  0.7743
15731TIP3    H268609   0.482   5.169  -0.002 -0.0643  0.9566  0.9369
15732TIP3   OH268610   5.770   2.420   1.213  0.7992  0.4464  0.3849
15732TIP3    H168611   5.778   2.497   1.156 -0.0791  0.0973 -0.2246
15732TIP3    H268612   5.700   2.442   1.274  1.3705  0.6044  0.9834
15733TIP3   OH268613   6.709   2.052  13.102 -0.5680 -0.5741 -0.9398
15733TIP3    H168614   6.642   2.115  13.078  1.0602  1.2088 -0.9616
15733TIP3    H268615   6.717   2.061  13.197 -1.0226 -1.4826 -0.8081
15734TIP3   OH268616   5.966   5.716  14.861  0.6576 -0.4499  0.3160
15734TIP3    H168617   5.918   5.794  14.835 -0.5953 -0.6998  1.8074
15734TIP3    H268618   6.038   5.750  14.916 -0.1405 -0.3574  1.3235
15735TIP3   OH268619   0.351   4.190  16.262 -0.3486  0.1871 -0.2428
15735TIP3    H168620   0.389   4.136  16.331  2.4806  0.1266 -1.7986
15735TIP3    H268621   0.271   4.143  16.236 -1.1014 -0.1207  2.4804
15736TIP3   OH268622   5.072   1.735   2.533  0.2341  0.5836 -0.1204
15736TIP3    H168623   5.168   1.732   2.530  0.1610 -2.8480 -2.1219
15736TIP3    H268624   5.047   1.783   2.454  0.3100 -1.0727 -1.1886
15737TIP3   OH268625   4.244   4.953  13.014  0.3226  0.0769  0.1528
15737TIP3    H168626   4.257   4.858  13.011  0.8985  0.1609  0.0554
15737TIP3    H268627   4.318   4.986  13.065 -0.3872  0.3786  0.9964
15738TIP3   OH268628   1.235   4.692  14.296 -0.7632  0.2785  0.0783
15738TIP3    H168629   1.286   4.612  14.286 -0.6666  0.3481  0.0034
15738TIP3    H268630   1.177   4.675  14.370 -1.7648 -0.3871 -0.8490
15739TIP3   OH268631   1.324   5.194  10.913  0.3631  0.1208  0.1256
15739TIP3    H168632   1.412   5.156  10.902  1.5523  2.7964  0.1492
15739TIP3    H268633   1.297   5.218  10.825 -0.2055 -0.3744  0.1645
15740TIP3   OH268634   0.596   6.441   5.456 -0.4031  0.4846 -0.3852
15740TIP3    H168635   0.545   6.521   5.467 -3.2969 -1.5241  1.2442
15740TIP3    H268636   0.639   6.428   5.541  0.2582  0.4076 -0.7230
15741TIP3   OH268637   1.413   2.907  13.145 -0.0446  0.0472  0.7154
15741TIP3    H168638   1.504   2.910  13.116 -0.3553  2.1576 -0.1324
15741TIP3    H268639   1.414   2.850  13.223  1.9210 -0.2049  0.5266
15742TIP3   OH268640   1.184   1.973   2.056 -0.0960  0.4196 -0.0078
15742TIP3    H168641   1.132   2.044   2.093  0.8350  0.9942  0.2323
15742TIP3    H268642   1.254   2.017   2.008 -0.1572 -0.3330 -0.8008
15743TIP3   OH268643   2.633   5.872   4.222  0.3743 -0.5501 -0.7433
15743TIP3    H168644   2.568   5.885   4.153  0.2227  0.0894 -0.4794
15743TIP3    H268645   2.631   5.953   4.272  0.7598 -0.8690 -0.2149
15744TIP3   OH268646   5.612   1.575   2.061 -0.1909  0.4754  0.3590
15744TIP3    H168647   5.532   1.590   2.110 -1.4021  0.9177 -1.6864
15744TIP3    H268648   5.584   1.529   1.982  1.5654  0.6508 -0.4010
15745TIP3   OH268649   5.032   1.903   4.398 -0.1739 -0.4380 -0.0504
15745TIP3    H168650   4.979   1.981   4.412  0.3689  0.2950 -1.8746
15745TIP3    H268651   4.978   1.848   4.341 -0.1962 -0.9920  0.5113
15746TIP3   OH268652   5.209   5.816  12.062  0.0003  0.0912  0.4703
15746TIP3    H168653   5.295   5.817  12.021 -0.0520 -2.0008  0.2583
15746TIP3    H268654   5.164   5.741  12.023 -1.2793  0.0889  1.8734
15747TIP3   OH268655   1.872   2.533  13.679 -0.2220 -0.2662  0.3100
15747TIP3    H168656   1.895   2.488  13.598 -0.3603 -0.2334  0.2522
15747TIP3    H268657   1.920   2.486  13.747 -0.0981 -0.2879  0.2088
15748TIP3   OH268658   5.789   4.709  11.970  0.1297 -0.6416  0.2313
15748TIP3    H168659   5.820   4.619  11.979 -0.1567 -0.8857 -1.2023
15748TIP3    H268660   5.719   4.705  11.905 -0.7123  0.4279  1.0522
15749TIP3   OH268661   6.487   4.606   5.294 -0.4181 -0.4070 -0.4547
15749TIP3    H168662   6.423   4.618   5.364  1.0783  0.5782  0.7932
15749TIP3    H268663   6.462   4.670   5.227 -1.2572 -0.6580 -0.3890
15750TIP3   OH268664   1.974   1.505  15.663 -0.0461  0.4233  0.4563
15750TIP3    H168665   1.880   1.492  15.675 -0.0790  0.2368 -0.0079
15750TIP3    H268666   1.987   1.502  15.568  0.5636 -0.5397  0.5583
15751TIP3   OH268667   6.559   5.211  13.377 -0.1856 -0.4328 -0.0085
15751TIP3    H168668   6.634   5.263  13.406 -0.0250 -0.4206 -0.4388
15751TIP3    H268669   6.558   5.222  13.282 -1.7662  0.9645  0.1558
15752TIP3   OH268670   0.912   4.573   4.764  0.2643 -0.2283 -0.7235
15752TIP3    H168671   0.916   4.532   4.850  1.9171  1.1142 -0.1453
15752TIP3    H268672   0.980   4.529   4.713 -1.5580 -1.9314 -1.8000
15753TIP3   OH268673   5.074   4.439   3.711 -0.3730 -0.3428 -0.2921
15753TIP3    H168674   4.988   4.460   3.673 -0.2690  0.5382 -0.0595
15753TIP3    H268675   5.054   4.378   3.782 -0.6877 -1.0716 -1.0089
15754TIP3   OH268676   6.690   0.487   2.101 -0.0509 -0.1483 -0.2022
15754TIP3    H168677   6.717   0.505   2.191 -0.8033 -0.7032  0.1451
15754TIP3    H268678   6.749   0.417   2.072  1.2932  1.1807 -0.7283
15755TIP3   OH268679   4.238   1.061   1.131  0.5169 -0.2199  0.4450
15755TIP3    H168680   4.188   0.998   1.183  0.2618 -0.8250 -0.5213
15755TIP3    H268681   4.325   1.061   1.171 -0.2443  0.8570  2.1457
15756TIP3   OH268682   5.177   1.770  15.116 -0.1228 -0.0405  0.1434
15756TIP3    H168683   5.135   1.712  15.052  1.2115 -1.0176  0.1479
15756TIP3    H268684   5.215   1.840  15.063  0.6258 -0.6305 -0.1066
15757TIP3   OH268685   4.841   1.948   1.092 -0.2598  0.1295  0.1459
15757TIP3    H168686   4.801   1.990   1.016 -1.2064 -0.5990  0.2317
15757TIP3    H268687   4.808   1.858   1.090 -2.0179  0.6852  2.6176
15758TIP3   OH268688   3.643   4.549   4.923  0.5128  0.2109  0.0653
15758TIP3    H168689   3.602   4.561   4.838 -1.0017  0.3528  0.8048
15758TIP3    H268690   3.671   4.457   4.924 -2.1178 -0.6361  0.5307
15759TIP3   OH268691   1.632   0.730   1.552  0.7213  0.2083 -0.1468
15759TIP3    H168692   1.555   0.738   1.608  0.8873 -2.2427  0.4989
15759TIP3    H268693   1.597   0.724   1.463  0.2261  0.2131  0.0471
15760TIP3   OH268694   5.387   0.616  16.228 -0.4548 -0.6471  0.5999
15760TIP3    H168695   5.452   0.685  16.216 -1.3478  0.5095  2.1960
15760TIP3    H268696   5.422   0.562  16.299 -0.4054 -1.0572  0.2656
15761TIP3   OH268697   1.138   6.373   2.766 -0.0780 -0.6715  0.1347
15761TIP3    H168698   1.185   6.292   2.749  0.6346 -0.5306  1.3765
15761TIP3    H268699   1.078   6.383   2.692  2.7914 -0.1376 -2.1867
15762TIP3   OH268700   1.283   5.086  12.858 -0.3402  0.2553  0.1895
15762TIP3    H168701   1.284   5.025  12.931  1.4820 -0.2748 -0.2678
15762TIP3    H268702   1.192   5.116  12.853 -0.9545 -1.3842  1.2728
15763TIP3   OH268703   4.483   3.135  15.304 -0.4546  0.1644  0.6259
15763TIP3    H168704   4.541   3.182  15.363 -0.6032 -0.0095  0.9143
15763TIP3    H268705   4.540   3.072  15.259 -0.9991 -2.5487  3.5471
15764TIP3   OH268706   1.209   4.035   5.957 -0.2373 -0.1214  0.0141
15764TIP3    H168707   1.240   3.996   6.039  0.1657 -1.0632 -0.5722
15764TIP3    H268708   1.117   4.053   5.972 -0.3042 -0.8259  0.4828
15765TIP3   OH268709   1.107   4.381   3.050  0.0832  0.4571  0.2089
15765TIP3    H168710   1.120   4.286   3.058  0.6682  0.5820  0.8155
15765TIP3    H268711   1.181   4.410   2.996 -0.4517  0.4791 -0.5107
15766TIP3   OH268712   0.190   1.766  15.718 -0.1615 -0.4101  0.0488
15766TIP3    H168713   0.201   1.680  15.679  0.4569 -0.3797  0.1476
15766TIP3    H268714   0.119   1.806  15.668 -0.6870 -1.1039  0.2343
15767TIP3   OH268715   2.338   2.807  12.783 -0.2637  0.4402  0.1809
15767TIP3    H168716   2.351   2.721  12.824 -0.9857  0.4291  0.3884
15767TIP3    H268717   2.280   2.790  12.709  0.5580  0.5604 -0.4969
15768TIP3   OH268718   3.723   2.909  16.793 -0.2988 -0.1591 -0.0469
15768TIP3    H168719   3.722   2.855  16.872 -0.4516 -0.2136 -0.0846
15768TIP3    H268720   3.710   2.998  16.824  1.6445  0.0713  0.1634
15769TIP3   OH268721   3.521   3.236  15.014 -0.3894 -0.5525 -0.1191
15769TIP3    H168722   3.467   3.188  15.077 -1.7939 -0.7219 -1.4482
15769TIP3    H268723   3.543   3.318  15.060  1.9639 -2.3390  2.1326
15770TIP3   OH268724   6.257   3.992  11.267 -0.1053  0.2526  0.7534
15770TIP3    H168725   6.217   4.042  11.195  1.3967  2.7694  1.6380
15770TIP3    H268726   6.337   3.956  11.229 -0.3158 -0.0716  0.6117
15771TIP3   OH268727   5.876   1.938  15.001  0.6441  0.5367 -0.2698
15771TIP3    H168728   5.820   1.971  14.931  1.1961 -0.0747 -1.0144
15771TIP3    H268729   5.846   1.983  15.079 -0.2556  0.9246 -0.8285
15772TIP3   OH268730   5.163   6.038   2.095 -0.3605 -0.2886 -0.4728
15772TIP3    H168731   5.136   6.128   2.076 -0.1961 -0.0870  0.2382
15772TIP3    H268732   5.217   6.045   2.173  0.0755 -0.9492 -0.7161
15773TIP3   OH268733   1.803   6.162   5.939  0.2264  0.0662  0.8315
15773TIP3    H168734   1.722   6.128   5.974 -0.7873  1.3434 -0.2144
15773TIP3    H268735   1.832   6.226   6.004  0.9324 -1.1018  1.6837
15774TIP3   OH268736   5.161   5.289  15.858 -0.0263  0.3358  0.0399
15774TIP3    H168737   5.189   5.302  15.948  2.4345  2.8045 -1.0000
15774TIP3    H268738   5.226   5.230  15.821  0.0252  0.8025 -0.6197
15775TIP3   OH268739   0.509   1.317  13.522  0.3362  0.2235 -0.8958
15775TIP3    H168740   0.449   1.243  13.529 -0.0106  0.5884  0.1299
15775TIP3    H268741   0.596   1.277  13.518  0.0748 -0.2808 -1.7412
15776TIP3   OH268742   2.506   3.189  12.987  0.5505 -0.3650 -0.0824
15776TIP3    H168743   2.500   3.125  13.059 -0.1576 -1.8336 -1.4190
15776TIP3    H268744   2.416   3.199  12.957  0.9363 -0.3345 -1.2410
15777TIP3   OH268745   6.047   6.501   2.606 -0.1673  0.2783 -0.3721
15777TIP3    H168746   6.099   6.421   2.599  0.3174  0.5678 -0.1396
15777TIP3    H268747   6.079   6.543   2.686 -1.9256 -0.3651  0.6704
15778TIP3   OH268748   0.278   3.302  16.372  0.0414 -0.2729  0.0695
15778TIP3    H168749   0.228   3.296  16.290  0.9540 -1.5111 -0.4047
15778TIP3    H268750   0.285   3.396  16.388  0.0452 -0.0004 -1.3945
15779TIP3   OH268751   2.475   2.739   3.993  0.8260  0.1634  0.0538
15779TIP3    H168752   2.456   2.690   4.073  0.1829 -2.1601 -1.4728
15779TIP3    H268753   2.402   2.719   3.935  1.8274  0.9269 -1.5011
15780TIP3   OH268754   6.360   5.598   1.888  0.1837  0.2256 -0.2304
15780TIP3    H168755   6.344   5.590   1.794 -0.4108 -0.7832 -0.0538
15780TIP3    H268756   6.283   5.644   1.921  0.3045  0.4145 -0.2143
15781TIP3   OH268757   3.226   0.840  12.515 -0.2893  0.2544 -0.5071
15781TIP3    H168758   3.247   0.753  12.479  2.3327  0.7240 -0.2672
15781TIP3    H268759   3.308   0.868  12.557 -1.8894  1.7146  1.7465
15782TIP3   OH268760   4.808   3.204   0.204  0.3209 -0.0025 -0.3705
15782TIP3    H168761   4.779   3.232   0.117  0.0320 -0.7797 -0.5305
15782TIP3    H268762   4.813   3.108   0.197  0.7512 -0.0278  0.3287
15783TIP3   OH268763   1.475   2.838  17.070 -0.9132  0.2574  0.7902
15783TIP3    H168764   1.493   2.927  17.038  0.1151 -0.8027 -1.7713
15783TIP3    H268765   1.561   2.795  17.069 -1.5004 -0.9285  1.4205
15784TIP3   OH268766   1.348   3.564   2.263 -0.2919 -0.3049 -0.0192
15784TIP3    H168767   1.349   3.623   2.339 -0.6866 -0.5566  0.1865
15784TIP3    H268768   1.405   3.606   2.199 -0.9279  0.5309 -0.0403
15785TIP3   OH268769   4.867   4.969  11.961 -0.1448 -0.0348  0.2572
15785TIP3    H168770   4.860   4.894  11.901  0.4568  0.0913  0.0199
15785TIP3    H268771   4.836   5.043  11.909 -0.8033 -0.1296  0.5134
15786TIP3   OH268772   0.582   0.527   5.339 -0.0295 -0.0589  0.4083
15786TIP3    H168773   0.576   0.518   5.244  2.0229 -0.7606  0.3053
15786TIP3    H268774   0.513   0.471   5.373 -0.2281 -0.4849 -0.6657
15787TIP3   OH268775   0.527   6.515   0.586  0.1571  0.4097 -0.1623
15787TIP3    H168776   0.606   6.551   0.627  0.6557 -0.2610 -0.5213
15787TIP3    H268777   0.477   6.592   0.560  1.2101  0.8554 -0.9166
15788TIP3   OH268778   1.039   2.262  15.149 -0.1507 -0.0953  0.7749
15788TIP3    H168779   1.126   2.222  15.157 -0.0251 -0.5057 -2.1077
15788TIP3    H268780   1.055   2.356  15.149  0.5047 -0.1831 -1.4258
15789TIP3   OH268781   0.446   0.165   4.847  0.4823  0.1516 -0.0651
15789TIP3    H168782   0.392   0.118   4.784  1.8884  0.3722 -1.4365
15789TIP3    H268783   0.402   0.249   4.858 -0.4722 -0.3800  0.2520
15790TIP3   OH268784   4.449   0.316  16.305 -0.0186  0.2818 -0.1027
15790TIP3    H168785   4.367   0.337  16.350 -0.2564  1.8262 -1.2138
15790TIP3    H268786   4.513   0.378  16.342 -0.2142  1.5477 -1.8212
15791TIP3   OH268787   2.328   4.563   1.116 -0.0763  0.1247  0.2719
15791TIP3    H168788   2.289   4.510   1.186 -0.1514 -1.3853 -0.9156
15791TIP3    H268789   2.373   4.501   1.060  1.8400  1.5766  0.1439
15792TIP3   OH268790   4.165   6.067   0.991 -0.0932 -0.1775 -0.2573
15792TIP3    H168791   4.080   6.053   0.948 -0.7359  2.2703  0.1009
15792TIP3    H268792   4.189   6.156   0.967  1.6013 -0.2765  0.9926
15793TIP3   OH268793   6.757   3.965   1.284  0.0039 -0.3423 -0.5321
15793TIP3    H168794   6.830   3.993   1.338  0.5312  0.7744 -1.7746
15793TIP3    H268795   6.769   3.871   1.272  1.5152 -0.0739 -1.1469
15794TIP3   OH268796   2.590   5.962  11.226  0.0370  0.2336 -0.3273
15794TIP3    H168797   2.568   5.882  11.178  1.3198  0.5523 -1.4936
15794TIP3    H268798   2.513   5.980  11.280  0.2222 -2.5058  0.9565
15795TIP3   OH268799   5.945   2.157   4.336  0.2055 -0.0912 -0.1869
15795TIP3    H168800   5.920   2.069   4.364  0.7318 -0.2559 -0.2132
15795TIP3    H268801   5.944   2.209   4.416  0.3674 -0.2379 -0.0887
15796TIP3   OH268802   3.619   2.914   0.707 -0.1093 -0.1116  0.0856
15796TIP3    H168803   3.564   2.993   0.712  1.0783  0.9448 -2.7523
15796TIP3    H268804   3.685   2.928   0.775 -0.2707  1.0523  0.0191
15797TIP3   OH268805   1.441   0.714   1.377 -0.1150 -0.2850  0.4279
15797TIP3    H168806   1.382   0.742   1.308  1.4862 -3.2561 -2.2549
15797TIP3    H268807   1.398   0.638   1.416 -0.1526  0.2935  1.5584
15798TIP3   OH268808   2.581   5.519   2.287  0.3620 -0.0127  0.5733
15798TIP3    H168809   2.622   5.447   2.237  1.8741  0.7379  0.7023
15798TIP3    H268810   2.513   5.553   2.228  0.5974 -0.6195 -0.0600
15799TIP3   OH268811   5.573   1.490   3.173 -0.1728  0.4534 -0.1164
15799TIP3    H168812   5.548   1.420   3.112 -0.5528  0.3146  0.1961
15799TIP3    H268813   5.490   1.527   3.203  0.0371  1.8267 -1.1697
15800TIP3   OH268814   1.519   3.606  12.582 -0.0545 -0.6884 -0.9159
15800TIP3    H168815   1.605   3.567  12.568  0.1773 -0.2143 -0.8322
15800TIP3    H268816   1.503   3.597  12.676 -0.1421 -0.8734 -0.9483
15801TIP3   OH268817   0.374   3.820   1.121 -0.1925  0.0286 -0.2355
15801TIP3    H168818   0.302   3.863   1.074 -0.2934  0.5066  0.3506
15801TIP3    H268819   0.447   3.882   1.114 -0.4118  0.4080  0.8229
15802TIP3   OH268820   2.925   0.844   6.602  0.4351  0.0330 -0.0983
15802TIP3    H168821   2.880   0.846   6.518 -0.3100 -0.7885  0.2704
15802TIP3    H268822   2.974   0.926   6.605  0.3717  0.1243 -1.2740
15803TIP3   OH268823   1.462   3.748   0.897  0.3630  0.4098 -0.2702
15803TIP3    H168824   1.461   3.784   0.809  1.4515  0.0330 -0.4446
15803TIP3    H268825   1.511   3.812   0.949  1.4050 -0.2819 -0.3628
15804TIP3   OH268826   2.731   2.528   4.063 -0.1055 -0.2070  0.2831
15804TIP3    H168827   2.655   2.471   4.071 -0.6214  0.5907  1.2076
15804TIP3    H268828   2.716   2.580   3.984  0.1455 -1.0107 -0.3007
15805TIP3   OH268829   4.167   1.108  11.410 -0.1223  0.0615 -0.1267
15805TIP3    H168830   4.236   1.173  11.408 -0.8266  0.8485  0.7141
15805TIP3    H268831   4.090   1.153  11.376  0.0544 -1.1733 -2.2737
15806TIP3   OH268832   2.965   1.045  16.337  0.0285 -0.5738  0.0452
15806TIP3    H168833   3.030   0.978  16.356  0.6766  0.2297  0.7245
15806TIP3    H268834   2.944   1.033  16.244  0.5165 -1.3869  0.0373
15807TIP3   OH268835   3.046   2.893  13.805 -0.5759  0.4310  0.1327
15807TIP3    H168836   2.971   2.904  13.748  0.0589  1.5352 -0.5125
15807TIP3    H268837   3.122   2.906  13.748  0.1121 -0.6967  0.7572
15808TIP3   OH268838   1.529   2.351   1.815  0.1853  0.1146  0.1181
15808TIP3    H168839   1.562   2.385   1.898  0.4869 -0.4889  0.2505
15808TIP3    H268840   1.586   2.276   1.796  0.2224  0.3453 -0.7134
15809TIP3   OH268841   1.460   6.224  16.410 -0.0242  0.1611  0.5792
15809TIP3    H168842   1.427   6.191  16.494  2.5537 -0.7757  1.2662
15809TIP3    H268843   1.409   6.178  16.344 -0.2917 -1.0508  1.6100
15810TIP3   OH268844   1.443   3.587  10.798 -0.9023 -0.0612  0.1652
15810TIP3    H168845   1.359   3.615  10.761 -1.2346  1.0765  1.7380
15810TIP3    H268846   1.501   3.662  10.785 -0.4062 -0.4745 -0.0169
15811TIP3   OH268847   3.169   5.372  16.688 -0.2223  0.1972 -0.0034
15811TIP3    H168848   3.175   5.461  16.722 -1.5793 -0.4736  2.0471
15811TIP3    H268849   3.201   5.316  16.759  2.8268 -0.8534 -2.0801
15812TIP3   OH268850   5.347   0.879   2.551 -0.2844  0.5745  0.0783
15812TIP3    H168851   5.384   0.961   2.518  0.6443 -0.3819 -1.3129
15812TIP3    H268852   5.256   0.900   2.572  0.1685  2.1622  0.5238
15813TIP3   OH268853   3.704   0.076  12.150  0.1591 -0.6958 -0.8111
15813TIP3    H168854   3.739  -0.002  12.192 -0.2825 -1.1273 -1.2393
15813TIP3    H268855   3.778   0.136  12.144  0.7659 -1.5141 -1.5087
15814TIP3   OH268856   4.131   0.997  12.312  0.0559  0.2215 -0.4759
15814TIP3    H168857   4.146   1.030  12.223 -2.9801 -0.9978 -1.4717
15814TIP3    H268858   4.037   1.000  12.324  0.3056 -0.9606  2.2320
15815TIP3   OH268859   2.273   3.292  11.417  0.0300  0.2082 -0.3974
15815TIP3    H168860   2.288   3.199  11.432 -1.2416  0.4161  2.5658
15815TIP3    H268861   2.188   3.296  11.374  0.5009 -0.0212 -1.3685
15816TIP3   OH268862   3.200   4.257  12.679 -0.6947 -0.1612  0.8109
15816TIP3    H168863   3.267   4.302  12.628 -0.1306 -2.0738 -0.2119
15816TIP3    H268864   3.147   4.327  12.718  1.3573  1.3593  0.9239
15817TIP3   OH268865   3.663   4.343  16.829 -0.3188  0.0242  0.6860
15817TIP3    H168866   3.725   4.295  16.884 -1.2037 -2.1317 -0.1377
15817TIP3    H268867   3.648   4.425  16.875 -0.5488 -1.4567  3.3263
15818TIP3   OH268868   0.683   3.803   5.560  0.2159  0.4264 -0.3629
15818TIP3    H168869   0.593   3.791   5.528  0.5027 -0.6342 -0.8065
15818TIP3    H268870   0.701   3.724   5.612  0.8703  0.6475 -0.2502
15819TIP3   OH268871   5.303   5.903   2.676  0.4773 -0.1839  0.7649
15819TIP3    H168872   5.306   5.808   2.684  0.1476 -0.1357  1.4510
15819TIP3    H268873   5.229   5.930   2.731  1.7942  0.6380  2.1514
15820TIP3   OH268874   4.749   3.441   3.507  0.7862 -0.2082  0.1950
15820TIP3    H168875   4.837   3.424   3.539 -0.1396 -5.0256  0.5588
15820TIP3    H268876   4.703   3.480   3.582  1.6009 -1.1945  1.2247
15821TIP3   OH268877   4.818   1.156  14.001  1.0114  0.1553 -0.3971
15821TIP3    H168878   4.859   1.241  14.019  0.7205  0.2734 -0.2944
15821TIP3    H268879   4.796   1.121  14.087  4.0441 -1.4766 -0.2325
15822TIP3   OH268880   1.614   0.438   4.447 -0.0376  0.2250  0.0203
15822TIP3    H168881   1.687   0.377   4.430  0.3778  0.4694  0.8820
15822TIP3    H268882   1.547   0.414   4.383  0.6253 -0.3075 -0.4798
15823TIP3   OH268883   1.574   3.540   3.880 -0.4428 -0.0046 -0.1412
15823TIP3    H168884   1.509   3.483   3.920 -0.1059 -1.0557 -1.0949
15823TIP3    H268885   1.594   3.500   3.796  1.7263  0.0814  0.2929
15824TIP3   OH268886   3.190   1.738  12.681  0.4065 -0.6564 -0.1849
15824TIP3    H168887   3.128   1.772  12.616  0.8205  0.8662  0.2088
15824TIP3    H268888   3.274   1.778  12.658  0.8729 -1.3132  0.3640
15825TIP3   OH268889   6.074   4.033  14.097 -0.5106 -0.2406 -0.2452
15825TIP3    H168890   6.015   3.977  14.048  0.1538 -0.9683 -0.2334
15825TIP3    H268891   6.059   4.010  14.189 -1.6053  0.9705 -0.1155
15826TIP3   OH268892   3.113   6.365   0.831 -0.0516  0.1671 -0.3631
15826TIP3    H168893   3.085   6.284   0.875 -2.4985  0.3538 -1.4484
15826TIP3    H268894   3.110   6.431   0.899  0.6097 -0.4040  0.2248
15827TIP3   OH268895   5.502   2.407  13.615  0.0237 -0.2368  0.5739
15827TIP3    H168896   5.435   2.370  13.672  1.1428 -1.9928  0.7764
15827TIP3    H268897   5.548   2.470  13.671  0.8651 -1.6695  1.5249
15828TIP3   OH268898   2.603   1.471  13.237 -0.1112 -0.6880  0.5134
15828TIP3    H168899   2.530   1.430  13.193 -0.3051  0.4625 -0.2601
15828TIP3    H268900   2.680   1.423  13.207 -0.2610 -0.0327 -0.9475
15829TIP3   OH268901   3.239   1.717   1.887  0.2665  0.6919 -0.2992
15829TIP3    H168902   3.193   1.637   1.913  0.9959  0.1087 -0.7911
15829TIP3    H268903   3.180   1.788   1.912 -0.8359 -0.0452 -0.7945
15830TIP3   OH268904   4.197   4.546  16.230 -0.0038  0.7037 -0.3515
15830TIP3    H168905   4.171   4.499  16.310 -0.4927 -0.0963 -0.9652
15830TIP3    H268906   4.198   4.478  16.162 -0.6898  1.5852 -1.2528
15831TIP3   OH268907   4.830   2.047   0.783 -0.1190  0.2658  0.8117
15831TIP3    H168908   4.922   2.040   0.806  0.6679 -1.0718 -2.4308
15831TIP3    H268909   4.830   2.101   0.704 -2.1151  0.2534  0.7882
15832TIP3   OH268910   2.653   3.175   0.597 -0.2186  0.0431  0.0461
15832TIP3    H168911   2.699   3.179   0.512 -0.5500 -0.9695 -0.1857
15832TIP3    H268912   2.610   3.090   0.597 -1.9417  0.9036  0.3632
15833TIP3   OH268913   2.577   3.771  12.095 -0.0965 -1.0000 -0.6533
15833TIP3    H168914   2.639   3.730  12.034 -1.6725 -1.1811 -2.1849
15833TIP3    H268915   2.539   3.844  12.045 -0.4331 -0.3246  0.5820
15834TIP3   OH268916   1.463   6.406   5.820 -0.8397 -0.1922 -0.1881
15834TIP3    H168917   1.533   6.368   5.767  0.7647  0.2912  1.5534
15834TIP3    H268918   1.500   6.413   5.908 -1.6997  3.6520 -0.0476
15835TIP3   OH268919   0.704   1.853  12.822 -0.0901 -0.4707 -0.3320
15835TIP3    H168920   0.714   1.817  12.910 -1.6290 -2.0670 -0.7765
15835TIP3    H268921   0.792   1.848  12.783 -0.0865 -3.0606 -0.0966
15836TIP3   OH268922   3.897   6.645   4.117 -0.1706 -0.1114  0.6712
15836TIP3    H168923   3.844   6.680   4.188  0.5557  0.1471  1.0871
15836TIP3    H268924   3.970   6.601   4.160  0.0080 -0.3840  0.1001
15837TIP3   OH268925   2.360   0.470  13.975  0.4091  0.1916 -0.4891
15837TIP3    H168926   2.369   0.554  13.930  3.0091  1.0088  1.4413
15837TIP3    H268927   2.285   0.428  13.933 -0.7371  3.3281 -1.7234
15838TIP3   OH268928   5.714   4.140  12.536  0.1122  0.0148  0.3038
15838TIP3    H168929   5.768   4.219  12.532  0.0623 -0.0405 -1.9663
15838TIP3    H268930   5.709   4.109  12.446 -2.2254 -0.9886  0.7305
15839TIP3   OH268931   0.540   2.698  13.774 -0.8837  0.0807 -0.3220
15839TIP3    H168932   0.600   2.685  13.701 -2.3324  2.6037 -2.0270
15839TIP3    H268933   0.593   2.679  13.852  1.1462 -0.9963 -1.9073
15840TIP3   OH268934   0.060   2.753  11.325 -0.8981  0.4589  0.1777
15840TIP3    H168935   0.024   2.839  11.350 -0.3707  1.6700 -2.9963
15840TIP3    H268936   0.155   2.765  11.328 -0.8107  0.9072 -3.0786
15841TIP3   OH268937   6.169   2.301  14.462  0.2470  0.1430  0.2431
15841TIP3    H168938   6.259   2.308  14.494 -0.2546 -2.2072  2.2861
15841TIP3    H268939   6.160   2.210  14.436 -0.6945  1.0353 -2.6849
15842TIP3   OH268940   2.445   6.042  15.576 -0.5528  0.2523  0.0107
15842TIP3    H168941   2.384   6.109  15.546 -0.7399 -0.0289 -0.2467
15842TIP3    H268942   2.389   5.972  15.610 -0.4342 -0.5590 -1.3884
15843TIP3   OH268943   6.095   4.442   0.811  0.0826  0.7429 -0.1346
15843TIP3    H168944   6.171   4.440   0.753  0.0134 -0.4668 -0.2039
15843TIP3    H268945   6.113   4.373   0.876 -1.0179  0.3313 -0.2471
15844TIP3   OH268946   1.221   3.781  14.903 -0.4051  0.4101  0.4904
15844TIP3    H168947   1.226   3.855  14.964 -2.1331  0.1972  0.9089
15844TIP3    H268948   1.305   3.736  14.913 -0.3678  0.8234  2.1613
15845TIP3   OH268949   5.347   6.506   0.623 -0.0934  0.1264  0.2389
15845TIP3    H168950   5.360   6.566   0.550  1.7819 -0.9293 -0.3291
15845TIP3    H268951   5.409   6.434   0.607 -1.8719 -1.6816  1.2034
15846TIP3   OH268952   6.536   4.714   3.090 -0.2400 -0.0856 -0.4216
15846TIP3    H168953   6.515   4.621   3.085 -3.3777  0.3880  1.8592
15846TIP3    H268954   6.598   4.720   3.163  0.6417 -0.4519 -1.1277
15847TIP3   OH268955   0.371   3.183   1.449 -0.7199  0.2070 -0.2964
15847TIP3    H168956   0.424   3.241   1.503 -0.5336  0.8126 -1.1080
15847TIP3    H268957   0.429   3.158   1.377 -1.0741 -0.2942 -0.4095
15848TIP3   OH268958   3.635   1.851  16.846  0.2873 -0.8848  0.0113
15848TIP3    H168959   3.712   1.848  16.790  0.2281 -0.4081 -0.0923
15848TIP3    H268960   3.636   1.938  16.885 -0.6342 -0.5712 -0.6200
15849TIP3   OH268961   3.220   4.850   3.326  0.6363 -0.4060  0.7305
15849TIP3    H168962   3.258   4.904   3.395  0.6360 -0.4722  0.7817
15849TIP3    H268963   3.143   4.811   3.366 -0.7494  1.4587 -0.0192
15850TIP3   OH268964   2.610   6.246   5.062 -0.0584  0.5950 -0.0158
15850TIP3    H168965   2.652   6.261   5.147 -0.4642 -1.4908  0.5723
15850TIP3    H268966   2.683   6.240   5.000  0.1994  3.1276 -0.0080
15851TIP3   OH268967   4.731   6.091   5.640  0.1241 -0.0590 -0.0330
15851TIP3    H168968   4.806   6.139   5.607 -0.2737 -0.1846 -1.1341
15851TIP3    H268969   4.743   6.090   5.735  1.2489  0.3434 -0.1669
15852TIP3   OH268970   4.794   4.704   0.985 -0.3978  0.5799 -0.3396
15852TIP3    H168971   4.785   4.636   0.918 -0.1099  0.0914  0.1146
15852TIP3    H268972   4.836   4.660   1.058 -1.5497  0.8636  0.5139
15853TIP3   OH268973   3.567   6.153   4.209 -0.6239 -0.2988 -0.4002
15853TIP3    H168974   3.617   6.167   4.128 -1.1484 -0.0212 -0.6759
15853TIP3    H268975   3.622   6.191   4.277  0.5275 -1.8852 -0.4165
15854TIP3   OH268976   4.473   0.531  11.874  0.5897  0.4028 -0.4308
15854TIP3    H168977   4.538   0.497  11.936  0.2893  0.3325 -0.1512
15854TIP3    H268978   4.427   0.598  11.923  1.7766  1.8568 -1.2732
15855TIP3   OH268979   0.255   0.066  12.143  0.0110 -0.0219  0.0373
15855TIP3    H168980   0.224   0.148  12.103  0.1440  0.4009  0.7863
15855TIP3    H268981   0.175   0.017  12.162 -0.1631  0.5832  0.9424
15856TIP3   OH268982   4.540   0.598   1.917  0.3090 -0.4511 -0.2694
15856TIP3    H168983   4.620   0.594   1.971  1.2267  0.7338 -1.5285
15856TIP3    H268984   4.562   0.548   1.839 -0.5968 -1.0897 -0.1284
15857TIP3   OH268985   4.599   0.834  10.941  0.2321 -0.1662  0.2248
15857TIP3    H168986   4.673   0.805  10.888  0.5639  0.3048  0.4347
15857TIP3    H268987   4.590   0.927  10.922 -0.7386 -0.3670 -0.3222
15858TIP3   OH268988   2.355   5.454   3.224  0.1098  0.2526 -0.5296
15858TIP3    H168989   2.304   5.455   3.306  0.2843  2.4152 -0.4162
15858TIP3    H268990   2.334   5.370   3.184 -0.6985 -0.4468  1.3075
15859TIP3   OH268991   6.559   4.784   4.052  0.4431  0.0205  0.1765
15859TIP3    H168992   6.485   4.755   4.106  1.5316 -0.3826  1.4904
15859TIP3    H268993   6.521   4.844   3.989 -0.9923 -0.0959  0.9097
15860TIP3   OH268994   1.962   2.185   4.779 -0.1973 -0.6133  0.0335
15860TIP3    H168995   1.896   2.213   4.843 -0.5992 -0.1477 -0.5828
15860TIP3    H268996   2.015   2.263   4.763 -0.3196 -0.6335 -0.4749
15861TIP3   OH268997   1.566   5.354  14.369  0.1506  0.2261 -0.6660
15861TIP3    H168998   1.530   5.266  14.354  1.4559 -0.0206 -2.5398
15861TIP3    H268999   1.628   5.342  14.441  0.0956 -0.3361 -0.7054
15862TIP3   OH269000   3.958   4.660   1.335  0.1001  0.5613  0.2232
15862TIP3    H169001   3.917   4.686   1.417 -1.2748  0.0993 -0.3061
15862TIP3    H269002   4.036   4.716   1.328  0.9684 -0.3312  2.4804
15863TIP3   OH269003   2.223   3.526   2.560  0.2078 -0.3751 -0.6666
15863TIP3    H169004   2.315   3.550   2.550  0.3318 -0.8691 -0.7259
15863TIP3    H269005   2.188   3.525   2.471 -0.1284  0.8777 -0.5529
15864TIP3   OH269006   2.939   3.981  11.588  0.4802 -0.5790 -0.2156
15864TIP3    H169007   2.877   3.947  11.652 -0.3172  0.8750 -0.1992
15864TIP3    H269008   2.995   3.906  11.567  0.6431 -1.1135  2.0376
15865TIP3   OH269009   5.000   1.664  11.740 -0.4020 -0.1257 -0.3612
15865TIP3    H169010   4.954   1.639  11.660  0.7464  1.0241 -1.3876
15865TIP3    H269011   5.068   1.598  11.751 -1.0181 -0.6982  0.0794
15866TIP3   OH269012   5.574   2.470   0.489  0.5513 -0.2477 -0.1375
15866TIP3    H169013   5.626   2.429   0.420  1.5898 -0.8424  0.9861
15866TIP3    H269014   5.547   2.397   0.545  2.1467  0.5455  1.7119
15867TIP3   OH269015   0.495   1.175   3.466 -0.1212  0.0236  0.3148
15867TIP3    H169016   0.403   1.195   3.450 -0.1957 -0.9958 -0.5568
15867TIP3    H269017   0.523   1.241   3.529 -1.5778  0.0420  0.9531
15868TIP3   OH269018   1.218   6.785  15.839 -0.1380  0.1198 -0.2428
15868TIP3    H169019   1.188   6.725  15.771 -1.1778  1.9054 -1.3956
15868TIP3    H269020   1.307   6.808  15.814  0.8938 -2.1916  1.1104
15869TIP3   OH269021   0.554   1.384   5.969  0.4808 -0.1675 -0.2216
15869TIP3    H169022   0.525   1.475   5.962  0.3409 -0.3456 -2.1191
15869TIP3    H269023   0.568   1.370   6.063 -0.4246  1.5159  0.1680
15870TIP3   OH269024   3.933   0.889   4.746 -0.2425  0.0271 -0.4277
15870TIP3    H169025   3.966   0.948   4.813  0.1441  0.0423 -0.6309
15870TIP3    H269026   3.898   0.814   4.794  0.2622 -0.0780 -0.2268
15871TIP3   OH269027   5.330   6.760  14.613 -0.2005 -0.4323  0.4501
15871TIP3    H169028   5.391   6.831  14.633  0.0384 -0.5370  0.1157
15871TIP3    H269029   5.343   6.744  14.519  2.4327 -3.3876  1.2124
15872TIP3   OH269030   3.269   5.865  14.144  0.7790 -0.2117 -0.6588
15872TIP3    H169031   3.319   5.946  14.136 -1.5446  1.1569 -1.8308
15872TIP3    H269032   3.311   5.805  14.082  2.4226  0.1140  0.1106
15873TIP3   OH269033   3.255   0.941  12.202  0.4521  0.3260  0.5602
15873TIP3    H169034   3.246   0.867  12.143  0.9303  0.6025  0.1394
15873TIP3    H269035   3.239   0.905  12.289 -0.9117  0.0370  0.2038
15874TIP3   OH269036   4.123   0.605   0.841 -0.3435 -0.4536  0.3835
15874TIP3    H169037   4.203   0.659   0.834 -0.8084  0.2059  0.0359
15874TIP3    H269038   4.069   0.635   0.767 -0.3058 -1.9170 -0.2449
15875TIP3   OH269039   4.369   6.200   0.058  0.5511 -0.3765  0.4420
15875TIP3    H169040   4.307   6.191   0.131  1.1735  0.8469  1.1351
15875TIP3    H269041   4.392   6.110   0.035 -0.5217 -0.8047  1.0098
15876TIP3   OH269042   4.653   3.127   5.469 -0.0540  0.3546  0.3625
15876TIP3    H169043   4.640   3.036   5.496  0.2403 -0.4652 -2.1504
15876TIP3    H269044   4.595   3.138   5.394  3.1651  0.8575 -2.1640
15877TIP3   OH269045   3.617   4.521  13.850  0.0245  0.0142 -0.4331
15877TIP3    H169046   3.549   4.571  13.896  2.8033  1.7664  1.9225
15877TIP3    H269047   3.631   4.444  13.906  1.1435  0.5021 -0.0475
15878TIP3   OH269048   0.936   2.001   5.869  0.2734 -0.5939 -0.2607
15878TIP3    H169049   1.027   2.017   5.843  0.1940  0.1539 -0.0989
15878TIP3    H269050   0.942   1.931   5.934  0.8221  0.0863  0.4312
15879TIP3   OH269051   3.081   4.152  11.973 -0.2164  0.4490  0.1486
15879TIP3    H169052   3.104   4.152  12.066  0.7973  1.0524 -0.0956
15879TIP3    H269053   3.165   4.146  11.927 -0.7959 -1.4570 -0.7193
15880TIP3   OH269054   4.046   4.613   2.464 -0.1392  0.5282  0.2238
15880TIP3    H169055   4.119   4.639   2.408 -0.2589  0.3697 -0.0071
15880TIP3    H269056   4.062   4.520   2.483  1.3968  1.2596  2.7384
15881TIP3   OH269057   5.064   1.432   5.705  0.1259  0.5508  0.8788
15881TIP3    H169058   5.032   1.350   5.666  1.0298  0.1729  0.9135
15881TIP3    H269059   5.022   1.435   5.791 -0.8579  0.7351  0.3998
15882TIP3   OH269060   0.616   3.329   1.882 -0.2539  0.0172  0.3860
15882TIP3    H169061   0.541   3.328   1.942 -1.3253  0.3644 -0.9432
15882TIP3    H269062   0.685   3.284   1.931 -0.6218  1.6696  2.4969
15883TIP3   OH269063   2.160   3.824   5.373 -0.4479  0.3498  0.8195
15883TIP3    H169064   2.143   3.857   5.285 -1.0495  0.7924  1.0956
15883TIP3    H269065   2.117   3.738   5.374  1.2724 -0.5539  0.0451
15884TIP3   OH269066   0.625   5.859  15.349 -0.0935 -0.1713  0.1291
15884TIP3    H169067   0.677   5.796  15.298 -0.0027 -0.2308  0.2934
15884TIP3    H269068   0.686   5.931  15.366 -0.7056  0.7889 -1.5839
15885TIP3   OH269069   2.848   6.328  13.140  0.0444  0.5317  0.7345
15885TIP3    H169070   2.943   6.331  13.149 -0.0089  3.2679  0.9170
15885TIP3    H269071   2.818   6.412  13.175 -2.3378  0.2482 -0.4950
15886TIP3   OH269072   3.124   2.329   0.749 -0.1712 -0.9877  0.0397
15886TIP3    H169073   3.170   2.289   0.675 -1.3795 -0.7930 -0.8313
15886TIP3    H269074   3.090   2.412   0.714 -0.5982 -0.8105  0.8582
15887TIP3   OH269075   1.931   0.899  11.989  0.2291  0.1295  1.0024
15887TIP3    H169076   1.964   0.973  12.039  1.5308 -0.2795  0.7796
15887TIP3    H269077   1.997   0.886  11.920 -1.0551  0.0958 -0.2355
15888TIP3   OH269078   2.450   3.436  15.624  0.1160 -0.0620  0.4999
15888TIP3    H169079   2.412   3.457  15.539  1.9428 -2.6976 -1.0281
15888TIP3    H269080   2.504   3.511  15.646  1.0060 -0.0944 -1.4977
15889TIP3   OH269081   1.456   1.229   4.132  0.0386 -0.0664  0.9173
15889TIP3    H169082   1.545   1.245   4.165 -0.1646  3.6696 -0.1136
15889TIP3    H269083   1.469   1.179   4.052  1.3835  1.8712 -0.1219
15890TIP3   OH269084   3.440   2.034   5.190  0.1473  0.4733 -0.2474
15890TIP3    H169085   3.444   2.098   5.118 -1.2143 -0.8526 -1.5345
15890TIP3    H269086   3.427   1.950   5.146 -2.4209 -0.1658  1.6126
15891TIP3   OH269087   2.611   5.939   5.263  0.1756  0.5216 -0.2026
15891TIP3    H169088   2.602   5.920   5.170 -0.4262 -2.0205  0.3430
15891TIP3    H269089   2.533   5.902   5.303  1.0183  0.4771  1.4667
15892TIP3   OH269090   1.296   3.773   3.807  0.2262 -0.3729 -0.1895
15892TIP3    H169091   1.231   3.788   3.875 -0.0647  1.7327 -0.8858
15892TIP3    H269092   1.247   3.737   3.734  0.1219 -0.3329 -0.1387
15893TIP3   OH269093   2.066   0.915  12.781  0.2963 -0.2616  0.1839
15893TIP3    H169094   2.064   0.999  12.828  1.2553 -0.5366  0.7269
15893TIP3    H269095   2.048   0.938  12.690 -1.9076  0.2451  0.7220
15894TIP3   OH269096   1.556   5.399   2.786  0.2746  0.2066  0.4320
15894TIP3    H169097   1.617   5.428   2.717 -1.4080 -0.1439 -1.2432
15894TIP3    H269098   1.534   5.479   2.833 -0.1353  0.8150 -0.7521
15895TIP3   OH269099   1.346   0.379  11.510  0.2945  0.1850  0.1826
15895TIP3    H169100   1.306   0.452  11.558 -1.1891 -0.7280  0.3567
15895TIP3    H269101   1.395   0.330  11.576 -0.2851 -0.0562  0.4415
15896TIP3   OH269102   6.083   4.063   6.462  0.1558 -0.3402  0.2210
15896TIP3    H169103   6.081   4.102   6.374  0.3870  2.0908  1.2365
15896TIP3    H269104   6.001   4.016   6.470 -0.1664 -0.0143 -1.0704
15897TIP3   OH269105   4.283   5.401   4.222 -0.1921 -0.1671 -0.3368
15897TIP3    H169106   4.203   5.450   4.201 -0.4022 -1.4652 -2.9035
15897TIP3    H269107   4.289   5.336   4.152  1.6180 -1.9211  1.3765
15898TIP3   OH269108   2.601   2.638   3.346 -0.3243  0.1279 -0.7017
15898TIP3    H169109   2.556   2.553   3.348 -0.3014  0.0286 -2.8436
15898TIP3    H269110   2.653   2.640   3.426 -1.7378 -1.0947  0.2823
15899TIP3   OH269111   5.002   6.176   5.660  0.3449 -0.3115  0.5766
15899TIP3    H169112   4.996   6.081   5.656  1.5238 -0.3696  0.0380
15899TIP3    H269113   5.095   6.194   5.677 -0.2852  0.6691  3.2528
15900TIP3   OH269114   6.529   1.213   1.549  0.3857  0.3809  0.4762
15900TIP3    H169115   6.585   1.174   1.482 -0.4418 -1.2717  0.7294
15900TIP3    H269116   6.577   1.200   1.631  0.2546  0.1763  0.5205
15901TIP3   OH269117   0.423   5.324  17.149 -0.0502 -0.1239 -0.3638
15901TIP3    H169118   0.440   5.333  17.055  0.2511 -1.2010 -0.4242
15901TIP3    H269119   0.491   5.377  17.190 -0.2788  0.4805 -0.7525
15902TIP3   OH269120   2.598   0.523   6.007 -0.2458  0.3950 -0.2950
15902TIP3    H169121   2.520   0.564   6.045  0.6267 -1.0734  3.3040
15902TIP3    H269122   2.653   0.503   6.082  2.5111 -0.8823 -2.5705
15903TIP3   OH269123   5.271   2.712   5.657  0.2743  0.3196 -0.2917
15903TIP3    H169124   5.250   2.684   5.746  1.5388  1.2818  0.3328
15903TIP3    H269125   5.363   2.739   5.662  0.6668 -0.5983 -2.1420
15904TIP3   OH269126   2.309   3.831   6.351  0.0374  0.2634 -0.1290
15904TIP3    H169127   2.397   3.808   6.320 -0.0298 -0.1054 -0.0521
15904TIP3    H269128   2.296   3.921   6.322 -0.3333 -0.3234 -1.8804
15905TIP3   OH269129   5.141   2.950   2.621  0.0235 -0.3344 -0.0596
15905TIP3    H169130   5.207   2.887   2.591 -0.0300 -0.1758 -0.5184
15905TIP3    H269131   5.104   2.986   2.540 -0.7422 -0.5387  0.1992
15906TIP3   OH269132   2.928   6.619  11.393 -0.4993  0.0840 -0.7372
15906TIP3    H169133   3.005   6.572  11.425  0.2188  1.1867 -0.8203
15906TIP3    H269134   2.868   6.620  11.467  0.6528  1.5333  0.2094
15907TIP3   OH269135   3.513   6.755  13.617 -0.0871 -0.0879 -0.8097
15907TIP3    H169136   3.449   6.782  13.682 -0.0440  1.8521 -1.5266
15907TIP3    H269137   3.483   6.670  13.586 -0.0780 -1.0564  1.7573
15908TIP3   OH269138   0.090   1.724   5.413 -0.4740 -0.9387  0.0863
15908TIP3    H169139   0.086   1.786   5.485  1.1998 -0.7932  0.0689
15908TIP3    H269140   0.018   1.663   5.429 -1.3854  0.2812  0.7517
15909TIP3   OH269141   1.526   0.198  13.359  0.0667 -0.6242 -0.1490
15909TIP3    H169142   1.607   0.147  13.365 -0.0038 -0.7243 -0.0427
15909TIP3    H269143   1.469   0.144  13.303 -0.0216 -0.6793 -0.0047
15910TIP3   OH269144   3.426   4.596   0.699  0.1030 -0.4722  0.3097
15910TIP3    H169145   3.466   4.541   0.631 -0.6468 -0.4732 -0.1355
15910TIP3    H269146   3.463   4.563   0.781  2.1944  0.5215 -0.2024
15911TIP3   OH269147   1.063   1.358  16.284  0.2041 -0.2706 -0.0046
15911TIP3    H169148   1.082   1.283  16.227 -0.4054 -0.2652 -0.2171
15911TIP3    H269149   1.139   1.363  16.342  0.9392 -0.1440 -0.9517
15912TIP3   OH269150   1.995   4.147   1.247 -0.4512  0.2226 -0.7220
15912TIP3    H169151   2.069   4.088   1.232 -0.4442  0.6240 -2.3322
15912TIP3    H269152   1.969   4.130   1.337  0.6681 -0.9887 -0.6142
15913TIP3   OH269153   5.159   3.044  11.919 -0.3705  0.7071  0.1227
15913TIP3    H169154   5.150   2.949  11.917  0.2190  0.6717 -0.9022
15913TIP3    H269155   5.197   3.062  12.005 -0.7693  0.0413  0.4406
15914TIP3   OH269156   2.794   3.279   3.813  0.2440  0.2093 -0.3290
15914TIP3    H169157   2.862   3.301   3.750  0.4833 -2.6225 -1.1440
15914TIP3    H269158   2.841   3.233   3.884 -0.2664  1.8110  1.0721
15915TIP3   OH269159   1.227   5.230   4.127  0.4608  0.1393 -0.1283
15915TIP3    H169160   1.257   5.320   4.140  0.4631  0.2275 -0.7238
15915TIP3    H269161   1.266   5.204   4.043 -0.4606 -0.0278 -0.5046
15916TIP3   OH269162   0.918   2.833  14.231  0.4583  0.1645 -0.4715
15916TIP3    H169163   0.945   2.917  14.269 -0.1758  0.7389 -1.2818
15916TIP3    H269164   0.845   2.855  14.174  1.0168 -0.7795 -1.5680
15917TIP3   OH269165   3.160   4.221   4.664 -0.5292 -0.6521  0.0569
15917TIP3    H169166   3.211   4.241   4.586 -2.5603  2.2108 -0.5984
15917TIP3    H269167   3.074   4.196   4.632 -1.7380  1.6465  1.3203
15918TIP3   OH269168   2.217   1.020   5.853 -0.3005 -0.1001  0.1782
15918TIP3    H169169   2.138   0.978   5.887  0.7943 -0.4917  2.3656
15918TIP3    H269170   2.268   0.949   5.814 -1.8106  0.4382 -2.8760
15919TIP3   OH269171   0.360   2.948  13.187 -0.9614  0.2342  0.1904
15919TIP3    H169172   0.453   2.930  13.177 -0.5125  0.9842  2.6873
15919TIP3    H269173   0.350   3.040  13.162 -0.7324  0.6531  1.6566
15920TIP3   OH269174   5.486   1.101  12.016 -0.2172  0.8272  0.0626
15920TIP3    H169175   5.486   1.134  12.105  2.1331 -0.3103  0.5267
15920TIP3    H269176   5.434   1.020  12.021 -0.4803  1.0082  0.2850
15921TIP3   OH269177   3.360   2.395  16.089  0.2284  0.6660 -0.1758
15921TIP3    H169178   3.397   2.307  16.092 -0.2682  0.3854 -1.7236
15921TIP3    H269179   3.336   2.414  16.180  0.6227 -0.6761  0.2213
15922TIP3   OH269180   0.291   5.470   2.597  0.1145  0.1802  0.5969
15922TIP3    H169181   0.233   5.405   2.637 -1.4123  1.3598  0.3387
15922TIP3    H269182   0.248   5.494   2.516  0.6568  1.5435  0.7028
15923TIP3   OH269183   3.414   1.920  14.013 -0.3800  0.0116  0.0518
15923TIP3    H169184   3.342   1.960  14.062  0.2353  0.0231  0.9701
15923TIP3    H269185   3.489   1.977  14.032 -0.6965  1.5620 -3.0719
15924TIP3   OH269186   3.917   2.784  15.944  0.3003  0.4041  0.0993
15924TIP3    H169187   4.000   2.828  15.961 -0.9770  2.5285  0.9767
15924TIP3    H269188   3.919   2.767  15.850  2.1109 -0.3942  0.2494
15925TIP3   OH269189   3.210   4.736   1.123  0.5683 -0.5027 -0.0017
15925TIP3    H169190   3.172   4.750   1.037 -0.3436  0.6970  0.5790
15925TIP3    H269191   3.224   4.824   1.158  2.4151 -0.9483  0.4367
15926TIP3   OH269192   5.583   1.440  14.964  0.0553  0.1706 -0.0885
15926TIP3    H169193   5.532   1.495  15.023 -0.0668 -1.6465  1.5516
15926TIP3    H269194   5.525   1.424  14.889 -0.9582 -0.0750  0.7436
15927TIP3   OH269195   3.685   3.172   0.945 -0.0206 -0.1150 -0.4558
15927TIP3    H169196   3.603   3.175   0.896  0.5416 -1.1066 -1.4852
15927TIP3    H269197   3.663   3.208   1.031 -1.5077 -0.2718 -0.7533
15928TIP3   OH269198   5.262   3.417   0.416 -0.4889 -0.9666  0.3976
15928TIP3    H169199   5.345   3.390   0.454  0.3734  0.2380 -0.5573
15928TIP3    H269200   5.236   3.494   0.467 -0.8996 -1.1981  0.5398
15929TIP3   OH269201   2.769   1.101  14.152  0.1130 -0.6358 -1.0535
15929TIP3    H169202   2.770   1.160  14.076  0.0520 -0.6523 -1.0658
15929TIP3    H269203   2.786   1.159  14.227  0.6531 -0.6897 -1.1314
15930TIP3   OH269204   3.552   0.019   5.950 -0.4526 -0.1340 -0.2384
15930TIP3    H169205   3.566   0.063   6.034 -2.1371  1.3663 -0.7137
15930TIP3    H269206   3.502  -0.059   5.972  1.0683 -0.9727  0.3960
15931TIP3   OH269207   3.709   6.682  16.953  0.4729  0.2066 -0.7399
15931TIP3    H169208   3.642   6.747  16.972  0.0021 -0.3727 -0.3761
15931TIP3    H269209   3.697   6.615  17.021  0.9155 -0.2784 -1.1305
15932TIP3   OH269210   2.332   6.681   0.393  0.3404 -0.1612 -0.4869
15932TIP3    H169211   2.298   6.727   0.316 -1.0601 -0.2360  0.0776
15932TIP3    H269212   2.332   6.589   0.368  0.1182 -0.1607 -0.4888
15933TIP3   OH269213   1.161   4.956   3.586  0.3549 -0.1426 -0.1263
15933TIP3    H169214   1.080   4.979   3.540  0.3128  0.1928  0.1114
15933TIP3    H269215   1.154   5.000   3.670  0.6813 -0.3055 -0.0124
15934TIP3   OH269216   3.351   4.114  11.857 -0.2082  0.2621 -0.0689
15934TIP3    H169217   3.418   4.175  11.887 -1.3940  1.2820  0.5440
15934TIP3    H269218   3.376   4.030  11.895  1.3225  0.4005 -0.7486
15935TIP3   OH269219   4.032   4.941  12.620  0.2719  0.1497  0.4718
15935TIP3    H169220   3.971   4.930  12.547  1.1996  0.0122 -0.2854
15935TIP3    H269221   4.047   5.036  12.624 -0.4131  0.2398  1.0123
15936TIP3   OH269222   6.162   3.838  10.969 -0.1559 -0.3119  0.0785
15936TIP3    H169223   6.135   3.926  10.996  2.1484  0.6809 -0.7702
15936TIP3    H269224   6.204   3.851  10.884 -1.2591 -2.4822 -0.8522
15937TIP3   OH269225   3.145   5.557   2.547 -0.4299  0.5818 -0.3213
15937TIP3    H169226   3.150   5.479   2.603  0.6153 -0.1329 -1.3804
15937TIP3    H269227   3.060   5.549   2.502 -0.2106 -0.0783 -0.6188
15938TIP3   OH269228   1.055   2.282  15.843  0.2334  0.8303 -0.5111
15938TIP3    H169229   0.990   2.311  15.779  0.7072  2.0178 -0.4703
15938TIP3    H269230   1.009   2.217  15.895 -0.7069  1.1372 -0.9370
15939TIP3   OH269231   4.935   6.195   1.542 -0.6296 -0.1827 -0.0447
15939TIP3    H169232   4.999   6.124   1.548 -0.6812 -0.2585 -0.3433
15939TIP3    H269233   4.886   6.176   1.462 -0.7209  0.1259 -0.0634
15940TIP3   OH269234   0.187   3.004  16.202  0.2160  0.2896  0.3543
15940TIP3    H169235   0.160   3.081  16.253 -0.0983  0.9296 -0.7551
15940TIP3    H269236   0.112   2.945  16.206 -0.9071  1.5403 -1.6969
15941TIP3   OH269237   4.186   6.383   2.411  0.1139 -0.0603 -0.3427
15941TIP3    H169238   4.116   6.319   2.424 -0.1605  0.7097  2.1786
15941TIP3    H269239   4.266   6.337   2.434 -0.0152  0.2766  0.8206
15942TIP3   OH269240   0.319   0.338   3.406  0.1648  0.0777 -0.6371
15942TIP3    H169241   0.414   0.353   3.403  0.0484  0.9938  0.1883
15942TIP3    H269242   0.283   0.398   3.340 -0.0626  1.5710  0.8270
15943TIP3   OH269243   1.608   2.787   0.565  0.3102 -0.4297  0.4602
15943TIP3    H169244   1.640   2.872   0.597  1.5821 -0.3321 -1.0374
15943TIP3    H269245   1.686   2.743   0.532 -0.7474 -1.1479 -1.1158
15944TIP3   OH269246   5.580   2.348  12.149 -0.1617 -0.2635 -0.2817
15944TIP3    H169247   5.621   2.392  12.075 -0.9068 -0.3285 -0.7355
15944TIP3    H269248   5.520   2.413  12.185  0.7379  0.0250  0.7242
15945TIP3   OH269249   1.041   5.472  12.299  0.4130 -0.1076  0.2617
15945TIP3    H169250   1.109   5.516  12.248  0.1817  1.0840  0.9524
15945TIP3    H269251   1.000   5.412  12.237  1.5715 -0.2622 -0.3715
15946TIP3   OH269252   3.052   0.158  14.693  0.4008 -0.1591 -0.7837
15946TIP3    H169253   3.107   0.211  14.751 -0.6085 -1.3145  1.2944
15946TIP3    H269254   3.028   0.082  14.747 -2.0245 -0.3831 -2.1439
15947TIP3   OH269255   0.323   4.394  16.607  0.1877 -0.0374  0.3216
15947TIP3    H169256   0.379   4.329  16.565  0.0333  0.0851 -0.0765
15947TIP3    H269257   0.358   4.478  16.579  0.1426  0.0458  0.5130
15948TIP3   OH269258   3.016   1.599   1.367 -0.0968  0.4342 -0.2463
15948TIP3    H169259   3.109   1.614   1.353  0.6529 -0.8204  2.9503
15948TIP3    H269260   2.973   1.646   1.295  2.8901  2.3623 -0.8711
15949TIP3   OH269261   1.705   3.546  14.129  0.1466 -0.0911  0.1475
15949TIP3    H169262   1.613   3.573  14.120  0.2285 -0.7207 -2.9511
15949TIP3    H269263   1.701   3.467  14.183 -1.1206 -0.0351  0.1597
15950TIP3   OH269264   4.523   4.207   3.905  0.2759 -0.0551 -0.4237
15950TIP3    H169265   4.433   4.177   3.891  0.0396  0.3735  0.1514
15950TIP3    H269266   4.513   4.295   3.940  0.9187 -0.0725 -0.1957
15951TIP3   OH269267   3.846   6.264  14.332 -0.0293  0.1414  0.1467
15951TIP3    H169268   3.916   6.209  14.296  0.0815 -0.8590  1.8269
15951TIP3    H269269   3.803   6.301  14.255 -0.7053 -3.0543 -1.1098
15952TIP3   OH269270   4.068   2.980   5.649  0.8927  0.3844  0.2092
15952TIP3    H169271   4.143   2.929   5.678  2.2685  1.3843 -1.4667
15952TIP3    H269272   4.073   2.976   5.553 -1.4255  0.1420  0.0714
15953TIP3   OH269273   4.074   5.789  16.660  0.4879  0.2130  0.2394
15953TIP3    H169274   4.024   5.747  16.730 -0.2431  0.2683 -0.2413
15953TIP3    H269275   4.164   5.787  16.690  0.3926 -1.2640  0.4438
15954TIP3   OH269276   3.686   6.053  14.544  0.0969  0.4730  0.2984
15954TIP3    H169277   3.649   6.086  14.625  0.0798 -1.3944  1.0728
15954TIP3    H269278   3.660   6.117  14.478 -1.1854  1.2163  1.5012
15955TIP3   OH269279   2.808   2.062   4.177  0.5638  0.8184  0.5085
15955TIP3    H169280   2.865   2.135   4.203 -1.2436  2.1764  0.7698
15955TIP3    H269281   2.779   2.024   4.260  1.0290  0.1882  0.3794
15956TIP3   OH269282   3.233   4.098   2.292 -0.6878 -0.0514  0.3680
15956TIP3    H169283   3.229   4.052   2.376 -2.1460 -0.4847  0.0836
15956TIP3    H269284   3.148   4.142   2.285  0.5206  2.3956  0.4400
15957TIP3   OH269285   1.392   4.598   6.095 -0.3691 -0.0475  0.0593
15957TIP3    H169286   1.345   4.629   6.173  0.0763 -1.5795  0.9736
15957TIP3    H269287   1.461   4.663   6.081 -0.2470  0.0716  1.1573
15958TIP3   OH269288   0.428   6.245  14.246 -0.4217 -0.0252  0.2893
15958TIP3    H169289   0.419   6.154  14.217  0.9369 -0.4857  1.2600
15958TIP3    H269290   0.500   6.280  14.194 -0.9100  0.4784 -0.0486
15959TIP3   OH269291   5.371   4.348  17.150  0.2305 -0.0793  0.4402
15959TIP3    H169292   5.329   4.372  17.068  0.4987  0.2809  0.4055
15959TIP3    H269293   5.425   4.272  17.129  0.3717  0.0701  0.2613
15960TIP3   OH269294   4.988   1.566   2.743 -0.2654  0.1361 -0.0541
15960TIP3    H169295   5.024   1.646   2.704 -0.0078 -0.5701 -1.2888
15960TIP3    H269296   5.025   1.564   2.832 -0.3394  1.4234  0.0179
15961TIP3   OH269297   0.779   3.708  12.344  1.0095  0.2820  0.0675
15961TIP3    H169298   0.798   3.761  12.266  0.2272 -0.2777 -0.5257
15961TIP3    H269299   0.694   3.741  12.374  1.0341  0.0991  0.3334
15962TIP3   OH269300   0.130   5.424  15.443  0.1099 -0.0876 -0.8815
15962TIP3    H169301   0.221   5.393  15.445 -0.0550 -0.5419  0.7475
15962TIP3    H269302   0.135   5.511  15.404  1.5613  0.7846  1.1493
15963TIP3   OH269303   0.693   3.586   6.183 -0.0514  0.4800  0.5507
15963TIP3    H169304   0.745   3.505   6.185  0.6328  0.9001  0.0936
15963TIP3    H269305   0.672   3.603   6.275 -0.1672 -0.1958  0.6557
15964TIP3   OH269306   1.424   1.444   1.437 -0.1584 -0.1527 -0.7327
15964TIP3    H169307   1.516   1.455   1.411  0.9790 -1.3613  2.5698
15964TIP3    H269308   1.406   1.351   1.423 -0.0875 -0.4324  0.9331
15965TIP3   OH269309   0.990   2.643   6.219 -0.5409 -0.2217  0.4055
15965TIP3    H169310   0.979   2.601   6.134 -0.8084  2.9504 -1.1971
15965TIP3    H269311   1.082   2.627   6.242 -0.4638 -1.0634 -0.4708
15966TIP3   OH269312   0.838   0.731   5.621  0.2056  0.0916  0.1972
15966TIP3    H169313   0.895   0.724   5.698 -0.7618 -1.4295  0.7945
15966TIP3    H269314   0.830   0.825   5.606  0.7074  0.3943  1.7427
15967TIP3   OH269315   2.265   0.591   4.389 -0.1719  0.3794 -0.0556
15967TIP3    H169316   2.208   0.640   4.449 -0.4659 -1.8524  1.5925
15967TIP3    H269317   2.211   0.576   4.312 -1.3538 -0.4694  0.9078
15968TIP3   OH269318   4.933   3.728  11.234 -0.2573  0.3065 -0.0709
15968TIP3    H169319   4.892   3.771  11.159  0.7767  1.5036  0.0239
15968TIP3    H269320   4.935   3.796  11.302  1.1674  0.0283  0.1739
15969TIP3   OH269321   6.724   5.758  16.995 -0.6784  0.1115  0.4072
15969TIP3    H169322   6.764   5.758  17.082  0.4066 -0.2214 -0.0730
15969TIP3    H269323   6.698   5.849  16.981 -1.5576  0.0149  1.3863
15970TIP3   OH269324   2.890   6.022   2.046 -0.2936 -0.1536  0.1474
15970TIP3    H169325   2.870   5.990   2.134  3.2764 -0.8752  0.7850
15970TIP3    H269326   2.968   6.077   2.057 -0.0313  0.0866 -2.4972
15971TIP3   OH269327   3.804   5.162   0.990 -0.0470 -0.3374  0.3089
15971TIP3    H169328   3.753   5.157   0.909 -0.6869 -0.0048  0.6892
15971TIP3    H269329   3.739   5.173   1.059  0.6835  3.3132  0.5080
15972TIP3   OH269330   2.000   3.501  12.975  0.4250 -0.1610  0.6745
15972TIP3    H169331   2.053   3.581  12.985 -0.5533  0.6975 -0.8064
15972TIP3    H269332   1.939   3.503  13.048  0.5458  0.3509  0.7659
15973TIP3   OH269333   0.990   3.377   6.474 -0.8836 -0.2588  0.3844
15973TIP3    H169334   1.057   3.408   6.414  0.6733 -1.4232  1.4882
15973TIP3    H269335   0.908   3.410   6.437  0.2021  0.5123 -1.4090
15974TIP3   OH269336   6.322   6.446   0.005 -0.3186  0.5947 -0.2626
15974TIP3    H169337   6.378   6.494  -0.056 -1.5659  1.3326 -0.8470
15974TIP3    H269338   6.354   6.472   0.092  1.0157  0.0692 -0.5919
15975TIP3   OH269339   5.309   5.372  12.684  0.6276 -0.5381  0.2780
15975TIP3    H169340   5.370   5.313  12.728  0.8311  0.9007  1.9676
15975TIP3    H269341   5.239   5.386  12.748 -0.3371 -0.3780 -0.7896
15976TIP3   OH269342   6.183   5.456  13.210 -0.3493  0.1110 -0.6180
15976TIP3    H169343   6.233   5.387  13.252 -1.6472 -0.3672  0.1937
15976TIP3    H269344   6.095   5.447  13.246 -0.3948  2.5980 -0.0089
15977TIP3   OH269345   0.168   1.357   2.211 -0.2581 -0.0520  0.2810
15977TIP3    H169346   0.206   1.391   2.292  0.4225 -0.5757  0.1879
15977TIP3    H269347   0.226   1.390   2.142  0.2245 -1.0967  0.1620
15978TIP3   OH269348   1.446   2.128  11.640 -0.3974  0.4749  0.0090
15978TIP3    H169349   1.508   2.064  11.604 -1.1540 -0.6695  0.7154
15978TIP3    H269350   1.428   2.187  11.567  2.5404  1.6403  0.1405
15979TIP3   OH269351   5.572   0.745   1.567  0.1673  0.2752 -0.1017
15979TIP3    H169352   5.506   0.686   1.602  1.5043 -1.2488 -0.0940
15979TIP3    H269353   5.595   0.802   1.641  0.1707 -0.3712  0.3988
15980TIP3   OH269354   2.782   0.005  10.584 -0.7576  0.1317  0.2927
15980TIP3    H169355   2.805  -0.074  10.633 -0.3592  0.0844  0.0273
15980TIP3    H269356   2.688   0.014  10.598 -0.9996 -0.9696 -0.5028
15981TIP3   OH269357   2.709   0.483  14.598  0.0505 -0.1109  0.2804
15981TIP3    H169358   2.783   0.470  14.539  0.8170 -0.8879  1.4044
15981TIP3    H269359   2.658   0.402  14.591  0.4030 -0.3995  1.0521
15982TIP3   OH269360   2.545   4.378  14.169 -0.3779  0.2106  0.4883
15982TIP3    H169361   2.546   4.459  14.220  0.6117  0.8861 -0.5840
15982TIP3    H269362   2.464   4.334  14.197 -0.7480  1.3806  1.3456
15983TIP3   OH269363   3.092   0.876   0.437  0.1427  0.2266 -0.4401
15983TIP3    H169364   3.095   0.956   0.490  0.3755 -0.1311  0.1012
15983TIP3    H269365   3.034   0.897   0.364 -0.2679  0.7028  0.0174
15984TIP3   OH269366   2.939   3.332  12.866  0.9821 -0.5983 -0.6394
15984TIP3    H169367   2.889   3.324  12.785 -1.3591  1.3943  0.5424
15984TIP3    H269368   2.895   3.401  12.915  1.5774 -2.6026  2.9028
15985TIP3   OH269369   3.988   5.474   3.340  0.1746 -0.1766 -0.2276
15985TIP3    H169370   3.973   5.393   3.293 -0.2511 -0.2655  0.0653
15985TIP3    H269371   4.075   5.464   3.380 -0.3118 -0.9006  0.6624
15986TIP3   OH269372   4.911   5.788  13.943 -0.1170 -0.6182 -0.1120
15986TIP3    H169373   4.984   5.823  13.994 -0.2561 -0.5263  0.0224
15986TIP3    H269374   4.925   5.823  13.855 -2.2672  2.8412  0.8045
15987TIP3   OH269375   3.507   3.643   6.721  0.1843 -0.5624 -0.0589
15987TIP3    H169376   3.580   3.705   6.722  0.0914 -0.4609  0.2830
15987TIP3    H269377   3.443   3.681   6.660 -0.2438  0.0983  0.7979
15988TIP3   OH269378   2.220   5.227  11.229  0.0546  0.0233  0.0407
15988TIP3    H169379   2.150   5.168  11.200  1.3504 -0.9415 -1.2048
15988TIP3    H269380   2.266   5.250  11.149  0.2663  1.8400  0.6789
15989TIP3   OH269381   2.147   0.490   5.915 -0.0246  0.2120  0.0747
15989TIP3    H169382   2.160   0.538   5.997  1.2601  0.1420 -0.0819
15989TIP3    H269383   2.235   0.471   5.884 -0.5052 -2.1776  0.0758
15990TIP3   OH269384   3.976   5.751  14.887  0.5304 -0.0363 -0.8623
15990TIP3    H169385   3.950   5.810  14.816 -1.1252 -0.0523 -0.2993
15990TIP3    H269386   3.899   5.695  14.901  0.9841 -0.3059  0.6627
15991TIP3   OH269387   1.316   3.222  10.567 -0.2205  0.0811 -0.4320
15991TIP3    H169388   1.386   3.157  10.563 -1.1884 -0.9195 -1.5048
15991TIP3    H269389   1.360   3.307  10.559  1.2783 -0.2815  3.0812
15992TIP3   OH269390   0.824   5.563   4.153  0.4195 -0.1654  0.3551
15992TIP3    H169391   0.913   5.583   4.182  0.3206  1.0383 -0.1653
15992TIP3    H269392   0.806   5.627   4.084 -1.0251 -0.0925  0.7862
15993TIP3   OH269393   5.885   4.418  16.033 -0.5364 -0.4019 -0.1654
15993TIP3    H169394   5.911   4.335  16.074  0.9636 -0.3692 -1.0368
15993TIP3    H269395   5.906   4.407  15.941 -0.8220  0.7639 -0.3754
15994TIP3   OH269396   3.485   6.134   2.351 -0.0786  0.4527 -0.3804
15994TIP3    H169397   3.495   6.043   2.322 -0.5865  0.7491 -1.5025
15994TIP3    H269398   3.404   6.164   2.311 -0.7543  0.9173  1.2850
15995TIP3   OH269399   3.786   5.930  16.679 -0.0010 -0.3304  0.1690
15995TIP3    H169400   3.835   6.009  16.655  0.3421 -0.9457 -1.1907
15995TIP3    H269401   3.840   5.887  16.745  0.3008  0.0367  0.1616
15996TIP3   OH269402   3.941   3.593   3.938 -0.3221  0.8571 -0.7566
15996TIP3    H169403   3.848   3.591   3.963 -0.1080  0.0517  0.0270
15996TIP3    H269404   3.952   3.517   3.880  0.4151 -0.6630  1.3137
15997TIP3   OH269405   3.548   0.733  16.497  0.0586 -0.0853 -0.0989
15997TIP3    H169406   3.625   0.781  16.528  0.5682 -1.2334  0.4213
15997TIP3    H269407   3.476   0.795  16.509  1.1256  1.6836 -2.3004
15998TIP3   OH269408   4.166   6.579  11.191 -0.1550 -0.4435 -0.2886
15998TIP3    H169409   4.108   6.650  11.164  1.6324  0.6571 -1.2654
15998TIP3    H269410   4.209   6.612  11.270  1.2968 -0.0878 -1.2144
15999TIP3   OH269411   5.333   4.868  14.102  0.2851  0.3780 -0.0299
15999TIP3    H169412   5.256   4.815  14.082  1.1848 -1.0281  0.1538
15999TIP3    H269413   5.316   4.952  14.061 -0.4432 -0.5887 -1.7466
16000TIP3   OH269414   4.224   4.655  13.467  0.5005  0.0012 -0.8936
16000TIP3    H169415   4.226   4.570  13.423 -1.6470 -0.1475 -0.7495
16000TIP3    H269416   4.177   4.712  13.407 -1.4018  0.1021  0.6450
16001TIP3   OH269417   3.020   4.886  11.363 -0.1166 -0.0782  0.2625
16001TIP3    H169418   3.001   4.796  11.387 -0.7809  0.3250  1.2692
16001TIP3    H269419   3.050   4.881  11.272  2.2242 -1.6004  1.0763
16002TIP3   OH269420   0.121   0.319  11.385  0.0116  0.3342 -0.4689
16002TIP3    H169421   0.119   0.379  11.459 -0.2255  0.9744 -0.9873
16002TIP3    H269422   0.057   0.355  11.324  1.3280  0.6928 -1.6603
16003TIP3   OH269423   3.816   6.370  10.519  0.1212 -0.2751 -0.4782
16003TIP3    H169424   3.896   6.331  10.483 -0.9460 -1.0320 -2.0863
16003TIP3    H269425   3.836   6.464  10.525  1.9153 -0.7395  1.3019
16004TIP3   OH269426   6.742   4.861   6.011 -0.4292  0.3344 -0.0889
16004TIP3    H169427   6.771   4.822   6.094  0.5981  0.2299 -0.4816
16004TIP3    H269428   6.766   4.953   6.019 -1.4627  0.5774  0.2245
16005TIP3   OH269429   5.265   5.278   2.266  0.0446 -0.7329  0.5083
16005TIP3    H169430   5.341   5.254   2.212 -0.4134  1.5521 -1.2818
16005TIP3    H269431   5.203   5.206   2.255  0.4100 -0.8038 -1.2150
16006TIP3   OH269432   0.927   1.372  15.802  0.2551  0.3991  0.3118
16006TIP3    H169433   0.854   1.380  15.740  0.5441  0.3064 -0.0437
16006TIP3    H269434   0.910   1.438  15.869 -0.3567  0.1213  0.4345
16007TIP3   OH269435   6.232   4.230  15.936 -0.0187  0.4761  0.2667
16007TIP3    H169436   6.147   4.235  15.894  0.7198 -3.6649 -2.0617
16007TIP3    H269437   6.295   4.253  15.868  0.9152 -1.2631  0.4869
16008TIP3   OH269438   3.380   2.590   5.173  0.2731 -0.2792 -0.5767
16008TIP3    H169439   3.374   2.615   5.080  0.5086 -1.2239 -0.8448
16008TIP3    H269440   3.291   2.604   5.206  0.0427 -0.5102 -1.0862
16009TIP3   OH269441   6.275   4.900   5.386 -0.2473 -0.8708  0.1051
16009TIP3    H169442   6.345   4.963   5.368  0.2563 -1.7195 -0.9629
16009TIP3    H269443   6.210   4.917   5.318  0.0257 -1.7003 -0.3628
16010TIP3   OH269444   6.364   0.432   0.508 -0.6816  0.3894 -0.0736
16010TIP3    H169445   6.271   0.455   0.503 -0.5055  1.5371  1.4991
16010TIP3    H269446   6.370   0.374   0.584 -0.1180  0.2339 -0.2381
16011TIP3   OH269447   4.750   1.122   5.660  0.0112 -0.1682  0.1523
16011TIP3    H169448   4.780   1.037   5.693 -1.1470 -0.8398 -0.4922
16011TIP3    H269449   4.713   1.166   5.737  0.7549 -0.1832  0.5197
16012TIP3   OH269450   3.999   2.917  15.411 -0.4138 -0.1460  0.4408
16012TIP3    H169451   3.960   2.905  15.324  0.4624  0.4610 -0.0410
16012TIP3    H269452   4.059   2.991  15.401 -0.2896 -0.0868  1.5586
16013TIP3   OH269453   4.371   5.581  15.877  0.5333 -0.1718  0.3881
16013TIP3    H169454   4.434   5.526  15.829  2.4333  0.9656  1.5078
16013TIP3    H269455   4.373   5.547  15.966 -0.1942  0.1219  0.5179
16014TIP3   OH269456   6.353   3.274   2.423  0.4272 -0.1410  0.4585
16014TIP3    H169457   6.278   3.283   2.483 -0.7210  1.6210 -1.1759
16014TIP3    H269458   6.348   3.352   2.368  2.8387 -0.5736 -0.4099
16015TIP3   OH269459   3.963   3.067  12.809 -0.5380 -0.2294  0.1166
16015TIP3    H169460   3.957   3.155  12.845 -1.5859 -0.5417  0.7509
16015TIP3    H269461   4.054   3.041  12.824 -0.4651  0.3835  0.7833
16016TIP3   OH269462   0.771   6.138  13.070  0.3540  0.2250  0.4197
16016TIP3    H169463   0.745   6.046  13.079  0.4434  0.2786  1.2068
16016TIP3    H269464   0.690   6.183  13.045  0.6921 -0.3442 -1.8000
16017TIP3   OH269465   3.132   6.739  16.250 -0.3088  0.2559  0.7014
16017TIP3    H169466   3.069   6.716  16.318 -0.4191  1.8381  1.1622
16017TIP3    H269467   3.203   6.783  16.298 -0.0188  0.6838 -0.1137
16018TIP3   OH269468   1.081   4.321  16.238 -0.0922 -0.4940  0.7609
16018TIP3    H169469   1.012   4.383  16.264 -0.0233 -0.8151  1.7292
16018TIP3    H269470   1.041   4.235  16.251  0.2811 -0.6701  0.7293
16019TIP3   OH269471   2.554   1.448  15.981 -0.2065  0.1119  0.4184
16019TIP3    H169472   2.541   1.474  15.889  1.1656 -1.2088 -0.1604
16019TIP3    H269473   2.582   1.357  15.976  0.6611  0.2817  2.1120
16020TIP3   OH269474   4.771   5.604   2.071  0.1222  0.3113  0.0501
16020TIP3    H169475   4.704   5.651   2.120  1.6647  1.5858  0.9744
16020TIP3    H269476   4.735   5.596   1.983 -1.0803  1.2801  0.4378
16021TIP3   OH269477   3.183   2.320   3.087 -0.2198  0.2602  0.0353
16021TIP3    H169478   3.213   2.388   3.026  1.8455  0.8986  1.6759
16021TIP3    H269479   3.234   2.336   3.167  0.0649 -2.9981  0.5819
16022TIP3   OH269480   2.342   1.587  10.649 -0.7160 -0.7117 -0.0333
16022TIP3    H169481   2.310   1.619  10.565  0.1310 -1.3010 -0.5888
16022TIP3    H269482   2.264   1.562  10.698 -1.1272 -1.7366 -1.1993
16023TIP3   OH269483   0.598   3.500  16.567  0.2494  0.0045 -0.2516
16023TIP3    H169484   0.613   3.545  16.483 -0.1126 -0.1050 -0.3784
16023TIP3    H269485   0.508   3.521  16.589 -0.2690 -1.5004 -0.8326
16024TIP3   OH269486   1.348   4.927   5.096 -0.2377  0.3226  0.2942
16024TIP3    H169487   1.361   4.934   5.191  0.0118  0.1926  0.2706
16024TIP3    H269488   1.257   4.899   5.086  0.5777 -2.5557  0.5940
16025TIP3   OH269489   0.370   6.009  16.440 -0.2171 -0.0786  0.2419
16025TIP3    H169490   0.284   6.050  16.426 -0.2650 -0.0572  0.5877
16025TIP3    H269491   0.433   6.077  16.415 -0.2687 -1.3683 -3.7102
16026TIP3   OH269492   3.877   2.852  14.804  0.5626 -0.0380 -0.2162
16026TIP3    H169493   3.808   2.918  14.811  0.1719 -0.5692  0.9982
16026TIP3    H269494   3.954   2.893  14.843  0.8205  0.3962 -1.1785
16027TIP3   OH269495   6.300   3.554   1.223 -0.2802 -0.2033 -0.2076
16027TIP3    H169496   6.369   3.502   1.182 -2.9254 -1.7518 -2.9243
16027TIP3    H269497   6.248   3.491   1.272 -0.5583  0.7321  0.7205
16028TIP3   OH269498   2.520   6.675   4.995 -0.0394 -0.6196  0.1265
16028TIP3    H169499   2.585   6.626   5.045  1.7628  0.4233 -1.1115
16028TIP3    H269500   2.445   6.617   4.989  0.3479 -1.4437  2.5230
16029TIP3   OH269501   5.356   2.233   5.081  0.3178 -0.0485 -0.7172
16029TIP3    H169502   5.366   2.255   4.988  3.1180  2.1489  0.0483
16029TIP3    H269503   5.268   2.196   5.087 -0.2013  0.4582 -4.1059
16030TIP3   OH269504   2.198   5.839  16.418  0.5953  0.0274  0.2297
16030TIP3    H169505   2.287   5.848  16.382 -0.0131 -0.0761 -1.3274
16030TIP3    H269506   2.170   5.929  16.435 -0.1712  0.2829 -2.2164
16031TIP3   OH269507   6.674   2.682   5.454  0.1564  0.0457 -0.1705
16031TIP3    H169508   6.658   2.718   5.367 -0.2665  1.3863  0.4443
16031TIP3    H269509   6.652   2.589   5.446 -2.1058  0.6005 -0.9208
16032TIP3   OH269510   2.261   0.691   1.826 -0.0061  0.0723  0.2107
16032TIP3    H169511   2.261   0.752   1.900 -1.0824 -1.5117  1.5720
16032TIP3    H269512   2.348   0.650   1.829  0.9436  1.9118 -1.0753
16033TIP3   OH269513   0.826   3.861  12.113  0.0787  0.2064 -0.3560
16033TIP3    H169514   0.921   3.864  12.121  0.1297 -0.4942 -0.7081
16033TIP3    H269515   0.798   3.952  12.123  0.6493  0.1933  1.4879
16034TIP3   OH269516   0.022   0.224  15.295  0.2745 -0.2855 -0.6122
16034TIP3    H169517   0.064   0.140  15.316 -1.6111 -0.8961  0.8635
16034TIP3    H269518   0.070   0.288  15.347  0.5823 -0.6979 -0.3808
16035TIP3   OH269519   6.136   2.220   5.269  0.6714 -0.7966 -0.2797
16035TIP3    H169520   6.175   2.206   5.355 -0.2267  0.7022  0.4173
16035TIP3    H269521   6.054   2.266   5.289  0.9703  0.5157 -1.9954
16036TIP3   OH269522   4.579   3.328   2.164 -0.4384 -0.7186  0.1694
16036TIP3    H169523   4.656   3.292   2.121 -0.7262 -2.9902  1.4804
16036TIP3    H269524   4.586   3.299   2.255 -2.6070 -0.5744  0.4112
16037TIP3   OH269525   3.434   1.848  12.634 -0.1433 -0.0623 -0.5666
16037TIP3    H169526   3.506   1.850  12.571 -0.1593 -0.1400 -0.5870
16037TIP3    H269527   3.469   1.798  12.708 -0.9466 -2.0622 -1.5053
16038TIP3   OH269528   6.741   1.718   2.286  0.1061  0.5206 -0.5232
16038TIP3    H169529   6.770   1.807   2.307  1.2217  0.9460 -3.6303
16038TIP3    H269530   6.777   1.664   2.357 -0.5488  2.5318  1.3623
16039TIP3   OH269531   2.044   6.324  11.766 -0.6905  0.6830  1.1237
16039TIP3    H169532   2.036   6.230  11.753 -0.7355  0.6254  1.5851
16039TIP3    H269533   1.955   6.355  11.780 -0.7914  0.9371  0.0248
16040TIP3   OH269534   1.314   3.763  13.885 -0.1061 -0.4235 -0.2867
16040TIP3    H169535   1.362   3.716  13.817 -1.6057 -0.4066 -1.3638
16040TIP3    H269536   1.273   3.695  13.938 -1.7184 -0.3661 -1.4388
16041TIP3   OH269537   0.543   0.650  15.753  0.2070 -0.0118 -0.2987
16041TIP3    H169538   0.560   0.570  15.801 -1.8488 -0.4218 -0.2224
16041TIP3    H269539   0.534   0.717  15.820 -2.2495 -0.5071 -0.1198
16042TIP3   OH269540   3.539   0.422  16.079 -0.0216 -0.1993 -0.3652
16042TIP3    H169541   3.569   0.480  16.149  0.2882 -1.1350  0.2867
16042TIP3    H269542   3.445   0.414  16.094  0.0558 -0.4534 -0.0203
16043TIP3   OH269543   5.753   0.163  12.260 -0.3706 -0.2612  0.0973
16043TIP3    H169544   5.697   0.239  12.244 -1.8119 -1.6429 -1.6893
16043TIP3    H269545   5.803   0.152  12.179 -0.6596 -1.6106  0.0890
16044TIP3   OH269546   0.865   0.533  17.223  0.1275 -0.8227  0.3027
16044TIP3    H169547   0.820   0.593  17.282 -0.4650 -1.5466  0.6029
16044TIP3    H269548   0.958   0.547  17.240  0.0117  0.4455 -0.0755
16045TIP3   OH269549   3.576   1.593  15.501  0.7100  0.0392  0.5455
16045TIP3    H169550   3.603   1.529  15.435  0.1673  0.0524  0.3047
16045TIP3    H269551   3.579   1.545  15.583 -0.8690 -0.6423  0.2120
16046TIP3   OH269552   3.844   1.087   3.462  0.2818 -0.3833  0.1740
16046TIP3    H169553   3.887   1.135   3.391 -0.8393  0.0216 -0.2569
16046TIP3    H269554   3.888   1.117   3.541  0.9616 -0.1703 -0.2825
16047TIP3   OH269555   4.093   1.818  12.136  0.5195 -0.0637 -0.2087
16047TIP3    H169556   4.154   1.780  12.073  1.1528 -1.8716  1.4681
16047TIP3    H269557   4.148   1.864  12.198  0.0792 -0.5077  0.5159
16048TIP3   OH269558   5.783   3.722   4.149 -0.1361  0.0924  0.0744
16048TIP3    H169559   5.847   3.707   4.219  0.5480  2.1189 -0.0999
16048TIP3    H269560   5.715   3.775   4.190 -1.0799 -0.9756 -0.0901
16049TIP3   OH269561   6.610   3.041  15.018  0.1469 -0.3247  0.2875
16049TIP3    H169562   6.571   3.102  14.955  0.5871 -1.0628 -0.7083
16049TIP3    H269563   6.699   3.076  15.032  0.4455 -0.8066 -0.3847
16050TIP3   OH269564   3.948   2.616  14.585  0.2229  0.0592 -0.6060
16050TIP3    H169565   4.038   2.646  14.595  0.6506 -1.5117  0.5004
16050TIP3    H269566   3.925   2.580  14.671 -1.4002  0.3198 -0.9323
16051TIP3   OH269567   2.553   4.053  13.850 -0.0365  0.0834 -0.4497
16051TIP3    H169568   2.611   4.129  13.841  0.2758 -0.2391 -1.1502
16051TIP3    H269569   2.608   3.978  13.828 -0.3390 -0.3558  0.2682
16052TIP3   OH269570   2.786   6.197  11.731  0.0519 -0.1849  0.2134
16052TIP3    H169571   2.761   6.105  11.726  2.1442 -0.9436  2.5608
16052TIP3    H269572   2.712   6.240  11.774  0.7069 -1.5492  2.8361
16053TIP3   OH269573   0.436   1.516  14.231  0.0973  0.8133 -0.2435
16053TIP3    H169574   0.487   1.594  14.253 -0.4534  0.8583  0.8937
16053TIP3    H269575   0.354   1.527  14.279 -0.3518 -0.0257 -0.8099
16054TIP3   OH269576   0.003   6.060  16.080  0.1945  0.1169 -0.5375
16054TIP3    H169577  -0.067   6.118  16.051  0.6603  1.1951  0.4721
16054TIP3    H269578   0.083   6.107  16.058  0.6124 -0.7914 -1.0249
16055TIP3   OH269579   0.383   6.273   5.347 -0.4106 -0.0638 -0.1937
16055TIP3    H169580   0.452   6.307   5.404 -1.5119  0.8295  0.6124
16055TIP3    H269581   0.355   6.192   5.389 -0.3639 -0.0517 -0.1393
16056TIP3   OH269582   4.673   3.925  11.993  0.0442 -0.1785  0.0966
16056TIP3    H169583   4.746   3.941  12.053  0.2504 -0.5579 -0.0503
16056TIP3    H269584   4.648   4.012  11.962 -2.7015  0.4548  3.7941
16057TIP3   OH269585   4.393   5.044  13.218  0.0984  0.0083 -0.9845
16057TIP3    H169586   4.442   4.983  13.272 -1.3666  0.2516  0.6804
16057TIP3    H269587   4.407   5.129  13.259 -0.4235  0.3127 -1.4322
16058TIP3   OH269588   5.742   3.723   5.770 -0.0556  0.0100  0.4775
16058TIP3    H169589   5.777   3.734   5.681 -1.4633  0.6389 -0.0101
16058TIP3    H269590   5.687   3.800   5.784 -0.9417 -0.7722  1.3674
16059TIP3   OH269591   4.985   1.063  13.207  0.7048 -0.2336 -0.0057
16059TIP3    H169592   5.070   1.081  13.246  0.7082  1.4730 -0.7381
16059TIP3    H269593   4.960   1.146  13.166 -2.1301 -0.1672  1.7152
16060TIP3   OH269594   4.215   1.253   5.419 -0.1699 -0.0654 -0.0359
16060TIP3    H169595   4.278   1.257   5.348  0.5663 -2.0818  0.4712
16060TIP3    H269596   4.267   1.252   5.499 -0.5892 -4.9365  0.3135
16061TIP3   OH269597   5.811   3.075   0.162  0.0990 -0.0827  0.0970
16061TIP3    H169598   5.748   3.133   0.118 -0.6289 -1.1020 -0.2282
16061TIP3    H269599   5.766   3.049   0.243 -0.7391 -2.4144 -1.0960
16062TIP3   OH269600   2.980   2.309   4.295 -0.0530 -0.1922  0.6176
16062TIP3    H169601   3.005   2.362   4.220 -0.3112 -0.1183  0.5829
16062TIP3    H269602   2.906   2.356   4.335 -0.1950 -0.4523  0.6646
16063TIP3   OH269603   2.313   0.190   1.280  0.5596 -0.2808 -0.5052
16063TIP3    H169604   2.229   0.155   1.252  0.3873  0.0111 -0.3517
16063TIP3    H269605   2.343   0.129   1.348 -0.4877  0.7423  0.9019
16064TIP3   OH269606   1.028   4.057   4.554  0.3252  0.2651  0.1432
16064TIP3    H169607   0.989   3.981   4.599  1.0607  0.7388  1.6047
16064TIP3    H269608   1.104   4.080   4.608  0.6999  1.4078 -0.8681
16065TIP3   OH269609   0.479   5.264   3.442  0.1977 -0.1419 -0.2273
16065TIP3    H169610   0.531   5.191   3.409  0.9892  0.6309 -0.7166
16065TIP3    H269611   0.457   5.239   3.531  1.2277 -0.5970 -0.0877
16066TIP3   OH269612   4.084   5.752  14.525 -0.1969 -0.1882 -0.3066
16066TIP3    H169613   4.159   5.693  14.525 -0.0734 -0.0329  0.3508
16066TIP3    H269614   4.008   5.695  14.514 -0.1167 -0.5175  0.8060
16067TIP3   OH269615   6.318   3.446   3.226  0.2848 -0.7889  0.6939
16067TIP3    H169616   6.307   3.411   3.138  0.3338  0.1920  0.2929
16067TIP3    H269617   6.297   3.373   3.284  1.4040 -1.7770 -0.1362
16068TIP3   OH269618   0.901   1.974  15.315  0.0601 -0.1187  0.1565
16068TIP3    H169619   0.973   1.985  15.252 -1.4542  0.3201 -1.5358
16068TIP3    H269620   0.925   1.895  15.364 -0.4339 -2.5954 -3.3974
16069TIP3   OH269621   5.235   1.669   5.078 -0.7581  0.3488  0.5436
16069TIP3    H169622   5.245   1.760   5.106 -0.2497  0.9640 -1.5075
16069TIP3    H269623   5.141   1.657   5.067 -0.8112  0.6993  0.6069
16070TIP3   OH269624   1.637   2.060   5.665  0.0774  0.0988  0.2914
16070TIP3    H169625   1.667   2.121   5.733 -2.0371 -0.2679  1.6068
16070TIP3    H269626   1.621   1.978   5.712  0.8344 -0.8567 -1.0860
16071TIP3   OH269627   1.913   5.030  13.166 -0.1138 -0.3938  0.3097
16071TIP3    H169628   1.871   4.962  13.114  0.4742  0.5323 -1.4282
16071TIP3    H269629   1.976   5.071  13.105 -0.1603  1.4036  1.4417
16072TIP3   OH269630   5.842   2.487   5.317  0.6354  0.4175  0.1165
16072TIP3    H169631   5.791   2.521   5.244  2.3556  2.0117 -0.3985
16072TIP3    H269632   5.916   2.547   5.325  1.7244 -1.0521  1.6854
16073TIP3   OH269633   5.968   1.658   5.826  0.5081  0.2601 -0.0684
16073TIP3    H169634   6.055   1.618   5.833 -0.8568 -2.8922 -0.4875
16073TIP3    H269635   5.978   1.725   5.759  2.3915 -0.7600 -0.8372
16074TIP3   OH269636   0.634   1.784  15.393 -0.5571 -0.3633 -0.1272
16074TIP3    H169637   0.585   1.805  15.314  0.9320  0.9850 -0.7090
16074TIP3    H269638   0.718   1.751  15.360  0.1306  0.3614  0.8925
16075TIP3   OH269639   1.039   3.381  14.626  0.1013 -0.3851 -0.1641
16075TIP3    H169640   1.073   3.470  14.619 -0.1646 -0.1572  1.4060
16075TIP3    H269641   0.953   3.390  14.665 -0.1589 -1.2922 -0.5073
16076TIP3   OH269642   3.820   5.386  11.687  0.1083  0.2389  0.6092
16076TIP3    H169643   3.824   5.338  11.604  0.2998  0.6621  0.3649
16076TIP3    H269644   3.865   5.330  11.750  1.7241  0.7854 -0.0216
16077TIP3   OH269645   5.224   3.392  16.954 -0.3068 -0.0833  0.1701
16077TIP3    H169646   5.272   3.320  16.912 -0.3718  0.1224 -0.2565
16077TIP3    H269647   5.182   3.351  17.029 -2.3844 -1.0290 -1.4577
16078TIP3   OH269648   5.058   4.733   2.984  0.7522  0.0506  0.0992
16078TIP3    H169649   5.045   4.809   3.040  2.3550  0.4363 -0.0253
16078TIP3    H269650   5.003   4.665   3.024 -0.6426  1.2377  0.2384
16079TIP3   OH269651   3.920   1.112   0.143  0.6079  0.1154 -0.2578
16079TIP3    H169652   3.867   1.076   0.071  1.3198 -1.6978  0.1128
16079TIP3    H269653   3.917   1.207   0.129  0.3139 -0.1822 -2.3833
16080TIP3   OH269654   3.698   0.499   4.231  0.1668 -0.2371  0.0090
16080TIP3    H169655   3.679   0.433   4.298  3.0760  0.1901  1.3557
16080TIP3    H269656   3.632   0.566   4.243  1.3197  0.3933  3.2945
16081TIP3   OH269657   5.014   0.675  16.986  0.3343 -0.3888  0.2585
16081TIP3    H169658   4.935   0.729  16.977  0.5151  0.0402  1.1334
16081TIP3    H269659   5.070   0.703  16.914  0.2827  0.3748  0.4974
16082TIP3   OH269660   5.404   2.506  13.381 -0.5445 -0.2192  0.4088
16082TIP3    H169661   5.347   2.431  13.363 -0.0723  0.0054 -2.1420
16082TIP3    H269662   5.459   2.476  13.454 -3.1941 -0.7857  2.2473
16083TIP3   OH269663   3.863   0.930  14.873  0.0924  0.2439 -0.0289
16083TIP3    H169664   3.808   0.937  14.951 -1.9899 -2.5815 -1.1337
16083TIP3    H269665   3.928   0.864  14.895  0.7130  0.8590 -0.0171
16084TIP3   OH269666   2.094   6.531   4.321  0.5460 -0.2919  0.4238
16084TIP3    H169667   2.059   6.442   4.311  4.0763 -1.9761  2.4165
16084TIP3    H269668   2.019   6.582   4.353 -0.4577 -3.5369  3.5385
16085TIP3   OH269669   2.369   0.865   0.016  0.2120  0.4768  0.2958
16085TIP3    H169670   2.352   0.938   0.075  0.2404  0.3077  0.5169
16085TIP3    H269671   2.366   0.903  -0.072 -0.4171  0.6163  0.3773
16086TIP3   OH269672   5.532   1.061   3.157 -0.6108 -0.1800 -0.3820
16086TIP3    H169673   5.595   1.043   3.088  0.1638  0.7985  0.0672
16086TIP3    H269674   5.552   0.995   3.224  2.0864  2.1147  1.1644
16087TIP3   OH269675   4.401   3.512  16.091 -0.2919  0.1951  0.0622
16087TIP3    H169676   4.311   3.516  16.121 -0.1801  0.9909  0.3113
16087TIP3    H269677   4.398   3.544  16.001 -0.4881 -1.2836 -0.4678
16088TIP3   OH269678   1.775   5.677  11.872 -0.0545  0.4316  0.5384
16088TIP3    H169679   1.767   5.663  11.778 -0.0584 -1.7118  0.8273
16088TIP3    H269680   1.868   5.664  11.891 -0.4456 -1.5981  1.1714
16089TIP3   OH269681   5.580   1.418  11.199  0.3932 -0.0757 -0.4139
16089TIP3    H169682   5.500   1.410  11.250 -0.2276  0.8975 -1.2091
16089TIP3    H269683   5.568   1.358  11.125  0.9361 -0.8646  0.1326
16090TIP3   OH269684   1.456   2.726   6.067 -0.1005 -0.7651  0.6822
16090TIP3    H169685   1.480   2.817   6.087 -0.6478 -0.1437 -1.3512
16090TIP3    H269686   1.491   2.676   6.140  1.8637  0.8577  0.9160
16091TIP3   OH269687   4.441   2.027  15.962 -0.0964  0.1079  0.3221
16091TIP3    H169688   4.412   2.112  15.929  0.2792  0.9897  2.1830
16091TIP3    H269689   4.376   1.965  15.929 -2.4399  1.6154  1.9620
16092TIP3   OH269690   6.765   3.029  12.381  0.1055  0.1266  0.5810
16092TIP3    H169691   6.795   3.095  12.319 -0.3434  0.2277  0.4758
16092TIP3    H269692   6.670   3.029  12.373  0.1580 -1.3344 -0.2474
16093TIP3   OH269693   2.289   3.617  15.160 -0.4343  0.0012  0.3220
16093TIP3    H169694   2.217   3.667  15.199  0.1588 -0.1566  1.6504
16093TIP3    H269695   2.281   3.634  15.066 -1.2420  1.2759  0.5975
16094TIP3   OH269696   2.496   3.724  13.677  0.2526 -0.3103  0.1155
16094TIP3    H169697   2.500   3.734  13.582 -0.1298  0.2389  0.1546
16094TIP3    H269698   2.427   3.784  13.705  0.2098 -0.6286  0.7183
16095TIP3   OH269699   4.617   3.587  16.434  0.4686  0.4231 -0.9121
16095TIP3    H169700   4.667   3.657  16.476  0.7230  0.7266 -1.7151
16095TIP3    H269701   4.683   3.531  16.393  0.3874 -1.3779  1.3702
16096TIP3   OH269702   1.617   1.297  15.029 -0.2968 -0.1049 -0.1053
16096TIP3    H169703   1.573   1.380  15.014 -1.1421 -0.4492  0.4581
16096TIP3    H269704   1.556   1.246  15.082 -0.7183 -1.8997 -2.2219
16097TIP3   OH269705   2.278   4.260   4.596  0.6344 -0.0680  0.0186
16097TIP3    H169706   2.339   4.334   4.591 -0.5812  0.7952 -4.6055
16097TIP3    H269707   2.328   4.186   4.562  0.2859 -0.2233 -0.1536
16098TIP3   OH269708   6.296   0.876  11.724  0.5478 -0.6789 -0.1228
16098TIP3    H169709   6.279   0.817  11.797  0.5392 -0.4036  0.0999
16098TIP3    H269710   6.303   0.818  11.647  1.5487 -1.0561  0.2499
16099TIP3   OH269711   2.588   1.911  15.846 -0.4784 -0.1125  0.1309
16099TIP3    H169712   2.499   1.894  15.818 -0.8151  1.5769  0.1250
16099TIP3    H269713   2.612   1.835  15.899 -1.2656 -1.4153 -1.3449
16100TIP3   OH269714   5.005   6.639   0.229 -0.0526  0.2855 -0.0716
16100TIP3    H169715   5.081   6.671   0.181  0.8086  0.5064  1.4356
16100TIP3    H269716   4.994   6.701   0.301 -2.0700  0.6491 -0.6592
16101TIP3   OH269717   5.511   3.610  10.904 -0.1600  0.1722 -0.1995
16101TIP3    H169718   5.516   3.622  10.809 -0.6712  1.2994 -0.0901
16101TIP3    H269719   5.445   3.541  10.916  0.5276 -0.5744 -0.6948
16102TIP3   OH269720   0.780   2.635   3.109 -0.0874 -0.5841  0.2229
16102TIP3    H169721   0.784   2.610   3.017  1.6545  0.0032  0.1311
16102TIP3    H269722   0.698   2.596   3.141 -0.4586 -1.1913 -1.4400
16103TIP3   OH269723   3.006   3.187  14.616 -0.3037  0.2929  0.1781
16103TIP3    H169724   3.045   3.204  14.530 -1.6981 -0.1784 -0.5557
16103TIP3    H269725   2.953   3.265  14.634  0.8714  0.8880  1.1311
16104TIP3   OH269726   2.488   5.079  15.176  0.4844 -0.0809 -0.1527
16104TIP3    H169727   2.475   5.003  15.119 -1.8353 -0.5023  0.8587
16104TIP3    H269728   2.537   5.141  15.123  2.8018 -2.4225 -0.8659
16105TIP3   OH269729   1.794   4.892   5.088 -1.0903  0.2091 -0.7109
16105TIP3    H169730   1.808   4.931   5.175 -0.5165  0.7008 -1.0203
16105TIP3    H269731   1.705   4.859   5.091  0.1116 -3.0389  1.3288
16106TIP3   OH269732   2.397   4.838   1.090  0.0884  0.4932  0.3264
16106TIP3    H169733   2.379   4.754   1.132 -0.8526  0.6633  0.2683
16106TIP3    H269734   2.390   4.821   0.997 -0.5076  0.7203  0.3256
16107TIP3   OH269735   4.037   4.317   2.462  0.5891  0.2945 -0.4134
16107TIP3    H169736   4.077   4.256   2.399 -1.6756 -1.8751  0.1379
16107TIP3    H269737   4.065   4.284   2.547 -0.1951  0.3426 -0.1342
16108TIP3   OH269738   2.203   4.780  13.853  0.0900  0.6746  0.3651
16108TIP3    H169739   2.193   4.844  13.924  0.4242  0.1026  0.9328
16108TIP3    H269740   2.274   4.816  13.800  0.1063  0.9098  0.5404
16109TIP3   OH269741   3.324   3.080  13.251 -0.3790  0.3040  0.0429
16109TIP3    H169742   3.291   3.034  13.173  1.7006 -1.0218 -0.0883
16109TIP3    H269743   3.287   3.168  13.243 -2.2172 -0.5211 -1.1338
16110TIP3   OH269744   3.852   6.080   3.827 -0.0652  0.0147  0.4844
16110TIP3    H169745   3.838   6.173   3.814  0.1076 -0.0626 -0.3502
16110TIP3    H269746   3.775   6.038   3.788  0.6508 -0.2512 -0.6761
16111TIP3   OH269747   1.582   5.064  16.593 -0.3234 -0.3554  0.1326
16111TIP3    H169748   1.623   5.127  16.652 -1.2591 -0.2457  0.6611
16111TIP3    H269749   1.492   5.093  16.584 -0.4052 -0.8305 -0.7169
16112TIP3   OH269750   6.407   4.865  10.468  0.1371  0.7898 -0.5340
16112TIP3    H169751   6.471   4.832  10.404  1.1213  0.6216  0.5287
16112TIP3    H269752   6.406   4.960  10.453 -0.3218  0.6547 -1.4177
16113TIP3   OH269753   0.608   2.468   5.500 -1.0762 -0.4428 -0.2731
16113TIP3    H169754   0.674   2.402   5.478 -0.1929  0.3748 -0.1061
16113TIP3    H269755   0.574   2.498   5.415 -1.1695 -0.7996 -0.3622
16114TIP3   OH269756   6.328   3.675   5.648  0.3401  0.0131  0.1880
16114TIP3    H169757   6.241   3.649   5.618  0.7402  0.4190 -1.3332
16114TIP3    H269758   6.362   3.597   5.692 -0.5187 -0.3662  0.1866
16115TIP3   OH269759   1.753   5.454   1.485  0.1058  0.2675 -0.2947
16115TIP3    H169760   1.687   5.388   1.505  1.8349 -1.4825 -0.2322
16115TIP3    H269761   1.705   5.523   1.441 -1.6449 -1.3726 -1.0204
16116TIP3   OH269762   6.663   4.877   1.111  0.3175  0.7240  0.2097
16116TIP3    H169763   6.725   4.926   1.058 -0.6727  1.5474 -0.2081
16116TIP3    H269764   6.652   4.930   1.190  2.9727 -1.2531  1.9925
16117TIP3   OH269765   4.827   6.278  15.645  0.4795  0.5984  0.1707
16117TIP3    H169766   4.773   6.252  15.571  0.6936  0.1503  0.1667
16117TIP3    H269767   4.884   6.203  15.660 -1.5486 -0.5331  2.6481
16118TIP3   OH269768   1.372   0.115  12.253  0.2196  0.6177 -0.2248
16118TIP3    H169769   1.418   0.069  12.323 -1.1312 -2.3436 -1.1985
16118TIP3    H269770   1.441   0.158  12.203  1.7076 -1.6326 -0.1698
16119TIP3   OH269771   2.611   2.978   5.324  0.4539 -0.6634  0.4753
16119TIP3    H169772   2.575   3.008   5.241 -0.7211 -1.4691  0.6738
16119TIP3    H269773   2.548   3.008   5.390  0.4486 -1.5777  0.8919
16120TIP3   OH269774   2.165   1.568   1.029 -0.1298  0.4428 -0.4566
16120TIP3    H169775   2.171   1.621   1.108 -0.3301  0.3723 -0.3933
16120TIP3    H269776   2.249   1.522   1.024 -0.6513 -0.6256  0.4817
16121TIP3   OH269777   4.379   5.712  11.427 -0.1243 -0.1037 -0.1442
16121TIP3    H169778   4.299   5.739  11.383 -0.2067  0.5417  0.4035
16121TIP3    H269779   4.443   5.704  11.357 -0.3686  0.4950 -0.4380
16122TIP3   OH269780   0.235   3.240  13.711 -0.5366  0.1294 -0.1012
16122TIP3    H169781   0.299   3.216  13.644 -1.0828  1.1018 -1.0029
16122TIP3    H269782   0.222   3.160  13.762 -0.7565 -0.8714 -1.7014
16123TIP3   OH269783   2.687   4.016  13.261 -0.4669 -0.3009 -0.0648
16123TIP3    H169784   2.657   3.994  13.173  2.6397 -0.5939 -1.1119
16123TIP3    H269785   2.749   4.088  13.247 -0.1165 -0.2032  1.9215
16124TIP3   OH269786   0.147   0.963   1.687 -0.4288  0.5191  0.2112
16124TIP3    H169787   0.161   0.871   1.710 -2.3974  0.7517  2.5688
16124TIP3    H269788   0.165   0.967   1.593  0.8517 -2.0213  0.2990
16125TIP3   OH269789   4.372   3.909   2.025  1.0852  0.3696 -0.6367
16125TIP3    H169790   4.417   3.904   2.109  2.3604  0.4898 -1.2968
16125TIP3    H269791   4.282   3.932   2.047  0.6295 -2.7342  0.8925
16126TIP3   OH269792   1.807   5.017  14.682  0.2481 -0.3750  0.2047
16126TIP3    H169793   1.734   5.015  14.744 -1.3395 -3.1631 -1.6111
16126TIP3    H269794   1.803   4.932  14.639  3.0622  0.4104 -1.7194
16127TIP3   OH269795   0.762   3.336   6.302  0.3272 -0.4538  0.7165
16127TIP3    H169796   0.671   3.337   6.332 -0.3850  0.3590 -1.3252
16127TIP3    H269797   0.786   3.243   6.301  0.1171 -0.5454  2.9440
16128TIP3   OH269798   3.004   6.738   4.099  0.2447 -0.3286  0.6445
16128TIP3    H169799   2.998   6.796   4.175  2.5661  0.9658 -0.1165
16128TIP3    H269800   3.073   6.677   4.121  0.5271 -0.3169 -0.1832
16129TIP3   OH269801   4.727   2.519  11.217 -0.2473  0.2724 -0.7901
16129TIP3    H169802   4.634   2.502  11.202 -0.1880  0.0281 -0.8936
16129TIP3    H269803   4.771   2.458  11.158 -0.0175 -0.1381 -0.1924
16130TIP3   OH269804   1.026   3.697  16.560 -0.0177  0.0531 -0.2663
16130TIP3    H169805   1.059   3.718  16.648 -0.2496  0.3644 -0.2503
16130TIP3    H269806   1.104   3.685  16.507  0.1353 -1.4928  0.3043
16131TIP3   OH269807   2.042   4.384   4.480 -0.0698  0.0238  0.3430
16131TIP3    H169808   1.993   4.335   4.414 -2.5193 -0.8198  2.6597
16131TIP3    H269809   2.092   4.318   4.527 -1.6892 -0.0377  2.0633
16132TIP3   OH269810   5.251   3.530   4.827 -0.3932  0.0526 -0.2507
16132TIP3    H169811   5.162   3.514   4.857  0.1140  0.5706  1.5860
16132TIP3    H269812   5.269   3.459   4.765 -2.0819 -0.0395 -0.6342
16133TIP3   OH269813   2.942   0.323  11.447  0.2291 -0.4896 -0.8818
16133TIP3    H169814   2.913   0.278  11.368 -0.6973  0.7362 -1.2674
16133TIP3    H269815   2.898   0.408  11.443 -1.4773 -1.1853  2.0062
16134TIP3   OH269816   2.460   6.095   3.883 -0.0483 -0.3563 -0.2079
16134TIP3    H169817   2.488   6.158   3.817 -0.7150 -0.2341 -0.3833
16134TIP3    H269818   2.498   6.127   3.965 -0.3817  0.2720 -0.2993
16135TIP3   OH269819   6.359   2.349  16.789  0.7998 -0.5016  0.4558
16135TIP3    H169820   6.366   2.304  16.873 -1.7191 -0.5024  0.7246
16135TIP3    H269821   6.265   2.367  16.780  1.4444  2.4945 -0.7949
16136TIP3   OH269822   3.216   3.512   4.308 -0.0631  0.0286  0.5475
16136TIP3    H169823   3.235   3.530   4.400 -0.0553 -0.8431  0.7260
16136TIP3    H269824   3.266   3.577   4.259  2.9852 -1.8256  1.0202
16137TIP3   OH269825   2.367   0.094  11.967  0.3193 -0.7389 -0.0130
16137TIP3    H169826   2.301   0.159  11.942 -0.4093 -1.2441  0.5608
16137TIP3    H269827   2.370   0.033  11.893  1.5204  0.3146 -0.8706
16138TIP3   OH269828   1.680   3.650  13.828  0.3381  0.0228  0.4202
16138TIP3    H169829   1.735   3.602  13.890 -1.8970 -2.9542  0.2419
16138TIP3    H269830   1.593   3.610  13.838 -1.0564  2.4220 -1.5515
16139TIP3   OH269831   3.508   1.625   1.893 -0.0107 -0.2882  0.1898
16139TIP3    H169832   3.421   1.663   1.885  0.7569  1.3139 -0.6239
16139TIP3    H269833   3.508   1.552   1.831 -1.1947 -1.1529  1.1533
16140TIP3   OH269834   0.241   1.498   3.498 -0.2605  0.2814 -0.0368
16140TIP3    H169835   0.263   1.468   3.410 -0.7407 -1.1803  0.3273
16140TIP3    H269836   0.317   1.474   3.552 -0.1020  0.8905  0.0241
16141TIP3   OH269837   5.226   0.164   2.798  0.0515 -0.4838  0.3112
16141TIP3    H169838   5.140   0.177   2.759  1.0375 -0.6972 -2.0597
16141TIP3    H269839   5.253   0.077   2.768  2.2861  0.7413 -1.4595
16142TIP3   OH269840   6.632   2.367  13.868 -0.6464 -0.0042  0.1954
16142TIP3    H169841   6.566   2.358  13.937  0.0929  0.3102  0.9636
16142TIP3    H269842   6.653   2.277  13.843 -1.4986 -0.1008 -0.1859
16143TIP3   OH269843   5.444   1.566  14.520  0.4979 -0.0280 -0.0888
16143TIP3    H169844   5.379   1.515  14.470 -1.7095  0.3976  2.2185
16143TIP3    H269845   5.418   1.657  14.506  1.6771  0.2319 -0.5646
16144TIP3   OH269846   5.395   5.639   3.564 -0.0995 -0.3374  0.0864
16144TIP3    H169847   5.314   5.604   3.528 -0.0567  0.8097 -1.1739
16144TIP3    H269848   5.389   5.623   3.659 -1.4996 -0.8288 -0.0815
16145TIP3   OH269849   5.668   3.605   2.319 -0.1440  0.4167 -0.2420
16145TIP3    H169850   5.612   3.620   2.395 -0.3319 -1.6620  0.0441
16145TIP3    H269851   5.757   3.601   2.356  0.3361  4.2454 -0.7566
16146TIP3   OH269852   3.740   3.877   1.653 -0.0070  0.0323  0.0529
16146TIP3    H169853   3.764   3.820   1.580 -0.5245 -1.2390  0.8628
16146TIP3    H269854   3.821   3.926   1.672  0.2161  0.1577 -1.1505
16147TIP3   OH269855   3.442   4.291   4.745 -0.1639 -0.0463  0.5466
16147TIP3    H169856   3.349   4.266   4.739 -0.1329 -0.0741  0.1890
16147TIP3    H269857   3.467   4.267   4.834 -0.5673  0.1882  0.7266
16148TIP3   OH269858   3.853   5.867  11.804 -0.4007  0.7112  0.3036
16148TIP3    H169859   3.920   5.799  11.814 -0.4081  0.8111  1.1095
16148TIP3    H269860   3.771   5.818  11.797 -0.3196  0.6098  0.0543
16149TIP3   OH269861   1.017   4.048   0.671 -0.1124 -0.2826  0.4216
16149TIP3    H169862   0.953   3.989   0.631  0.6115 -1.5504  1.0985
16149TIP3    H269863   0.979   4.072   0.756  0.5311 -1.4624  1.0570
16150TIP3   OH269864   6.016   0.242   0.528  0.3615  0.6582 -0.7383
16150TIP3    H169865   6.002   0.163   0.476  2.1753 -1.2530  1.5735
16150TIP3    H269866   5.929   0.282   0.534 -0.9344 -2.0899 -0.4657
16151TIP3   OH269867   0.176   0.643   1.484  0.5900  0.0012 -0.6076
16151TIP3    H169868   0.179   0.581   1.557  0.9334  0.3107 -0.3576
16151TIP3    H269869   0.234   0.605   1.418 -1.7054 -1.6096 -1.7871
16152TIP3   OH269870   5.096   0.439  15.679  0.3095 -0.5385  0.1324
16152TIP3    H169871   5.125   0.507  15.740 -1.3224  0.3381 -0.0326
16152TIP3    H269872   5.035   0.385  15.730  1.0707 -1.4657  0.0659
16153TIP3   OH269873   2.722   3.300  14.272 -0.6466  0.2172  0.0888
16153TIP3    H169874   2.726   3.327  14.363  0.5155 -0.5332  0.2651
16153TIP3    H269875   2.810   3.312  14.238 -1.1320  0.7737 -1.0338
16154TIP3   OH269876   5.492   3.359   0.620 -0.1796  0.3914  0.1631
16154TIP3    H169877   5.518   3.326   0.706  2.6302  1.6291 -0.1616
16154TIP3    H269878   5.548   3.312   0.558  0.6728  2.3899 -0.6402
16155TIP3   OH269879   0.270   0.873   4.555  0.5161  0.3402  0.8564
16155TIP3    H169880   0.338   0.808   4.575  0.8713  0.0552 -1.2253
16155TIP3    H269881   0.193   0.821   4.531  1.0276  0.6488 -1.5757
16156TIP3   OH269882   0.995   4.505  16.990  0.3408 -0.0186 -0.2273
16156TIP3    H169883   1.033   4.592  17.003  0.2782  0.0227 -0.3196
16156TIP3    H269884   1.008   4.460  17.073  0.7918 -0.0799 -0.3298
16157TIP3   OH269885   3.150   5.301   5.509 -0.4973 -0.2161  0.4637
16157TIP3    H169886   3.182   5.319   5.421  0.4561 -1.1861  0.6012
16157TIP3    H269887   3.103   5.380   5.534  0.8140  0.7962 -0.2022
16158TIP3   OH269888   2.163   1.701   4.062 -0.9833 -0.2598 -1.0382
16158TIP3    H169889   2.145   1.794   4.051 -0.5543 -0.0967 -0.3684
16158TIP3    H269890   2.144   1.684   4.155 -2.1198 -1.0675 -1.4105
16159TIP3   OH269891   2.236   3.912  14.286 -0.0257 -0.3950  0.1744
16159TIP3    H169892   2.268   3.879  14.202 -0.9419 -1.2631  0.1533
16159TIP3    H269893   2.221   4.005  14.271  2.8230  0.1155  0.3029
16160TIP3   OH269894   6.301   6.668   4.174 -0.8562  0.4956 -0.4379
16160TIP3    H169895   6.261   6.595   4.127 -0.6229 -0.7775  1.3217
16160TIP3    H269896   6.346   6.628   4.248  0.3102  2.3104 -0.1286
16161TIP3   OH269897   6.360   3.228   3.382  0.4215 -0.3422  0.9363
16161TIP3    H169898   6.423   3.205   3.313  0.0165  0.7233  0.1975
16161TIP3    H269899   6.336   3.144   3.421  4.1628 -0.5832  2.9376
16162TIP3   OH269900   1.168   3.393  13.383  0.1638 -0.4406 -0.2499
16162TIP3    H169901   1.212   3.309  13.395  1.0418  0.4479  3.4154
16162TIP3    H269902   1.236   3.451  13.349  0.3273 -0.5224 -0.0641
16163TIP3   OH269903   4.285   5.505  13.788  0.1513 -0.1950 -0.4514
16163TIP3    H169904   4.329   5.425  13.815  1.7801  0.3397 -1.4600
16163TIP3    H269905   4.356   5.566  13.766 -1.0165  1.9673  1.5280
16164TIP3   OH269906   0.905   6.124   0.717 -0.1834 -0.7366  0.0834
16164TIP3    H169907   0.940   6.069   0.647 -2.4563 -2.2750  0.1230
16164TIP3    H269908   0.830   6.169   0.677 -0.8571 -0.8272  1.2298
16165TIP3   OH269909   1.056   4.001  15.930 -0.3631 -0.4978 -0.2108
16165TIP3    H169910   1.118   3.929  15.923 -1.1316 -1.0977 -0.9963
16165TIP3    H269911   1.077   4.059  15.857  0.1227 -0.0125  0.3025
16166TIP3   OH269912   2.938   5.075  16.458 -0.2508  0.0084  0.0657
16166TIP3    H169913   2.865   5.013  16.463 -1.0244  0.9701  1.0629
16166TIP3    H269914   3.005   5.037  16.515 -0.5524 -0.1153  0.3399
16167TIP3   OH269915   1.446   1.991   4.228 -0.2948 -0.0960  0.2270
16167TIP3    H169916   1.536   1.979   4.197  0.4210 -1.1290  2.5718
16167TIP3    H269917   1.399   2.025   4.152  1.7551 -0.8597 -1.4483
16168TIP3   OH269918   2.963   4.213   0.443  0.2031  0.4962 -0.1245
16168TIP3    H169919   3.003   4.155   0.379 -0.1632 -1.2962  1.2191
16168TIP3    H269920   2.942   4.156   0.517 -0.0704  2.3653  1.2842
16169TIP3   OH269921   0.805   0.321   5.391 -0.3019  0.0721 -0.1251
16169TIP3    H169922   0.724   0.338   5.342 -0.7811 -2.3396 -0.2080
16169TIP3    H269923   0.872   0.308   5.324 -0.0615  0.9886 -0.0689
16170TIP3   OH269924   0.369   5.639   3.549  0.4713 -0.7361 -0.0662
16170TIP3    H169925   0.336   5.577   3.614  1.6136 -0.8755  0.3965
16170TIP3    H269926   0.346   5.601   3.465 -0.5435 -0.8207  0.2465
16171TIP3   OH269927   0.895   2.757   2.335 -0.1504  0.0691  0.2988
16171TIP3    H169928   0.888   2.686   2.398  0.8901  0.3214  0.7000
16171TIP3    H269929   0.805   2.774   2.308 -0.2754 -2.6117 -1.1512
16172TIP3   OH269930   1.807   2.899  15.757  0.2450  0.0875 -0.7094
16172TIP3    H169931   1.792   2.981  15.804 -1.4242 -0.7487  0.2725
16172TIP3    H269932   1.755   2.834  15.805  1.5503 -1.5436 -1.4722
16173TIP3   OH269933   3.892   6.741  15.343 -0.0498  1.3971 -0.0785
16173TIP3    H169934   3.970   6.686  15.344  0.2325  1.7846 -0.3137
16173TIP3    H269935   3.856   6.729  15.255 -1.4828 -0.4640  0.7289
16174TIP3   OH269936   2.343   5.704   4.184  0.1471  0.7073 -0.1060
16174TIP3    H169937   2.364   5.719   4.092  0.3136  0.4853 -0.1051
16174TIP3    H269938   2.276   5.769   4.204 -0.8732 -0.1160 -0.7533
16175TIP3   OH269939   1.901   0.350  15.788 -0.3285  0.2949  0.5283
16175TIP3    H169940   1.991   0.324  15.769 -0.6609 -0.4600 -0.0495
16175TIP3    H269941   1.906   0.393  15.873  0.7774  1.3990 -0.0739
16176TIP3   OH269942   3.134   5.990  13.439 -0.1276 -0.3359 -0.0051
16176TIP3    H169943   3.118   5.937  13.518  1.7378 -0.7334  0.1277
16176TIP3    H269944   3.187   5.934  13.383 -2.4616 -0.4945 -2.0891
16177TIP3   OH269945   2.541   1.689   1.158 -0.3951 -0.1815 -0.2832
16177TIP3    H169946   2.604   1.692   1.230 -1.0409 -0.3132  0.2988
16177TIP3    H269947   2.522   1.595   1.147 -1.7371 -0.0277  0.6581
16178TIP3   OH269948   1.588   4.383   1.523  0.2851 -0.5546  0.3261
16178TIP3    H169949   1.509   4.334   1.547 -1.3552  2.1629  0.6459
16178TIP3    H269950   1.559   4.474   1.518  3.2078  0.3704 -0.5162
16179TIP3   OH269951   2.419   2.282   0.751 -0.1494  0.2510 -0.4471
16179TIP3    H169952   2.326   2.273   0.770 -0.1140 -0.6190 -0.6585
16179TIP3    H269953   2.461   2.213   0.802  0.3967  0.7424 -0.2300
16180TIP3   OH269954   4.298   1.392   1.932 -0.0380 -0.3416  0.3960
16180TIP3    H169955   4.276   1.459   1.868  1.2801  0.6150  0.9208
16180TIP3    H269956   4.333   1.440   2.007 -0.1973 -1.5346  1.2616
16181TIP3   OH269957   6.497   1.763  16.221 -0.0105 -0.1006 -0.4628
16181TIP3    H169958   6.586   1.779  16.189 -0.5064 -0.0115 -1.8460
16181TIP3    H269959   6.495   1.805  16.307  1.9281 -1.9546  0.5494
16182TIP3   OH269960   4.745   3.766  13.296 -0.2996 -0.0347 -0.0117
16182TIP3    H169961   4.759   3.848  13.248  1.3282 -0.0118  0.4636
16182TIP3    H269962   4.808   3.706  13.258  0.1108 -0.3950  1.2178
16183TIP3   OH269963   3.358   6.149  14.059  0.0955  0.0257 -0.0374
16183TIP3    H169964   3.444   6.162  14.018  1.3559 -1.0835  2.1629
16183TIP3    H269965   3.353   6.217  14.126 -1.1873  0.6860 -0.7765
16184TIP3   OH269966   1.856   3.672   5.018 -0.5146 -0.0649  0.1641
16184TIP3    H169967   1.793   3.741   4.997  2.0264  2.1561 -0.4725
16184TIP3    H269968   1.878   3.687   5.110 -0.8019 -0.7351  0.3414
16185TIP3   OH269969   6.537   0.410  15.143 -0.0262 -0.2740 -0.2593
16185TIP3    H169970   6.599   0.460  15.090  0.9266 -1.3320 -0.1482
16185TIP3    H269971   6.591   0.358  15.201 -0.9797 -2.4149 -1.2470
16186TIP3   OH269972   3.552   3.069  14.327  0.6516  0.2704  0.6459
16186TIP3    H169973   3.576   3.057  14.419 -0.2200  1.0148  0.9840
16186TIP3    H269974   3.502   3.151  14.326  0.0318 -0.1075 -0.3754
16187TIP3   OH269975   4.788   5.820  12.478  0.3656 -0.4680  0.4999
16187TIP3    H169976   4.776   5.878  12.403  2.8865  0.5988  0.8835
16187TIP3    H269977   4.750   5.737  12.450 -2.4041  1.0461 -0.4349
16188TIP3   OH269978   4.832   2.590   6.051  0.5013 -0.1186 -0.0201
16188TIP3    H169979   4.848   2.683   6.062  0.1027 -0.0529  0.0146
16188TIP3    H269980   4.738   2.579   6.070  0.5718 -0.5422  0.1032
16189TIP3   OH269981   2.233   0.344  12.946 -0.1631  0.2411 -0.4759
16189TIP3    H169982   2.307   0.287  12.926  0.0106  0.5097 -0.5952
16189TIP3    H269983   2.174   0.289  12.997  0.6029  0.3344  0.5314
16190TIP3   OH269984   6.457   4.174  16.436  0.2222  0.1610  0.0020
16190TIP3    H169985   6.520   4.114  16.476  0.7202  0.5715 -0.1632
16190TIP3    H269986   6.471   4.164  16.342 -1.3670 -1.2604 -0.1126
16191TIP3   OH269987   4.424   6.747   5.626  0.5770  0.1721  0.5278
16191TIP3    H169988   4.482   6.809   5.581  0.3811  0.2863  0.4344
16191TIP3    H269989   4.446   6.662   5.587  1.2947  0.0829  1.1018
16192TIP3   OH269990   0.858   5.329  12.148 -0.0767  0.3035 -0.2574
16192TIP3    H169991   0.900   5.285  12.074  0.8256  0.0712  0.3812
16192TIP3    H269992   0.769   5.294  12.149 -0.2968  0.7703 -1.6065
16193TIP3   OH269993   0.599   1.178   2.223  0.3559 -0.0677 -0.2778
16193TIP3    H169994   0.678   1.210   2.179 -0.6929  1.4091 -1.1655
16193TIP3    H269995   0.599   1.084   2.207  1.6676 -0.0021 -0.7193
16194TIP3   OH269996   6.070   5.039  16.084 -0.5260  0.9144 -0.1537
16194TIP3    H169997   6.112   4.989  16.155 -1.1328  1.0806  0.3303
16194TIP3    H269998   6.012   4.977  16.042 -0.0993  0.7922 -0.5707
16195TIP3   OH269999   3.883   4.153  12.953 -0.0868 -0.6791 -0.5032
16195TIP3    H170000   3.860   4.186  12.866  0.2605  0.5582 -0.1268
16195TIP3    H270001   3.960   4.099  12.939  1.7657  1.8921 -0.5546
16196TIP3   OH270002   3.304   2.036  15.570 -0.3082 -0.9019  0.3811
16196TIP3    H170003   3.294   1.971  15.500  1.8438  0.8077 -1.5511
16196TIP3    H270004   3.300   2.120  15.526  0.2818  0.2281  2.4367
16197TIP3   OH270005   0.594   2.964  11.413 -0.3531 -0.1763 -0.6905
16197TIP3    H170006   0.580   2.922  11.498 -0.7963 -1.1717 -1.2410
16197TIP3    H270007   0.688   2.956  11.397 -0.5445 -1.7168 -1.1610
16198TIP3   OH270008   3.445   1.714   4.063 -0.2977  0.0604 -0.0376
16198TIP3    H170009   3.366   1.702   4.010 -0.7443 -0.4223  0.7173
16198TIP3    H270010   3.512   1.661   4.019 -0.0016  1.5675 -1.4644
16199TIP3   OH270011   5.798   4.016  11.182 -0.0737  0.2672  0.0062
16199TIP3    H170012   5.843   4.052  11.106  0.6587 -0.1066  0.2579
16199TIP3    H270013   5.853   4.040  11.257 -0.8364  0.7085  0.4266
16200TIP3   OH270014   0.613   6.653   1.378  0.3265 -0.9091  0.4803
16200TIP3    H170015   0.646   6.705   1.451 -2.0403  0.2552  0.7326
16200TIP3    H270016   0.547   6.596   1.417 -0.3813 -0.8436 -0.6210
16201TIP3   OH270017   2.815   5.870  16.843  0.8573  0.6842  0.2922
16201TIP3    H170018   2.764   5.860  16.924  0.3914  0.4824 -0.0264
16201TIP3    H270019   2.771   5.941  16.796  1.0302  0.6865  0.1363
16202TIP3   OH270020   5.112   3.917   4.933  0.0621  0.2138  0.3491
16202TIP3    H170021   5.121   4.008   4.903  0.1144 -0.2239 -1.0148
16202TIP3    H270022   5.180   3.870   4.886  0.3496 -0.4535  1.4260
16203TIP3   OH270023   5.609   6.344  13.574  0.3646 -0.5456  1.0404
16203TIP3    H170024   5.634   6.264  13.529  1.7251  0.1964  0.4253
16203TIP3    H270025   5.563   6.315  13.653  0.8042 -1.9171  0.7949
16204TIP3   OH270026   5.279   0.491   1.990 -0.1498  0.2012 -0.0253
16204TIP3    H170027   5.348   0.552   2.017  0.3709 -0.3396 -0.1344
16204TIP3    H270028   5.200   0.545   1.985  0.6164  1.2083 -1.6371
16205TIP3   OH270029   0.413   2.441   2.903 -0.5332  0.4857  0.6019
16205TIP3    H170030   0.342   2.492   2.941 -2.0919 -0.9268 -0.3349
16205TIP3    H270031   0.408   2.458   2.809 -1.2023 -1.4700  0.2423
16206TIP3   OH270032   3.687   2.440  16.864 -0.7377  0.0772 -0.0981
16206TIP3    H170033   3.688   2.409  16.774 -2.6821 -0.9187  0.2037
16206TIP3    H270034   3.611   2.398  16.904 -0.8438  1.7601  1.5697
16207TIP3   OH270035   1.912   5.507  14.153  0.2786  1.0861  0.4678
16207TIP3    H170036   1.938   5.519  14.062  3.3235 -0.1900  1.1185
16207TIP3    H270037   1.896   5.413  14.161  0.4819  1.1289  1.3767
16208TIP3   OH270038   0.968   5.002  11.146  0.0721  0.1110 -0.2542
16208TIP3    H170039   0.958   4.937  11.215  0.4759  0.9004  0.5607
16208TIP3    H270040   0.961   4.952  11.064  1.4316 -1.1059  0.3575
16209TIP3   OH270041   4.633   0.146  16.129 -0.1204  0.1106  0.5761
16209TIP3    H170042   4.596   0.187  16.051 -0.3232  0.1573  0.6970
16209TIP3    H270043   4.600   0.198  16.202 -1.3717 -0.9831  0.8150
16210TIP3   OH270044   4.080   5.726  15.500 -0.3077  0.1068  0.4669
16210TIP3    H170045   4.126   5.686  15.574  0.7799  1.0299  0.3027
16210TIP3    H270046   3.988   5.729  15.528 -0.0108 -0.1530  1.5078
16211TIP3   OH270047   1.846   6.040   4.035 -0.3254  0.5371  0.2722
16211TIP3    H170048   1.816   6.130   4.043  0.9546  1.0180 -0.2326
16211TIP3    H270049   1.931   6.046   3.991 -0.2806 -0.9193  0.1126
16212TIP3   OH270050   6.119   4.604   5.309 -0.0626 -0.0839  0.2122
16212TIP3    H170051   6.103   4.510   5.302 -3.8914  0.1785  3.4836
16212TIP3    H270052   6.187   4.612   5.376  0.0588 -0.5027  0.1425
16213TIP3   OH270053   1.152   0.713  15.831  0.6286 -0.1324  0.1132
16213TIP3    H170054   1.106   0.797  15.837 -2.0248 -1.5614  0.6908
16213TIP3    H270055   1.089   0.654  15.790  1.7272 -2.3444  1.4996
16214TIP3   OH270056   1.567   0.774  13.587 -0.4071 -0.1040 -0.6119
16214TIP3    H170057   1.580   0.855  13.637  1.5172 -0.7318 -0.0621
16214TIP3    H270058   1.617   0.788  13.507  0.5995 -1.0690 -0.1542
16215TIP3   OH270059   5.808   6.218   2.043  0.1909 -0.0994  0.3241
16215TIP3    H170060   5.750   6.146   2.069 -1.4948  1.5318  1.1619
16215TIP3    H270061   5.813   6.211   1.948 -1.0162 -0.5650  0.2818
16216TIP3   OH270062   1.393   6.108   3.301  0.1538 -0.2953  0.0443
16216TIP3    H170063   1.356   6.175   3.243 -1.0296 -0.3685  0.6942
16216TIP3    H270064   1.348   6.122   3.384  0.2464 -1.5929  0.3161
16217TIP3   OH270065   0.037   0.810  15.522 -0.2635 -0.2429  1.0408
16217TIP3    H170066   0.130   0.789  15.518 -0.4246 -0.8400  0.4165
16217TIP3    H270067  -0.008   0.732  15.489 -0.9176  0.5968 -0.0791
16218TIP3   OH270068   4.565   5.406   1.309  0.5169 -0.4731 -0.7694
16218TIP3    H170069   4.604   5.493   1.308 -1.8210  0.6347  0.0072
16218TIP3    H270070   4.479   5.418   1.268  0.3622 -2.5096 -1.0836
16219TIP3   OH270071   3.188   5.330   2.738 -0.2163  0.2014  0.1353
16219TIP3    H170072   3.263   5.303   2.791 -0.4634 -0.0723  0.3447
16219TIP3    H270073   3.113   5.285   2.776 -0.5618  0.8239  0.2036
16220TIP3   OH270074   5.022   4.452   2.672 -0.5346 -0.5670  0.0108
16220TIP3    H170075   5.025   4.373   2.618 -0.8509 -0.6078  0.0525
16220TIP3    H270076   5.099   4.501   2.646  0.0839 -1.2513  0.5376
16221TIP3   OH270077   6.085   1.649   2.910  0.4231 -0.4882 -0.4627
16221TIP3    H170078   6.069   1.700   2.990  0.2846  0.1291 -0.8818
16221TIP3    H270079   6.003   1.654   2.862  0.0135 -2.1164  0.0507
16222TIP3   OH270080   2.988   6.549  12.487 -0.1628  0.5974  0.1450
16222TIP3    H170081   3.038   6.628  12.505  0.8559  0.1577 -0.7441
16222TIP3    H270082   3.041   6.478  12.523 -0.2943  0.1664 -0.5010
16223TIP3   OH270083   0.933   1.431  11.203 -0.2535  0.3395  0.5174
16223TIP3    H170084   0.959   1.339  11.207  0.1330  0.4670  1.0858
16223TIP3    H270085   0.920   1.456  11.295 -1.2720  0.5967  0.3080
16224TIP3   OH270086   0.867   3.375  14.866  0.2630 -0.6219  0.6665
16224TIP3    H170087   0.906   3.462  14.852  2.5293 -1.4484  1.5032
16224TIP3    H270088   0.778   3.393  14.894  1.0541  1.5002  1.9915
16225TIP3   OH270089   1.471   6.421  14.149  0.4664 -0.0341 -0.0390
16225TIP3    H170090   1.464   6.506  14.192 -0.5334 -0.0089 -0.2345
16225TIP3    H270091   1.461   6.441  14.056  1.2865 -0.2461 -0.1763
16226TIP3   OH270092   1.957   2.359   5.820 -0.0996  0.1160  0.4524
16226TIP3    H170093   1.884   2.300   5.837  0.2497  0.0290  1.7510
16226TIP3    H270094   1.949   2.383   5.728 -0.1445 -2.0828 -0.1264
16227TIP3   OH270095   2.398   1.055  11.248  0.2472  0.1028 -0.0193
16227TIP3    H170096   2.432   0.973  11.214 -1.4656 -0.4504 -0.4421
16227TIP3    H270097   2.473   1.096  11.292  1.1716 -1.5538 -0.0164
16228TIP3   OH270098   1.782   3.274  12.463  0.6946  0.2667  0.0623
16228TIP3    H170099   1.799   3.353  12.514 -0.5515  0.6497 -0.1029
16228TIP3    H270100   1.789   3.303  12.372  0.0263  0.2287  0.0014
16229TIP3   OH270101   1.542   2.785  13.580  0.1039  1.0260 -0.6387
16229TIP3    H170102   1.619   2.842  13.583 -0.3187  1.5562  0.4264
16229TIP3    H270103   1.488   2.814  13.653 -0.6248 -0.0363 -0.7447
16230TIP3   OH270104   1.658   5.615  12.655 -0.2437  0.2313 -0.0576
16230TIP3    H170105   1.612   5.661  12.585  0.0194 -0.8348 -0.9464
16230TIP3    H270106   1.750   5.618  12.629 -0.1893 -0.5100  0.0319
16231TIP3   OH270107   0.700   0.866  11.804  0.5722 -0.0339 -0.0936
16231TIP3    H170108   0.617   0.820  11.816 -0.3685  1.8992  0.9453
16231TIP3    H270109   0.680   0.958  11.821  2.6169  0.6698 -1.2520
16232TIP3   OH270110   4.389   2.778  16.585 -0.2122  0.1687 -0.0622
16232TIP3    H170111   4.426   2.771  16.673 -0.3413 -2.5646 -0.1955
16232TIP3    H270112   4.294   2.776  16.599 -0.2243 -1.2186 -0.3254
16233TIP3   OH270113   5.432   0.176  11.929  0.0879 -0.4630  0.2010
16233TIP3    H170114   5.413   0.178  11.836  0.7500  0.2450  0.0753
16233TIP3    H270115   5.383   0.100  11.962 -0.4367 -0.5029 -0.6495
16234TIP3   OH270116   0.832   6.712   4.443  0.1709  0.0998 -0.0515
16234TIP3    H170117   0.878   6.793   4.420  3.3594 -0.9211  2.4347
16234TIP3    H270118   0.849   6.653   4.370  0.3488  0.6578 -0.4679
16235TIP3   OH270119   1.341   5.660   3.973  0.1482  0.0278  0.4743
16235TIP3    H170120   1.431   5.644   3.944 -0.0469 -1.0742  0.4763
16235TIP3    H270121   1.351   5.704   4.057  0.7135  2.9071 -1.0223
16236TIP3   OH270122   5.183   0.233   5.121  0.0770 -0.1904 -0.5592
16236TIP3    H170123   5.144   0.245   5.207  1.0483 -1.3029  0.0716
16236TIP3    H270124   5.268   0.191   5.140  1.2510  1.5266 -1.9092
16237TIP3   OH270125   3.634   5.857  10.672 -0.0730 -0.3761 -0.6347
16237TIP3    H170126   3.709   5.819  10.719 -0.8680 -1.1862  0.0047
16237TIP3    H270127   3.583   5.901  10.739 -0.8372 -0.9131 -0.8567
16238TIP3   OH270128   4.684   2.369   0.861  0.7583 -0.0625 -0.3036
16238TIP3    H170129   4.703   2.319   0.781  0.2984 -2.6252  1.1235
16238TIP3    H270130   4.707   2.309   0.932  2.4285  2.6619  1.5197
16239TIP3   OH270131   2.415   5.661   2.102  0.1830  0.2250 -0.6070
16239TIP3    H170132   2.400   5.636   2.011  3.1026  1.5838 -1.5420
16239TIP3    H270133   2.341   5.716   2.125  0.2266  1.2050 -2.7250
16240TIP3   OH270134   1.596   3.716  11.198 -0.1814  0.7125  0.5691
16240TIP3    H170135   1.618   3.785  11.260  0.4196  1.5875 -0.6103
16240TIP3    H270136   1.555   3.762  11.125  0.8247 -0.1057 -0.5198
16241TIP3   OH270137   0.449   3.777   5.399 -0.7084  0.2824 -0.1584
16241TIP3    H170138   0.431   3.864   5.363  1.3458  0.2238 -1.4266
16241TIP3    H270139   0.476   3.725   5.324  1.8904 -0.3682  1.1662
16242TIP3   OH270140   4.117   3.198   4.837  0.4629 -0.2163  0.3071
16242TIP3    H170141   4.086   3.109   4.853 -0.0497 -0.2368 -0.7211
16242TIP3    H270142   4.067   3.252   4.899 -2.0822 -0.1909 -1.6757
16243TIP3   OH270143   5.212   1.155   3.649  0.6210  0.2011 -0.0883
16243TIP3    H170144   5.291   1.198   3.681  1.7263 -1.7453 -0.1110
16243TIP3    H270145   5.167   1.126   3.728  0.4050  0.4741 -0.1100
16244TIP3   OH270146   4.535   4.570   4.386 -0.2106 -0.4220 -0.3234
16244TIP3    H170147   4.486   4.492   4.360 -2.1749  0.3334  1.0181
16244TIP3    H270148   4.499   4.594   4.471  1.2974  1.1807 -0.1072
16245TIP3   OH270149   4.381   0.514   4.483  0.7198 -0.0295  0.4463
16245TIP3    H170150   4.399   0.423   4.505  1.0285  0.0061  0.3431
16245TIP3    H270151   4.328   0.546   4.556 -0.9785 -0.8167 -0.4254
16246TIP3   OH270152   4.548   0.676   6.686  0.5890 -0.1938 -0.1507
16246TIP3    H170153   4.623   0.619   6.672  0.6164 -0.8089  2.2731
16246TIP3    H270154   4.584   0.752   6.733 -0.0186  0.3046 -0.4773
16247TIP3   OH270155   0.771   5.336   2.397 -0.6279 -0.1799 -0.4009
16247TIP3    H170156   0.782   5.243   2.380  0.3111 -0.1165 -0.1285
16247TIP3    H270157   0.775   5.344   2.493 -0.2033  0.2055 -0.4483
16248TIP3   OH270158   3.957   2.287   1.318  0.5962 -0.0793 -0.9687
16248TIP3    H170159   3.957   2.195   1.294  1.2677 -0.2939 -0.1859
16248TIP3    H270160   4.011   2.330   1.252  0.2569 -0.2354 -1.3496
16249TIP3   OH270161   4.540   4.478  14.681 -0.1941  0.2126  0.1417
16249TIP3    H170162   4.538   4.566  14.642  1.2184  1.0332  1.8251
16249TIP3    H270163   4.474   4.428  14.632 -1.1288  2.2481 -0.7364
16250TIP3   OH270164   4.291   5.825   1.048 -0.1080  0.1917  0.0372
16250TIP3    H170165   4.254   5.907   1.017  1.5111  0.7366 -0.5352
16250TIP3    H270166   4.254   5.759   0.990 -3.0146  0.2196  1.7825
16251TIP3   OH270167   4.448   1.074  14.097  0.5876  0.0841  0.1646
16251TIP3    H170168   4.429   1.164  14.072 -1.1106 -0.3928 -0.3190
16251TIP3    H270169   4.441   1.073  14.192  0.5888  0.4439  0.1678
16252TIP3   OH270170   3.534   5.057  14.448 -0.2216 -0.3672 -0.2706
16252TIP3    H170171   3.611   5.051  14.390 -0.2093 -0.5731 -0.2361
16252TIP3    H270172   3.498   5.144  14.431 -0.0636 -0.3241 -0.3941
16253TIP3   OH270173   1.939   0.409   1.265 -0.9102 -0.4774  0.3852
16253TIP3    H170174   2.021   0.434   1.221  0.4468 -0.6284  2.7748
16253TIP3    H270175   1.920   0.321   1.232 -0.0997 -0.4436 -0.1838
16254TIP3   OH270176   4.806   3.004  12.212  0.2868  0.1981  0.3206
16254TIP3    H170177   4.752   2.964  12.143  0.1385  0.9130  0.0199
16254TIP3    H270178   4.893   2.967  12.198 -0.0726 -0.8042  0.6811
16255TIP3   OH270179   6.497   4.584  16.150 -0.2729  0.1793 -0.3518
16255TIP3    H170180   6.441   4.610  16.223 -1.3039 -0.5671 -0.8610
16255TIP3    H270181   6.564   4.529  16.190  2.1026  3.7309  0.7877
16256TIP3   OH270182   6.411   3.102   0.863  0.0552 -0.4687  0.3930
16256TIP3    H170183   6.419   3.011   0.893  2.4144  0.3815  2.6246
16256TIP3    H270184   6.498   3.139   0.878 -0.3372  1.6562 -2.2973
16257TIP3   OH270185   4.301   0.743  14.011 -0.7609 -0.2894 -0.1092
16257TIP3    H170186   4.341   0.729  14.097 -0.3213 -1.4504 -0.4958
16257TIP3    H270187   4.292   0.655  13.974 -2.6097  0.0506 -0.5157
16258TIP3   OH270188   0.049   6.009   1.450  0.5146  0.3299 -0.2884
16258TIP3    H170189   0.105   5.949   1.401 -0.3567 -0.5452 -0.2345
16258TIP3    H270190   0.060   6.093   1.407  1.4946  0.0613 -0.5768
16259TIP3   OH270191   4.227   4.879   1.039  0.9454  0.2761  0.0498
16259TIP3    H170192   4.258   4.789   1.049  1.6441  0.4962 -0.1102
16259TIP3    H270193   4.297   4.924   0.992 -0.9329  0.0344 -3.1398
16260TIP3   OH270194   4.613   1.022   3.355  0.4099  0.6008 -0.0448
16260TIP3    H170195   4.522   1.031   3.326 -0.1594 -2.1445  0.7965
16260TIP3    H270196   4.665   1.042   3.277 -0.9477  0.3731 -1.0241
16261TIP3   OH270197   4.855   2.656   0.748  0.0302  0.1980 -0.0417
16261TIP3    H170198   4.765   2.673   0.720 -0.2391  0.8360  1.2151
16261TIP3    H270199   4.905   2.730   0.714 -0.0418  0.2172 -0.1064
16262TIP3   OH270200   4.424   0.085   0.881 -0.5071  0.0403  0.7804
16262TIP3    H170201   4.503   0.082   0.936  2.0440 -0.8179 -2.7458
16262TIP3    H270202   4.452   0.130   0.802 -3.5421 -0.4729 -0.6356
16263TIP3   OH270203   6.380   3.952   1.853 -0.2953  0.3096 -0.1419
16263TIP3    H170204   6.356   3.968   1.762 -0.3976 -2.3626 -0.6370
16263TIP3    H270205   6.317   3.886   1.883  2.1313 -1.7327  0.6529
16264TIP3   OH270206   0.785   0.693   2.709  0.0665 -0.0403 -0.2554
16264TIP3    H170207   0.786   0.636   2.632 -0.7908 -0.3905 -0.0100
16264TIP3    H270208   0.872   0.681   2.748  0.2726 -0.3605 -0.8046
16265TIP3   OH270209   6.646   4.761  15.984  0.4635 -0.2542  0.3733
16265TIP3    H170210   6.699   4.759  16.063 -0.0547 -1.1074  0.7129
16265TIP3    H270211   6.569   4.708  16.006 -1.9026  3.2257  0.8784
16266TIP3   OH270212   0.869   4.610   4.190 -0.2030 -0.0831 -0.0400
16266TIP3    H170213   0.830   4.697   4.195  0.1708  0.0974 -0.3065
16266TIP3    H270214   0.904   4.604   4.102  2.8993  0.8285  1.0567
16267TIP3   OH270215   0.409   6.555   1.607  0.3098  0.0438  0.3228
16267TIP3    H170216   0.342   6.524   1.669 -0.5507  0.4574 -0.3838
16267TIP3    H270217   0.479   6.489   1.612 -0.4296 -0.7298  0.6224
16268TIP3   OH270218   5.080   5.893   1.834  0.1413 -0.0815 -0.1315
16268TIP3    H170219   5.022   5.828   1.873  2.0255 -2.4406 -1.1239
16268TIP3    H270220   5.109   5.946   1.907 -0.8219 -0.8457  0.8203
16269TIP3   OH270221   4.236   6.220  12.163 -0.1110 -0.2023 -0.8587
16269TIP3    H170222   4.169   6.268  12.211  1.7534  0.6974  0.9484
16269TIP3    H270223   4.242   6.135  12.207  0.1429 -0.1557 -0.7984
16270TIP3   OH270224   4.035   1.960  13.794  0.0821  0.2392  0.4386
16270TIP3    H170225   4.006   1.990  13.708 -1.2958  1.1639  1.2123
16270TIP3    H270226   3.978   2.005  13.856  1.4549  0.0559  1.8770
16271TIP3   OH270227   1.923   1.583   4.979 -0.1857 -1.1330 -0.0371
16271TIP3    H170228   1.921   1.678   4.989  0.3792 -1.1401  0.1211
16271TIP3    H270229   1.865   1.566   4.904 -0.3654 -0.6750 -0.0016
16272TIP3   OH270230   2.725   4.976   5.205  0.0427 -1.2365 -0.2196
16272TIP3    H170231   2.704   4.891   5.245 -0.6108 -1.0483 -0.1578
16272TIP3    H270232   2.647   4.997   5.154  0.6646 -1.2338 -1.1847
16273TIP3   OH270233   0.969   4.382   5.204 -0.2574  0.2948  0.2311
16273TIP3    H170234   1.051   4.341   5.230 -0.2115  1.3318  1.7680
16273TIP3    H270235   0.901   4.335   5.254 -0.4126  0.6708  0.3753
16274TIP3   OH270236   6.195   4.712   1.044 -0.1388  0.5325  0.1060
16274TIP3    H170237   6.280   4.746   1.016 -0.3381  1.4322  0.5786
16274TIP3    H270238   6.216   4.655   1.118  0.1896 -0.3683 -0.6606
16275TIP3   OH270239   5.485   3.987   3.196 -0.1276  0.4601  0.0369
16275TIP3    H170240   5.570   3.978   3.239 -0.3591 -2.3075 -0.0243
16275TIP3    H270241   5.489   3.928   3.122 -1.1304  2.3785 -1.5949
16276TIP3   OH270242   6.192   0.767   5.514  0.1785  0.4900  0.0147
16276TIP3    H170243   6.136   0.824   5.463 -0.3121 -0.5866 -0.6595
16276TIP3    H270244   6.132   0.707   5.559  0.7986 -1.8347 -2.1074
16277TIP3   OH270245   3.459   4.310  12.564  0.0344  0.5377 -0.3939
16277TIP3    H170246   3.539   4.263  12.588 -0.4473  0.3939  1.0041
16277TIP3    H270247   3.449   4.294  12.470  1.4969  0.3399 -0.5270
16278TIP3   OH270248   5.992   5.996  12.700  0.0985 -0.3254  0.4893
16278TIP3    H170249   6.063   6.016  12.639 -1.4128 -0.5959 -1.4492
16278TIP3    H270250   6.000   5.902  12.717 -0.5625 -0.6264 -0.7896
16279TIP3   OH270251   5.673   4.704  11.549  0.5466  0.2098 -0.2822
16279TIP3    H170252   5.723   4.779  11.583  0.5848  0.1598 -0.2293
16279TIP3    H270253   5.739   4.647  11.509  0.8056 -0.8777  1.6455
16280TIP3   OH270254   0.281   4.432   2.527 -0.4645  0.0172 -0.5681
16280TIP3    H170255   0.330   4.350   2.530  2.4849  1.7458 -0.3762
16280TIP3    H270256   0.257   4.449   2.619 -3.6425 -2.0328 -0.9139
16281TIP3   OH270257   2.404   1.187  15.092  0.0494  0.3994 -0.4952
16281TIP3    H170258   2.324   1.228  15.060  0.5637 -0.1144 -2.5585
16281TIP3    H270259   2.411   1.105  15.042  1.6720  0.2829 -0.1162
16282TIP3   OH270260   1.055   2.843   5.068 -0.1957 -0.1106  0.0257
16282TIP3    H170261   1.107   2.841   4.987  0.6793 -0.2817  0.5913
16282TIP3    H270262   0.965   2.826   5.039  0.5603 -3.4126 -0.5415
16283TIP3   OH270263   4.449   0.250   4.482 -0.1515 -0.0234  0.0281
16283TIP3    H170264   4.485   0.243   4.394 -1.4975 -0.2132 -0.5052
16283TIP3    H270265   4.431   0.159   4.508  0.1675  0.0360  0.4752
16284TIP3   OH270266   5.982   3.517   3.419 -0.2359  0.5450  0.3224
16284TIP3    H170267   5.963   3.608   3.443 -0.0993  0.7251 -0.2367
16284TIP3    H270268   6.077   3.512   3.418 -0.2431  0.4478  0.1630
16285TIP3   OH270269   0.612   3.485  14.996 -0.1172  0.0936  0.7145
16285TIP3    H170270   0.577   3.560  14.947 -0.2044 -0.9586 -0.8765
16285TIP3    H270271   0.629   3.519  15.083 -0.4628  1.8916  0.1002
16286TIP3   OH270272   1.929   6.241   3.338  0.1863 -0.2429 -0.1262
16286TIP3    H170273   2.017   6.252   3.301 -0.0715  1.0737 -0.3864
16286TIP3    H270274   1.941   6.255   3.432  0.0890  1.0894 -0.2930
16287TIP3   OH270275   6.668   1.765  13.053 -0.0048  0.2672  0.1021
16287TIP3    H170276   6.651   1.859  13.054  0.2271  0.5305 -5.2088
16287TIP3    H270277   6.739   1.753  13.117 -0.2607  3.6048  1.1209
16288TIP3   OH270278   2.404   0.829   5.798 -0.5214 -0.1111  0.1499
16288TIP3    H170279   2.422   0.767   5.727 -1.4387 -0.6306  0.3594
16288TIP3    H270280   2.411   0.776   5.877  2.1313  0.8114  0.5966
16289TIP3   OH270281   5.188   0.662   4.828 -0.0843 -0.1362  0.1664
16289TIP3    H170282   5.164   0.570   4.833 -1.8771  0.3100  0.1032
16289TIP3    H270283   5.269   0.669   4.878 -0.6644 -1.4950  1.3121
16290TIP3   OH270284   0.027   6.529   0.553  0.2342  0.0964  0.1025
16290TIP3    H170285  -0.021   6.495   0.629  0.5056 -0.6192 -0.0429
16290TIP3    H270286   0.049   6.451   0.502  0.3901  0.5434 -0.5150
16291TIP3   OH270287   2.484   2.072  10.929  0.1590 -0.2923  0.5851
16291TIP3    H170288   2.448   2.128  10.998  0.7148  0.7596  0.0368
16291TIP3    H270289   2.578   2.090  10.931  0.5137 -2.1267  1.2162
16292TIP3   OH270290   0.684   0.267  12.523 -0.4016  0.1102  0.7201
16292TIP3    H170291   0.775   0.239  12.515 -0.1391  1.1068  0.1192
16292TIP3    H270292   0.666   0.264  12.617  0.5190  0.7184  0.9190
16293TIP3   OH270293   2.634   4.738  17.236 -0.4873 -0.1593  0.3121
16293TIP3    H170294   2.619   4.822  17.194 -0.8885  1.0989  2.8530
16293TIP3    H270295   2.729   4.725  17.230 -0.4669  0.3063 -0.3997
16294TIP3   OH270296   2.041   3.709  17.062  0.0879 -0.0439  0.0364
16294TIP3    H170297   2.052   3.649  17.136  0.6487  0.1469  0.1107
16294TIP3    H270298   2.124   3.703  17.014 -0.5698 -0.7921 -1.0491
16295TIP3   OH270299   3.560   2.912  10.762 -0.3904  0.0240 -0.2592
16295TIP3    H170300   3.481   2.944  10.805  0.6060  1.9180  0.2164
16295TIP3    H270301   3.567   2.965  10.682  0.1211 -0.4904 -0.5603
16296TIP3   OH270302   1.703   5.233  15.276 -0.2841  0.0035  0.6754
16296TIP3    H170303   1.730   5.324  15.284  0.7637 -0.2245 -0.1767
16296TIP3    H270304   1.766   5.184  15.329 -0.4793 -0.2881  0.6419
16297TIP3   OH270305   6.743   5.624  10.125 -0.2438  0.6763 -0.3793
16297TIP3    H170306   6.669   5.681  10.107  0.0698  1.0773 -0.4099
16297TIP3    H270307   6.710   5.561  10.189 -1.1520 -0.3254 -1.8289
16298TIP3   OH270308   2.772   4.138  16.618  0.0042  0.2397 -0.2886
16298TIP3    H170309   2.722   4.219  16.605 -0.8579 -0.1032  0.7732
16298TIP3    H270310   2.834   4.160  16.688 -0.2602 -0.0224  0.0316
16299TIP3   OH270311   4.302   5.564  14.568 -0.0694 -0.4078 -0.1388
16299TIP3    H170312   4.350   5.515  14.502 -0.5671  0.5227 -1.1977
16299TIP3    H270313   4.231   5.506  14.595 -0.9044 -0.1274 -1.6873
16300TIP3   OH270314   1.049   0.286   3.179 -0.0473  0.8179  0.2946
16300TIP3    H170315   1.020   0.256   3.093  1.2724 -2.0735  0.8031
16300TIP3    H270316   1.096   0.367   3.161  0.9243 -0.1709 -1.8220
16301TIP3   OH270317   5.687   3.037  13.660  0.1564 -0.0753  0.6321
16301TIP3    H170318   5.672   3.063  13.751 -2.2470  2.5987 -0.4414
16301TIP3    H270319   5.727   3.114  13.619 -1.9597  0.0591 -1.3369
16302TIP3   OH270320   0.880   4.230  10.672  0.0879 -0.0522 -0.3320
16302TIP3    H170321   0.857   4.253  10.582 -0.1627 -0.6809 -0.4277
16302TIP3    H270322   0.909   4.139  10.667  0.2000 -0.0477  0.2049
16303TIP3   OH270323   1.118   4.224   2.327 -0.7007 -0.0308  0.0726
16303TIP3    H170324   1.107   4.306   2.374  0.2536 -0.6691  1.4538
16303TIP3    H270325   1.177   4.246   2.254 -1.5063  0.7842 -0.3379
16304TIP3   OH270326   1.817   2.182   3.152 -0.5702  0.2479 -0.1901
16304TIP3    H170327   1.905   2.207   3.177 -1.0613  0.8986  0.9283
16304TIP3    H270328   1.828   2.106   3.095  0.7924  1.4032 -1.4894
16305TIP3   OH270329   5.518   4.003  11.176  0.3373 -0.6680  0.1773
16305TIP3    H170330   5.498   3.962  11.260  0.0417  0.3775  0.6259
16305TIP3    H270331   5.612   4.020  11.178  0.2389 -0.1485  0.5278
16306TIP3   OH270332   1.830   3.360  13.474  0.5260 -0.3363 -0.4929
16306TIP3    H170333   1.850   3.324  13.561  0.3237 -1.1552 -0.7800
16306TIP3    H270334   1.777   3.292  13.432  2.0399 -0.6938 -1.8706
16307TIP3   OH270335   0.777   0.088  12.215  1.0410  0.0934  0.2695
16307TIP3    H170336   0.762   0.008  12.164 -1.2576  0.7684 -0.1967
16307TIP3    H270337   0.689   0.126  12.224  1.8079  1.3804  2.4285
16308TIP3   OH270338   6.261   3.640  15.692  0.1039  0.0560 -0.1839
16308TIP3    H170339   6.245   3.636  15.598  0.5043  0.7791 -0.2865
16308TIP3    H270340   6.353   3.667  15.700  0.5350 -1.5115  0.4110
16309TIP3   OH270341   5.196   6.360  16.662 -0.1361 -0.5586 -0.3638
16309TIP3    H170342   5.208   6.380  16.569  2.1655  2.4881  0.4815
16309TIP3    H270343   5.284   6.343  16.694 -1.0175 -2.5446  1.0769
16310TIP3   OH270344   2.141   0.637   3.942  0.3564 -0.6098  0.2551
16310TIP3    H170345   2.206   0.567   3.934  0.1612 -0.6264 -1.2340
16310TIP3    H270346   2.126   0.644   4.036  1.7294 -1.3260  0.5428
16311TIP3   OH270347   4.613   4.931   0.961 -0.0723  1.0340 -0.1917
16311TIP3    H170348   4.683   4.874   0.991  0.2800  1.3821 -0.3503
16311TIP3    H270349   4.598   4.992   1.034 -0.8087  0.4082  0.1838
16312TIP3   OH270350   0.783   2.725   6.003 -0.0044 -0.3426  0.2110
16312TIP3    H170351   0.707   2.725   5.945 -0.7429  0.4195  1.1491
16312TIP3    H270352   0.751   2.763   6.085  1.2662 -0.4701  0.7902
16313TIP3   OH270353   1.651   5.658   4.209  0.0053 -0.4286 -0.2675
16313TIP3    H170354   1.614   5.586   4.158  1.0066 -1.9396  1.0822
16313TIP3    H270355   1.739   5.670   4.174  0.1497 -0.4464  0.0895
16314TIP3   OH270356   0.528   1.130   0.992 -0.1226  0.1574  0.3058
16314TIP3    H170357   0.543   1.172   1.077 -0.4447  0.2461  0.3194
16314TIP3    H270358   0.500   1.201   0.934  0.1000  0.0979  0.1219
16315TIP3   OH270359   4.791   0.930  12.806 -0.2224 -0.1494  0.0936
16315TIP3    H170360   4.774   1.003  12.865 -0.8372  1.2739 -1.7761
16315TIP3    H270361   4.789   0.852  12.861 -1.6637  1.0601  1.7647
16316TIP3   OH270362   4.274   5.509   2.976 -0.1165  0.3805  0.1457
16316TIP3    H170363   4.368   5.497   2.967 -0.2304 -0.2394 -0.2949
16316TIP3    H270364   4.241   5.422   2.999 -0.4854  0.7712  1.1024
16317TIP3   OH270365   3.597   3.421   3.288  0.2603 -0.2551 -0.2686
16317TIP3    H170366   3.558   3.342   3.252 -2.7625 -0.2101  2.7319
16317TIP3    H270367   3.670   3.390   3.342  1.2330 -0.7129 -1.8256
16318TIP3   OH270368   4.760   5.128   4.079 -0.1438 -0.1992  0.1483
16318TIP3    H170369   4.781   5.221   4.069 -1.6972  0.1662  0.2217
16318TIP3    H270370   4.767   5.093   3.990  0.1053  0.0607  0.0645
16319TIP3   OH270371   4.910   3.118  11.330  0.5259 -0.5015  0.0886
16319TIP3    H170372   4.946   3.093  11.245  1.0137  0.1705  0.0975
16319TIP3    H270373   4.895   3.035  11.376  0.4365 -0.8551 -0.5793
16320TIP3   OH270374   0.363   3.326  11.615  0.5311 -0.9093 -0.0846
16320TIP3    H170375   0.449   3.285  11.628  0.3300 -1.8429 -1.5998
16320TIP3    H270376   0.309   3.256  11.577  0.0858  0.6472 -2.3735
16321TIP3   OH270377   5.592   4.557   1.756 -0.6357  1.2295 -0.3645
16321TIP3    H170378   5.555   4.473   1.731  1.0255  0.6389 -0.8875
16321TIP3    H270379   5.617   4.547   1.848  2.8466 -0.0752 -1.3834
16322TIP3   OH270380   2.751   0.165   4.360  0.3077  0.0860 -0.3954
16322TIP3    H170381   2.768   0.181   4.453 -0.3748 -1.2403 -0.0208
16322TIP3    H270382   2.833   0.125   4.328  0.3618  0.0672 -0.2356
16323TIP3   OH270383   4.148   3.510   3.303  0.4846  0.0014  0.3101
16323TIP3    H170384   4.070   3.457   3.317  0.6215 -0.2943 -0.0290
16323TIP3    H270385   4.117   3.601   3.309  0.4558 -0.0987  2.0459
16324TIP3   OH270386   0.476   5.943  15.654 -0.0589  0.2707 -0.4218
16324TIP3    H170387   0.421   5.906  15.584 -0.0191 -0.5825 -0.0091
16324TIP3    H270388   0.417   5.948  15.729 -0.5399  2.6191 -0.8966
16325TIP3   OH270389   1.260   4.341  10.885  0.1378  0.6624  0.0472
16325TIP3    H170390   1.305   4.352  10.969 -0.5937  1.1417  0.3765
16325TIP3    H270391   1.249   4.430  10.851 -1.3953  0.6392  0.4176
16326TIP3   OH270392   4.467   6.704  13.284 -0.2454  0.1595 -0.7034
16326TIP3    H170393   4.415   6.672  13.210 -0.0822 -1.2496 -0.2264
16326TIP3    H270394   4.557   6.705  13.251 -0.3244  0.7124 -0.9089
16327TIP3   OH270395   2.996   1.312  15.163  0.1432  0.1151 -0.2722
16327TIP3    H170396   3.004   1.363  15.244 -2.0496  3.0704 -1.7876
16327TIP3    H270397   2.951   1.232  15.190  0.1338  0.6941  1.5527
16328TIP3   OH270398   3.708   3.059  14.920  0.0595  0.1242  0.4698
16328TIP3    H170399   3.672   2.971  14.908  2.0312 -1.2668  4.1479
16328TIP3    H270400   3.639   3.107  14.967  0.3064 -0.4488  1.4100
16329TIP3   OH270401   6.284   3.780   4.973  0.1383 -0.6598  0.1230
16329TIP3    H170402   6.309   3.689   4.961  1.7309 -0.2474  0.1650
16329TIP3    H270403   6.340   3.811   5.044 -0.2413  0.4011 -0.0254
16330TIP3   OH270404   2.859   3.922   3.439 -0.3844 -0.6119  0.7937
16330TIP3    H170405   2.872   3.942   3.347  0.3688  1.2678  1.2985
16330TIP3    H270406   2.772   3.956   3.459  0.0621  0.3505  1.1375
16331TIP3   OH270407   6.549   3.768  12.085 -0.4827 -0.3460  0.4178
16331TIP3    H170408   6.577   3.775  12.176  0.3714 -2.1615  0.3306
16331TIP3    H270409   6.467   3.719  12.088  0.0245 -1.2227  0.1560
16332TIP3   OH270410   0.235   1.457  16.290 -0.1209  0.3105 -0.6042
16332TIP3    H170411   0.226   1.490  16.380  1.7806 -2.6691  0.7998
16332TIP3    H270412   0.275   1.529  16.242 -1.2272  1.9881  0.9337
16333TIP3   OH270413   5.891   3.082   5.756  0.0927 -0.6955  0.1343
16333TIP3    H170414   5.795   3.081   5.759  0.1274 -1.3960  1.4489
16333TIP3    H270415   5.912   3.099   5.664 -1.2911 -0.5241 -0.1617
16334TIP3   OH270416   0.536   0.851   1.292  0.0199 -0.1233  0.2042
16334TIP3    H170417   0.477   0.890   1.227 -0.9365 -3.7799 -1.2816
16334TIP3    H270418   0.523   0.903   1.371 -1.7987  1.9603 -1.4081
16335TIP3   OH270419   5.641   3.608   4.664  0.1557  0.0086  0.1670
16335TIP3    H170420   5.590   3.605   4.745  0.4178  0.1104  0.3364
16335TIP3    H270421   5.585   3.566   4.599  0.4967 -1.2796  0.6996
16336TIP3   OH270422   4.490   3.812   2.283  0.2715 -0.3242  0.0094
16336TIP3    H170423   4.461   3.725   2.256 -2.4076 -0.4947  3.1727
16336TIP3    H270424   4.562   3.795   2.344 -0.2508 -0.3582  0.6259
16337TIP3   OH270425   5.092   6.585   0.745 -0.1598  0.1959  0.0347
16337TIP3    H170426   5.180   6.588   0.708 -0.5983  3.6888 -0.8434
16337TIP3    H270427   5.105   6.549   0.833  2.0070 -0.0724 -0.3516
16338TIP3   OH270428   0.812   3.677   1.847 -0.2579  0.2586  0.0157
16338TIP3    H170429   0.848   3.644   1.930  0.0825  1.1085  0.2122
16338TIP3    H270430   0.885   3.672   1.786 -0.1736  0.7490  0.0753
16339TIP3   OH270431   4.889   6.313   4.771 -0.4078  0.5587 -0.2572
16339TIP3    H170432   4.820   6.359   4.819  0.8743  0.9635  1.2184
16339TIP3    H270433   4.937   6.264   4.838  0.2254 -0.3810 -1.3814
16340TIP3   OH270434   0.380   4.256  14.426  0.5024  0.2708 -0.2312
16340TIP3    H170435   0.450   4.306  14.385  0.9006  1.1118  1.4599
16340TIP3    H270436   0.407   4.164  14.415  2.3665  0.6069  1.2364
16341TIP3   OH270437   1.928   2.429  13.420  0.1119 -0.5334  0.8338
16341TIP3    H170438   1.996   2.447  13.355 -1.0430 -1.0754 -0.5464
16341TIP3    H270439   1.928   2.334  13.430 -1.9003 -0.7446 -0.8142
16342TIP3   OH270440   2.106   2.990   6.012 -0.6024  0.2208 -0.1906
16342TIP3    H170441   2.052   2.978   6.090  1.0771  0.5841  1.0413
16342TIP3    H270442   2.193   3.010   6.045  0.1265  0.4496 -2.1628
16343TIP3   OH270443   4.605   6.415  11.723 -0.2529  0.3667  0.4477
16343TIP3    H170444   4.621   6.408  11.628  0.7910  2.1850  0.4814
16343TIP3    H270445   4.511   6.434  11.730 -0.4502 -0.3097 -0.1738
16344TIP3   OH270446   1.949   4.813   1.998  0.1777  0.2206 -0.4260
16344TIP3    H170447   1.855   4.813   2.014  0.2431 -0.4860 -0.0121
16344TIP3    H270448   1.974   4.720   2.002  0.9167  0.4198 -0.3588
16345TIP3   OH270449   5.735   3.174  16.880  0.1882  0.3436  0.1602
16345TIP3    H170450   5.692   3.253  16.913 -0.4603 -0.0107  0.1582
16345TIP3    H270451   5.829   3.191  16.894  0.0190  0.8761  0.6837
16346TIP3   OH270452   6.507   0.717  14.806 -0.3671  0.0158  0.1837
16346TIP3    H170453   6.565   0.670  14.867  1.2195  1.0326 -0.5197
16346TIP3    H270454   6.422   0.719  14.851 -0.2974 -2.8934  0.5335
16347TIP3   OH270455   3.800   5.606   2.629  1.0813 -0.1696 -0.0672
16347TIP3    H170456   3.773   5.540   2.565  1.2038 -0.5934  0.3164
16347TIP3    H270457   3.781   5.690   2.586  1.6426 -0.4453 -0.8616
16348TIP3   OH270458   4.804   0.253   2.363  0.9728  0.2920  0.1388
16348TIP3    H170459   4.713   0.232   2.347  1.3808 -0.6215 -1.0104
16348TIP3    H270460   4.801   0.331   2.419 -0.4981 -0.5599  1.2650
16349TIP3   OH270461   3.442   5.422  13.013 -0.2631  0.1361 -0.1047
16349TIP3    H170462   3.489   5.372  13.080  0.6432 -0.2296 -1.0012
16349TIP3    H270463   3.477   5.390  12.930 -1.2233  0.7396 -0.7523
16350TIP3   OH270464   4.871   2.091  17.149  0.1391 -0.6273  0.9105
16350TIP3    H170465   4.923   2.021  17.188 -1.1349 -0.4797  2.9446
16350TIP3    H270466   4.890   2.168  17.203  1.1759  0.5211 -1.0279
16351TIP3   OH270467   3.093   6.031  16.042  0.4572 -0.1850  0.1253
16351TIP3    H170468   3.091   6.117  16.082 -1.0534 -1.1352  2.2196
16351TIP3    H270469   3.019   6.031  15.981  1.2997  0.4425 -0.9164
16352TIP3   OH270470   2.535   2.739  14.798 -0.3757 -0.6172 -0.1035
16352TIP3    H170471   2.528   2.648  14.828 -0.4512 -1.0675 -1.4159
16352TIP3    H270472   2.459   2.750  14.739  0.0315  0.0658 -0.5044
16353TIP3   OH270473   1.748   0.017  14.405 -0.5154 -0.6018  0.4325
16353TIP3    H170474   1.682   0.062  14.458  0.0744  0.2502  0.4538
16353TIP3    H270475   1.699  -0.050  14.357 -1.6606  1.0003 -0.7010
16354TIP3   OH270476   5.998   1.009   4.671 -0.7913 -0.3809 -0.1547
16354TIP3    H170477   5.997   0.971   4.584 -1.9276  1.1641 -0.8366
16354TIP3    H270478   6.088   0.996   4.702 -0.7241 -2.0699 -1.0254
16355TIP3   OH270479   1.595   1.941   4.752  0.6444 -0.4039 -0.0692
16355TIP3    H170480   1.591   1.926   4.847 -0.1588  1.1864  0.1687
16355TIP3    H270481   1.516   1.900   4.718 -0.8889  2.0741  0.4146
16356TIP3   OH270482   0.242   5.460  13.358 -0.1076  0.1533  0.1299
16356TIP3    H170483   0.318   5.402  13.370  0.0916  0.2165 -0.7605
16356TIP3    H270484   0.242   5.479  13.264 -1.1391  0.2848  0.1595
16357TIP3   OH270485   5.976   1.375  15.592  0.0800 -0.1062 -0.1424
16357TIP3    H170486   5.943   1.328  15.515 -0.5122 -0.4373  0.3127
16357TIP3    H270487   5.900   1.385  15.649  1.0237 -2.0052  1.4953
16358TIP3   OH270488   5.757   6.373  12.073 -0.3674 -0.1897 -0.1495
16358TIP3    H170489   5.733   6.423  11.995  1.0654  1.4626  0.4170
16358TIP3    H270490   5.679   6.377  12.129 -0.7961  0.0983 -0.7624
16359TIP3   OH270491   3.613   3.059   6.513 -0.0224 -0.2867  0.1564
16359TIP3    H170492   3.577   2.988   6.567 -0.6893 -0.4333 -0.4834
16359TIP3    H270493   3.543   3.082   6.452  0.9400 -0.5466 -1.0747
16360TIP3   OH270494   3.484   5.600   4.118 -0.2213 -0.1577 -0.1437
16360TIP3    H170495   3.571   5.622   4.153 -0.4913 -0.9365  1.0173
16360TIP3    H270496   3.490   5.507   4.096 -0.5274 -0.0308 -0.7831
16361TIP3   OH270497   5.738   4.757   1.209  0.4801  0.5263 -0.2209
16361TIP3    H170498   5.738   4.752   1.114 -0.3332  0.9267 -0.2388
16361TIP3    H270499   5.774   4.672   1.237  0.6841  0.3938 -0.8733
16362TIP3   OH270500   0.085   1.321   1.490 -0.1357 -0.1143  0.4261
16362TIP3    H170501   0.090   1.396   1.549  0.6945 -0.0238  0.2421
16362TIP3    H270502   0.006   1.337   1.438  1.2429  1.8075 -1.1828
16363TIP3   OH270503   1.127   4.708   3.707 -0.1725  0.2393  0.0880
16363TIP3    H170504   1.035   4.716   3.734 -0.2126 -0.4442  0.1640
16363TIP3    H270505   1.144   4.786   3.655 -0.9641  0.0934 -0.3911
16364TIP3   OH270506   3.988   0.980   3.929  0.0644 -0.6766 -0.8969
16364TIP3    H170507   4.046   0.908   3.955 -1.1297 -1.9986 -1.7808
16364TIP3    H270508   3.944   1.006   4.010  1.1122 -0.3796 -0.4193
16365TIP3   OH270509   1.855   5.936  15.312  0.2294  0.4146  0.4228
16365TIP3    H170510   1.891   6.019  15.340  1.8640 -0.5271  1.2061
16365TIP3    H270511   1.911   5.909  15.238  1.1305 -1.0344  1.6066
16366TIP3   OH270512   4.940   3.321   1.619 -0.2375 -0.1577 -0.4015
16366TIP3    H170513   4.895   3.386   1.673  0.2794 -0.1750  0.0435
16366TIP3    H270514   4.869   3.267   1.584 -0.6821  0.6828 -0.8407
16367TIP3   OH270515   0.789   2.095  16.556  0.6361 -0.2155  0.0757
16367TIP3    H170516   0.839   2.095  16.474 -0.0090  0.0925 -0.3238
16367TIP3    H270517   0.812   2.012  16.598  1.2414 -0.2158 -0.2503
16368TIP3   OH270518   3.006   1.982  15.069  0.0195  0.1075 -0.2002
16368TIP3    H170519   2.920   1.963  15.108 -0.0075 -1.6138 -1.0362
16368TIP3    H270520   3.069   1.941  15.129  0.0992 -0.7684 -0.8755
16369TIP3   OH270521   5.250   2.808  16.813  0.1891  0.0217 -0.4287
16369TIP3    H170522   5.176   2.848  16.768 -0.9364  1.1422  2.3388
16369TIP3    H270523   5.285   2.877  16.868  1.1400 -1.4881  0.9006
16370TIP3   OH270524   2.598   1.861  13.071  0.3023 -0.6104 -0.5812
16370TIP3    H170525   2.635   1.825  12.991  0.5196  2.8220 -2.1372
16370TIP3    H270526   2.617   1.955  13.066  0.0248 -0.2334  3.3388
16371TIP3   OH270527   5.303   3.707  12.220 -0.0945 -0.1681 -0.5024
16371TIP3    H170528   5.279   3.759  12.143 -1.5550  1.2420  0.8646
16371TIP3    H270529   5.399   3.712  12.223 -0.1443  1.5967 -1.0073
16372TIP3   OH270530   3.102   2.248  12.432 -0.1142 -0.8402  0.0069
16372TIP3    H170531   3.181   2.281  12.474 -1.4516  0.2648  1.6989
16372TIP3    H270532   3.064   2.188  12.496 -0.3734 -1.8132 -1.0301
16373TIP3   OH270533   2.017   3.275  11.689 -0.6940 -0.7574 -0.3818
16373TIP3    H170534   1.929   3.261  11.723 -0.4657  0.1452  0.6224
16373TIP3    H270535   2.011   3.356  11.639 -0.5898 -1.0618 -0.8884
16374TIP3   OH270536   4.835   1.321   4.100  0.0596 -0.2989  0.4989
16374TIP3    H170537   4.861   1.250   4.157  0.1409 -1.3547 -0.8374
16374TIP3    H270538   4.908   1.383   4.103 -0.4192  0.1992  2.4017
16375TIP3   OH270539   2.871   0.172   0.457  0.3520  0.1058 -0.2997
16375TIP3    H170540   2.808   0.105   0.428  1.2790 -0.7915 -0.2840
16375TIP3    H270541   2.844   0.193   0.546 -0.0036 -0.1893 -0.3342
16376TIP3   OH270542   4.085   1.228   1.614 -0.3796 -0.6656  0.4461
16376TIP3    H170543   4.091   1.253   1.522 -0.0956  0.1310  0.6784
16376TIP3    H270544   4.025   1.292   1.653  0.7646 -0.0129  1.1553
16377TIP3   OH270545   3.920   1.706   5.892 -0.0719  0.1824 -0.2121
16377TIP3    H170546   3.996   1.678   5.944 -0.0866  1.0794  0.2993
16377TIP3    H270547   3.860   1.632   5.896  0.7265 -0.4948 -0.5311
16378TIP3   OH270548   1.523   1.369  15.571 -0.4026  0.1690 -0.4626
16378TIP3    H170549   1.504   1.434  15.503  0.3303  0.2245 -0.6248
16378TIP3    H270550   1.530   1.421  15.651  1.5400  0.4924 -0.8130
16379TIP3   OH270551   5.290   4.433   0.162 -0.0504 -0.5095 -0.1979
16379TIP3    H170552   5.239   4.354   0.180 -0.7368 -0.2312 -0.9205
16379TIP3    H270553   5.302   4.433   0.067  2.8414 -1.5174  0.1121
16380TIP3   OH270554   1.562   5.748  17.203 -0.3695 -0.1693  0.3712
16380TIP3    H170555   1.624   5.730  17.132  0.5021 -0.9859  1.3108
16380TIP3    H270556   1.489   5.688  17.187 -0.7396  0.5176 -0.5206
16381TIP3   OH270557   5.465   1.316   1.648 -0.2415  0.2448 -0.2379
16381TIP3    H170558   5.535   1.381   1.643 -0.7396  0.6862 -1.7054
16381TIP3    H270559   5.501   1.239   1.603 -0.8363  0.6077 -1.3439
16382TIP3   OH270560   4.531   5.379   2.865  0.4298  0.2305  0.0664
16382TIP3    H170561   4.626   5.391   2.875  0.0664  2.4984  1.2343
16382TIP3    H270562   4.507   5.441   2.796 -0.0683 -1.0573 -0.9319
16383TIP3   OH270563   1.720   6.306  13.498 -0.0320 -0.1862  0.4529
16383TIP3    H170564   1.736   6.400  13.487  0.3450 -0.2031  0.8557
16383TIP3    H270565   1.763   6.283  13.581 -0.9262 -0.5245  0.8272
16384TIP3   OH270566   0.694   6.240  16.801  0.4470 -0.0163  0.3283
16384TIP3    H170567   0.706   6.207  16.711 -0.3516  0.0846  0.1832
16384TIP3    H270568   0.769   6.297  16.815  1.0682 -0.7506  0.0542
16385TIP3   OH270569   0.890   0.271  15.303  0.0187 -0.3019  0.5528
16385TIP3    H170570   0.861   0.356  15.271 -1.8284 -0.9503  0.4116
16385TIP3    H270571   0.985   0.276  15.304  0.0151  0.8006 -2.0489
16386TIP3   OH270572   3.090   3.011   3.182  0.2120 -0.2406  0.4017
16386TIP3    H170573   3.175   2.974   3.205 -0.9921 -3.3410  0.1359
16386TIP3    H270574   3.095   3.025   3.087 -0.1036 -1.9656  0.1133
16387TIP3   OH270575   4.888   4.939   5.773  0.4932 -0.2255 -0.0099
16387TIP3    H170576   4.896   4.846   5.750  0.0758 -0.5695  1.2443
16387TIP3    H270577   4.798   4.961   5.752  0.5065 -0.1737 -0.0142
16388TIP3   OH270578   2.009   4.991  11.309  0.6052  0.4199  0.8883
16388TIP3    H170579   1.986   5.066  11.254 -1.4417 -0.2858  0.7654
16388TIP3    H270580   2.060   4.934  11.251  0.5099  0.8142  0.4149
16389TIP3   OH270581   6.588   4.937  13.947  0.3757 -0.5152 -0.7551
16389TIP3    H170582   6.660   4.881  13.977  0.4358 -0.1489 -0.2185
16389TIP3    H270583   6.542   4.962  14.027  0.2362  0.0543 -1.0140
16390TIP3   OH270584   2.365   0.149  12.433 -0.5072 -0.0561 -0.0530
16390TIP3    H170585   2.423   0.100  12.376 -1.0230 -0.1499 -0.4969
16390TIP3    H270586   2.342   0.088  12.503  1.0936  0.4318  0.9317
16391TIP3   OH270587   2.941   4.484  12.481 -0.2944  0.2799  0.5479
16391TIP3    H170588   3.024   4.478  12.527  1.2235  1.6710 -1.9170
16391TIP3    H270589   2.935   4.402  12.432 -1.5982 -0.9111  2.6268
16392TIP3   OH270590   4.041   2.729  15.067  0.2556 -0.8721 -1.0260
16392TIP3    H170591   4.116   2.761  15.117 -0.7049 -1.7461  1.0129
16392TIP3    H270592   3.973   2.795  15.080 -0.2782 -1.5305 -0.4588
16393TIP3   OH270593   6.080   0.596   6.567  0.2075  0.2892  0.3397
16393TIP3    H170594   6.152   0.544   6.530  0.2996  1.2911 -0.9366
16393TIP3    H270595   6.003   0.541   6.556  0.6580 -0.5335  1.1408
16394TIP3   OH270596   4.453   0.972  12.769 -0.0539  0.3699 -0.2421
16394TIP3    H170597   4.381   0.916  12.739  1.4044  0.0328 -3.2844
16394TIP3    H270598   4.501   0.918  12.831  1.0591 -1.6886 -2.7728
16395TIP3   OH270599   3.533   0.379  11.539  0.2421 -0.2943  1.0018
16395TIP3    H170600   3.473   0.395  11.612  0.8034 -0.5995  1.5375
16395TIP3    H270601   3.581   0.461  11.529 -2.0172  0.8103 -1.0910
16396TIP3   OH270602   5.922   2.256   5.711  0.7615 -0.1950  0.0741
16396TIP3    H170603   5.896   2.314   5.783  1.0811  0.8275 -0.6182
16396TIP3    H270604   5.965   2.182   5.754  0.9589  0.4101  0.9378
16397TIP3   OH270605   3.091   5.613  14.315  0.5343 -0.7506 -0.2322
16397TIP3    H170606   3.045   5.647  14.391 -0.4615 -0.3186 -1.0187
16397TIP3    H270607   3.049   5.656  14.240  0.6995 -2.0733 -1.1029
16398TIP3   OH270608   0.625   0.130  12.803 -0.6326  0.1307 -0.0792
16398TIP3    H170609   0.665   0.214  12.825 -1.2331  0.2211  0.7056
16398TIP3    H270610   0.572   0.108  12.879 -2.0793  0.0224 -1.0809
16399TIP3   OH270611   1.636   4.673   4.523 -0.0997 -0.2778 -0.3516
16399TIP3    H170612   1.565   4.683   4.586 -0.6210 -1.5282 -0.7142
16399TIP3    H270613   1.636   4.579   4.501  0.6900 -0.0319 -1.4746
16400TIP3   OH270614   0.966   5.442   4.800  0.0814  0.5656  0.7616
16400TIP3    H170615   0.988   5.415   4.711 -0.4928  1.4710  0.3364
16400TIP3    H270616   0.889   5.390   4.823  0.7755 -0.3304  1.0755
16401TIP3   OH270617   0.972   4.597  15.202  0.1160  0.1208  0.2709
16401TIP3    H170618   0.901   4.656  15.177 -0.0855  0.8687  2.4408
16401TIP3    H270619   0.966   4.524  15.141 -2.9310 -0.1399  0.7986
16402TIP3   OH270620   2.934   1.692  14.160  0.0326 -0.1258 -0.8203
16402TIP3    H170621   2.893   1.642  14.089  0.6098  0.9628 -1.9443
16402TIP3    H270622   3.026   1.665  14.158 -0.3141 -1.4862  0.7511
16403TIP3   OH270623   3.519   4.451  16.115 -0.1563  0.1952  0.4244
16403TIP3    H170624   3.461   4.476  16.043  0.7710  4.2440  0.9914
16403TIP3    H270625   3.463   4.449  16.192 -0.3542 -0.1768  0.2740
16404TIP3   OH270626   6.599   2.563   2.898 -0.0139 -0.0694  0.3531
16404TIP3    H170627   6.513   2.524   2.881 -0.4734  1.2567 -0.4746
16404TIP3    H270628   6.662   2.494   2.877 -0.8929 -1.5023  2.2075
16405TIP3   OH270629   5.183   2.876   4.811  0.3976 -0.2982 -0.0025
16405TIP3    H170630   5.121   2.810   4.780 -0.3681  0.1448  0.5758
16405TIP3    H270631   5.250   2.880   4.743 -0.9807  0.2812 -1.3388
16406TIP3   OH270632   6.069   6.526   3.505 -1.2419  0.0388  0.1982
16406TIP3    H170633   6.026   6.572   3.577  1.1249  2.7710 -0.0455
16406TIP3    H270634   6.162   6.542   3.519 -0.7403  0.5409 -3.4193
16407TIP3   OH270635   6.210   5.804  14.944 -0.0123 -0.4551  0.3919
16407TIP3    H170636   6.280   5.759  14.896 -1.1288 -0.0436 -1.6699
16407TIP3    H270637   6.251   5.882  14.980  0.6921 -0.4239 -0.4686
16408TIP3   OH270638   5.368   1.097   2.820  0.1330 -0.2623 -0.0611
16408TIP3    H170639   5.315   1.052   2.885  1.0355 -0.5713  0.4703
16408TIP3    H270640   5.306   1.150   2.770 -1.0082 -2.4127 -0.9854
16409TIP3   OH270641   1.719   6.774   5.070 -0.5334  0.1952  0.0222
16409TIP3    H170642   1.728   6.681   5.046  1.2275 -0.4881  3.0242
16409TIP3    H270643   1.802   6.814   5.045 -0.1049  0.2692  1.5401
16410TIP3   OH270644   4.065   4.393  15.319  0.0927 -0.4934 -0.4957
16410TIP3    H170645   4.065   4.467  15.380  0.2646 -1.8348  1.1490
16410TIP3    H270646   4.152   4.395  15.280 -0.4820  1.2149 -1.7761
16411TIP3   OH270647   5.247   2.914  12.678  0.6502  0.0752  0.2925
16411TIP3    H170648   5.320   2.946  12.626  0.9823  1.1291  1.3852
16411TIP3    H270649   5.263   2.948  12.766  0.6484 -2.5231  1.3419
16412TIP3   OH270650   1.577   2.488   4.598  0.6505 -0.1155 -0.5980
16412TIP3    H170651   1.605   2.419   4.658 -2.4556 -0.0037  1.1057
16412TIP3    H270652   1.651   2.548   4.593  1.8866 -1.4480  1.1668
16413TIP3   OH270653   3.028   5.208  12.052 -0.7238  0.4741 -0.2650
16413TIP3    H170654   2.984   5.175  12.131  1.0945  0.1430  0.6531
16413TIP3    H270655   2.975   5.282  12.025 -2.0023 -0.0791  0.6378
16414TIP3   OH270656   3.996   2.087  14.868  0.2069  0.8912  0.0723
16414TIP3    H170657   3.955   2.174  14.866  1.6362  1.6650  2.5043
16414TIP3    H270658   3.969   2.049  14.952  0.3008 -0.6879 -0.5952
16415TIP3   OH270659   3.903   4.760  16.253  0.0146  0.2332 -0.3080
16415TIP3    H170660   3.854   4.763  16.171  0.2920 -0.8725 -0.5166
16415TIP3    H270661   3.944   4.674  16.254 -1.2402 -0.3765  1.7235
16416TIP3   OH270662   5.733   3.610  11.268 -0.6905  0.2650 -0.0410
16416TIP3    H170663   5.649   3.565  11.266 -0.0772 -0.8724 -1.7789
16416TIP3    H270664   5.768   3.600  11.179  2.9237 -2.5208  1.5423
16417TIP3   OH270665   4.547   0.694  16.687 -0.2047 -0.1798  0.5171
16417TIP3    H170666   4.480   0.646  16.736  0.1058  0.0768  1.1910
16417TIP3    H270667   4.597   0.742  16.753 -1.5936  2.4778 -0.2455
16418TIP3   OH270668   4.737   3.083  14.742 -0.1433  0.5670 -0.0020
16418TIP3    H170669   4.715   3.019  14.810  1.7466 -0.6610 -0.5089
16418TIP3    H270670   4.664   3.078  14.680 -0.4151 -0.5076  0.3857
16419TIP3   OH270671   5.377   2.589   2.116  0.1701  0.6746  0.0960
16419TIP3    H170672   5.462   2.555   2.088  0.6450  1.7158  0.2592
16419TIP3    H270673   5.335   2.515   2.159  0.4553 -0.2308 -1.1448
16420TIP3   OH270674   2.311   4.313   0.204  0.0140  0.3416 -0.2271
16420TIP3    H170675   2.363   4.386   0.171  1.6560 -0.1504  1.1860
16420TIP3    H270676   2.338   4.238   0.151 -1.5221  0.6782 -1.5399
16421TIP3   OH270677   4.988   6.532  11.716 -0.0379  0.0898 -0.3679
16421TIP3    H170678   4.957   6.514  11.805 -1.0197 -0.8436 -0.8932
16421TIP3    H270679   4.988   6.447  11.673 -1.1668  0.7748 -1.7636
16422TIP3   OH270680   1.795   3.816  14.601  0.3452 -0.1462  0.2731
16422TIP3    H170681   1.848   3.882  14.557 -0.1984 -0.5193 -0.9708
16422TIP3    H270682   1.711   3.859  14.616  1.4046  0.9121  3.5057
16423TIP3   OH270683   5.857   0.341  15.981  0.1982 -0.2189  0.1154
16423TIP3    H170684   5.857   0.305  15.892  1.2157 -0.4152  0.1844
16423TIP3    H270685   5.765   0.347  16.005 -0.1339  0.8604 -1.3760
16424TIP3   OH270686   1.434   1.235  12.005  0.5917 -0.1673  0.3995
16424TIP3    H170687   1.350   1.231  11.960  0.9237  0.1394 -0.2456
16424TIP3    H270688   1.413   1.274  12.090 -0.0758 -0.9939  0.6252
16425TIP3   OH270689   6.045   3.753  12.926  0.1966 -0.0738 -0.2721
16425TIP3    H170690   6.029   3.741  13.020  0.2597  2.8629  0.1728
16425TIP3    H270691   5.965   3.796  12.894  1.1213  1.1219 -1.0424
16426TIP3   OH270692   5.063   4.417   1.738 -0.1866 -0.2810 -0.2516
16426TIP3    H170693   5.151   4.386   1.756  0.6160  1.7041 -0.6434
16426TIP3    H270694   5.061   4.506   1.771 -2.0619 -0.3099 -0.2133
16427TIP3   OH270695   4.109   5.348   1.688 -0.3336  0.0589  0.5354
16427TIP3    H170696   4.068   5.337   1.602  2.2278 -2.2247 -0.4635
16427TIP3    H270697   4.125   5.442   1.696 -2.7298  0.5674 -0.4483
16428TIP3   OH270698   0.696   3.168   4.133 -0.0143  0.5083 -0.5220
16428TIP3    H170699   0.722   3.225   4.205  0.3700 -0.1783 -0.1159
16428TIP3    H270700   0.771   3.168   4.073 -0.7449  1.9404 -1.4716
16429TIP3   OH270701   6.084   5.613  12.990 -0.0289 -0.0720 -0.0851
16429TIP3    H170702   6.139   5.582  13.062 -1.9494 -2.0469  0.5771
16429TIP3    H270703   6.098   5.551  12.919  0.1573  0.5938 -0.6381
16430TIP3   OH270704   0.231   6.095  16.834  0.2206  0.3328  0.0846
16430TIP3    H170705   0.189   6.053  16.759  1.3859 -0.1220 -0.3174
16430TIP3    H270706   0.295   6.030  16.865  2.1061  1.8357 -0.5965
16431TIP3   OH270707   4.022   5.713  12.844  0.0969 -0.1054 -0.0506
16431TIP3    H170708   4.061   5.735  12.760  0.4568  0.2477  0.2091
16431TIP3    H270709   3.927   5.717  12.829  0.1235 -2.3075 -1.0454
16432TIP3   OH270710   1.300   4.384   4.291 -0.3713  0.4541 -0.0668
16432TIP3    H170711   1.327   4.341   4.209 -0.5791 -2.3458  1.2822
16432TIP3    H270712   1.374   4.440   4.314  1.1961 -1.4511 -0.3309
16433TIP3   OH270713   6.640   1.982  15.395  0.3792  0.8337 -0.2635
16433TIP3    H170714   6.549   2.012  15.398  0.0351 -0.1989  0.0792
16433TIP3    H270715   6.650   1.943  15.308 -0.3233 -1.4868  0.6688
16434TIP3   OH270716   2.072   4.196  12.854 -0.3064 -0.4433  0.0862
16434TIP3    H170717   2.067   4.285  12.890  1.1473 -0.7500  1.1211
16434TIP3    H270718   2.048   4.205  12.762 -1.8423  0.7457  0.5849
16435TIP3   OH270719   0.440   3.656  14.859  0.3765  0.3564  0.1276
16435TIP3    H170720   0.376   3.586  14.849 -1.2653  1.6951  1.0145
16435TIP3    H270721   0.397   3.733  14.820  1.5723  1.1946  0.4339
16436TIP3   OH270722   1.011   2.537   0.600 -0.0662 -0.1393  0.0608
16436TIP3    H170723   1.052   2.472   0.657 -1.4608  0.8038  2.1912
16436TIP3    H270724   1.082   2.597   0.577  1.3962 -2.6967 -2.4623
16437TIP3   OH270725   3.427   5.487  15.134 -0.3585 -0.1323  0.1290
16437TIP3    H170726   3.468   5.571  15.115 -0.5360 -0.1471 -0.3553
16437TIP3    H270727   3.500   5.426  15.143 -0.3139 -0.7519 -3.6583
16438TIP3   OH270728   4.736   4.477   2.292  0.0997  0.0472  0.8499
16438TIP3    H170729   4.821   4.485   2.335  0.3985 -1.9712  0.6745
16438TIP3    H270730   4.693   4.403   2.337 -1.0820  0.2932  0.1565
16439TIP3   OH270731   6.316   0.067   6.332 -0.2795 -0.3114  0.4399
16439TIP3    H170732   6.239   0.012   6.319  0.3968 -0.8086 -1.5756
16439TIP3    H270733   6.300   0.145   6.279  0.2356 -0.0442  0.6642
16440TIP3   OH270734   2.440   3.182  14.164  0.0904  0.6066 -0.2611
16440TIP3    H170735   2.396   3.182  14.249  0.4809 -0.0943 -0.0522
16440TIP3    H270736   2.523   3.227  14.180 -0.6560  2.1854 -0.7183
16441TIP3   OH270737   0.319   2.735  14.471 -0.5638  0.3126 -0.0719
16441TIP3    H170738   0.415   2.738  14.475 -0.4735 -1.9404  0.3308
16441TIP3    H270739   0.294   2.818  14.430  1.5208  1.1528  0.2922
16442TIP3   OH270740   6.390   6.358   3.501  0.3633  0.1480 -0.3336
16442TIP3    H170741   6.358   6.442   3.533  2.2427  0.2968  1.2608
16442TIP3    H270742   6.477   6.377   3.466  1.1674 -1.2832  0.8443
16443TIP3   OH270743   0.143   2.368   5.387  0.1758 -0.4182  0.0691
16443TIP3    H170744   0.195   2.446   5.407 -0.6996 -0.2833  1.9135
16443TIP3    H270745   0.061   2.402   5.353  1.0655 -0.6233 -2.3469
16444TIP3   OH270746   0.121   3.273  11.405  0.0569  0.5733 -0.1741
16444TIP3    H170747   0.072   3.307  11.480 -0.8264  0.0148 -0.4848
16444TIP3    H270748   0.134   3.350  11.349  0.2275  0.8805  0.2835
16445TIP3   OH270749   4.468   3.309   3.415 -0.5050  0.0429  0.2724
16445TIP3    H170750   4.463   3.215   3.432  1.3878  0.0659  1.0426
16445TIP3    H270751   4.479   3.348   3.501 -1.4496  1.0048 -0.0309
16446TIP3   OH270752   5.055   1.864   3.501 -0.0168 -0.3666  0.5628
16446TIP3    H170753   5.039   1.800   3.431  2.3226  1.1917 -1.4837
16446TIP3    H270754   5.116   1.820   3.560 -0.1150 -0.8057  0.3416
16447TIP3   OH270755   3.828   5.812  11.415  0.1565 -0.2462 -0.7762
16447TIP3    H170756   3.799   5.722  11.407  1.7382 -0.7025 -1.5306
16447TIP3    H270757   3.835   5.826  11.510 -2.6984 -0.0261 -0.5502
16448TIP3   OH270758   0.485   5.067   1.618 -0.6066  0.5660 -0.1784
16448TIP3    H170759   0.515   5.158   1.623  2.8558 -0.4454 -0.9652
16448TIP3    H270760   0.530   5.032   1.542 -1.4228 -1.9903  0.4853
16449TIP3   OH270761   1.620   3.752   1.227  0.1255  0.3324  0.1761
16449TIP3    H170762   1.601   3.797   1.145 -0.0706 -0.4913 -0.2368
16449TIP3    H270763   1.619   3.821   1.293  0.0844  0.9703 -0.4858
16450TIP3   OH270764   0.593   3.010  15.904 -0.2335  0.3534  0.7953
16450TIP3    H170765   0.511   3.003  15.855  1.3288 -0.5154 -1.7473
16450TIP3    H270766   0.576   2.961  15.985 -1.0302 -3.0640 -1.3416
16451TIP3   OH270767   1.357   1.720   3.365  0.2363 -0.8308 -0.0793
16451TIP3    H170768   1.403   1.689   3.442 -0.1862 -1.0918  0.0713
16451TIP3    H270769   1.366   1.816   3.368  2.0503 -0.9642 -0.8770
16452TIP3   OH270770   2.559   6.142   1.102  0.1680 -0.1890  0.5145
16452TIP3    H170771   2.522   6.207   1.162 -1.3347 -1.0211  0.5278
16452TIP3    H270772   2.653   6.156   1.106 -0.0884  1.4868  1.0904
16453TIP3   OH270773   4.793   1.514  14.204 -0.2758  0.0297 -0.2869
16453TIP3    H170774   4.750   1.506  14.289 -1.7422  0.1521 -0.9871
16453TIP3    H270775   4.737   1.575  14.155  0.2051 -0.5118 -1.5349
16454TIP3   OH270776   3.729   2.654  15.485  0.0102  0.5017 -0.5188
16454TIP3    H170777   3.816   2.655  15.447  0.0844  0.6111 -0.3477
16454TIP3    H270778   3.713   2.562  15.507 -0.5441  0.2389 -1.9719
16455TIP3   OH270779   4.324   2.495   0.315 -0.8409  0.3018 -0.1267
16455TIP3    H170780   4.247   2.440   0.326 -1.5001  1.1713 -0.2955
16455TIP3    H270781   4.370   2.490   0.399 -1.6962  0.7003  0.3660
16456TIP3   OH270782   2.581   5.524  12.010  0.3092  0.3939  0.2560
16456TIP3    H170783   2.497   5.532  12.054 -0.0637 -1.0497 -0.1424
16456TIP3    H270784   2.559   5.518  11.917  0.9940  1.9722 -0.0238
16457TIP3   OH270785   5.696   0.256  12.691 -0.1107 -0.5841  0.2579
16457TIP3    H170786   5.779   0.294  12.720  0.2595 -2.1312  1.3041
16457TIP3    H270787   5.653   0.230  12.772  0.3649 -3.8465 -0.4734
16458TIP3   OH270788   4.489   3.028   3.495 -0.1401 -0.3566 -0.2245
16458TIP3    H170789   4.529   2.993   3.574  0.8256 -0.3705 -0.7019
16458TIP3    H270790   4.552   3.007   3.425 -1.0585 -0.5162 -1.0216
16459TIP3   OH270791   4.027   5.991   0.307  0.0882 -0.4261  0.1084
16459TIP3    H170792   3.965   5.958   0.242  0.4505 -1.0689  0.0768
16459TIP3    H270793   4.004   5.943   0.387 -0.1780  0.1605  0.3814
16460TIP3   OH270794   5.420   2.458   3.744  0.6139  1.2943  0.5023
16460TIP3    H170795   5.345   2.399   3.734  1.4654  0.0724  1.1223
16460TIP3    H270796   5.388   2.529   3.799 -0.2922  1.1713  0.1441
16461TIP3   OH270797   5.666   1.290  12.551  0.1405  0.3181 -0.1478
16461TIP3    H170798   5.595   1.336  12.597  1.2348  0.1890  1.7378
16461TIP3    H270799   5.622   1.221  12.503 -1.1812  1.2012 -0.2488
16462TIP3   OH270800   0.350   5.351  14.533 -0.0063 -0.1110 -0.0991
16462TIP3    H170801   0.304   5.273  14.566 -0.2084  0.5607  1.2301
16462TIP3    H270802   0.412   5.316  14.469 -3.3944 -0.9175 -3.1107
16463TIP3   OH270803   1.760   4.858  11.506  0.2078  0.2996  0.4131
16463TIP3    H170804   1.746   4.770  11.472  1.4412  0.3565 -0.2755
16463TIP3    H270805   1.793   4.908  11.431 -0.6696  1.4049  0.7443
16464TIP3   OH270806   5.826   3.512   4.321  0.3693 -0.1077  0.6769
16464TIP3    H170807   5.742   3.542   4.286  0.3756 -0.0623  0.6999
16464TIP3    H270808   5.826   3.417   4.306  1.3008  0.1944 -1.4463
16465TIP3   OH270809   6.484   2.517  17.022 -0.1469  0.0908  0.2644
16465TIP3    H170810   6.396   2.513  17.061  0.0713  1.6024  0.9391
16465TIP3    H270811   6.468   2.526  16.928 -0.6831 -3.1873 -0.0392
16466TIP3   OH270812   6.186   1.039   1.110 -0.2313 -0.0206 -0.5540
16466TIP3    H170813   6.241   0.962   1.099 -0.5741 -0.3924  0.2869
16466TIP3    H270814   6.233   1.094   1.172 -0.9898 -0.5162  0.4634
16467TIP3   OH270815   1.728   6.273  13.215  0.1272  0.9165  0.1538
16467TIP3    H170816   1.727   6.361  13.177  0.1854  0.3868 -1.1088
16467TIP3    H270817   1.771   6.284  13.300  1.0123  1.9476 -0.4104
16468TIP3   OH270818   0.311   1.224  15.753  0.4108  0.1568  0.0186
16468TIP3    H170819   0.399   1.186  15.749 -0.4210 -1.7474 -0.1461
16468TIP3    H270820   0.263   1.169  15.815 -0.9866  0.5669 -0.6809
16469TIP3   OH270821   5.447   3.618   0.180  0.5907 -0.1320 -0.2478
16469TIP3    H170822   5.510   3.684   0.209 -0.0421  0.2569  0.2615
16469TIP3    H270823   5.364   3.647   0.217 -0.1886  0.2271 -2.2666
16470TIP3   OH270824   0.181   2.448  11.738 -0.0420  0.0169 -0.2532
16470TIP3    H170825   0.094   2.443  11.698  0.4737  0.7924 -1.5173
16470TIP3    H270826   0.201   2.542  11.739  0.1290 -0.0300  1.4860
16471TIP3   OH270827   2.417   2.797  15.068 -0.2911  0.1365 -0.9891
16471TIP3    H170828   2.432   2.757  14.982 -0.7462  0.2384 -1.1209
16471TIP3    H270829   2.367   2.731  15.116  0.5735 -0.2083 -0.5517
16472TIP3   OH270830   6.611   2.455   2.335 -0.4332 -0.5479 -0.1123
16472TIP3    H170831   6.615   2.374   2.386  1.8366 -0.4378 -0.0735
16472TIP3    H270832   6.605   2.427   2.244  0.6271 -0.7915 -0.1179
16473TIP3   OH270833   2.817   1.325  13.168  0.4153 -0.2752 -0.3506
16473TIP3    H170834   2.843   1.289  13.083  0.5393 -1.8500  0.3456
16473TIP3    H270835   2.898   1.356  13.207  0.0751  2.5791 -1.7467
16474TIP3   OH270836   4.337   0.245  13.239  0.3020 -0.2897 -0.1418
16474TIP3    H170837   4.399   0.208  13.301  0.6096  0.0369 -0.2541
16474TIP3    H270838   4.257   0.193  13.250  0.4488 -0.4131  0.3230
16475TIP3   OH270839   3.933   2.107   5.865 -0.4632  0.2944 -0.2210
16475TIP3    H170840   3.877   2.032   5.884 -1.5189  1.2538  0.5302
16475TIP3    H270841   3.916   2.127   5.773  0.6076 -1.0233 -0.7156
16476TIP3   OH270842   2.840   1.247  15.918 -0.4828  0.1971  0.2310
16476TIP3    H170843   2.748   1.222  15.909 -0.4321 -0.1917  0.7795
16476TIP3    H270844   2.884   1.167  15.944 -0.3107  0.8479  1.9865
16477TIP3   OH270845   0.899   2.586   3.977 -0.5711 -0.1975 -0.1249
16477TIP3    H170846   0.988   2.622   3.969 -0.6262 -0.1906 -0.6881
16477TIP3    H270847   0.863   2.591   3.889 -0.2679 -2.4588 -0.4133
16478TIP3   OH270848   5.369   0.647  15.076  0.3006 -0.1082  0.2048
16478TIP3    H170849   5.332   0.728  15.039 -1.5868 -1.1430 -0.2376
16478TIP3    H270850   5.456   0.640  15.036 -0.9377 -0.1840 -2.5957
16479TIP3   OH270851   3.480   3.028   3.856 -0.3776 -0.2215 -1.1639
16479TIP3    H170852   3.387   3.049   3.851 -0.9622 -2.3761  0.0186
16479TIP3    H270853   3.509   3.020   3.765 -1.1285  1.3311 -1.5472
16480TIP3   OH270854   6.509   4.067  15.249 -0.0381 -0.2032  0.1093
16480TIP3    H170855   6.589   4.045  15.298  1.6410  0.5854 -2.2029
16480TIP3    H270856   6.446   4.000  15.274  1.5569 -1.2370  1.4606
16481TIP3   OH270857   6.048   4.936   3.660  0.3818  0.0866  0.3022
16481TIP3    H170858   6.066   5.026   3.635 -2.7987  0.9053  0.8229
16481TIP3    H270859   6.013   4.895   3.581  1.0252 -0.4695  0.3005
16482TIP3   OH270860   6.209   1.357  11.007  0.2065 -0.8610  0.4243
16482TIP3    H170861   6.246   1.394  10.927 -0.0996 -1.9962 -0.2595
16482TIP3    H270862   6.117   1.341  10.986  0.5711 -3.0025  0.3082
16483TIP3   OH270863   0.531   2.071   5.198 -0.5891  0.3520 -0.3420
16483TIP3    H170864   0.489   2.137   5.253  1.2592 -0.9854  2.7910
16483TIP3    H270865   0.596   2.119   5.147  0.1903  1.0666  1.3248
16484TIP3   OH270866   1.790   0.948   3.178 -0.3881 -0.2877 -0.1911
16484TIP3    H170867   1.775   0.976   3.268 -4.3115  0.3397 -0.9625
16484TIP3    H270868   1.782   1.028   3.126  0.6597 -0.8430 -1.2344
16485TIP3   OH270869   0.750   5.589  12.233  0.2404  0.3750  0.2121
16485TIP3    H170870   0.798   5.672  12.242  2.4701 -1.2051  3.7306
16485TIP3    H270871   0.817   5.525  12.208 -0.9782 -0.8707  0.0985
16486TIP3   OH270872   0.732   4.033  15.294  0.4492 -0.0586  0.0038
16486TIP3    H170873   0.749   4.116  15.249  1.4633  0.4494  1.2767
16486TIP3    H270874   0.792   4.034  15.368 -1.0465 -0.9588  1.2537
16487TIP3   OH270875   5.924   6.469  13.204  0.2254  0.1969  0.0559
16487TIP3    H170876   5.995   6.513  13.251 -0.4268 -0.3696  1.6340
16487TIP3    H270877   5.844   6.504  13.244 -0.3233 -1.2045  0.2091
16488TIP3   OH270878   6.362   5.970  12.083 -0.1651 -0.0867  0.7943
16488TIP3    H170879   6.397   6.032  12.018  0.6213  0.3538  1.6206
16488TIP3    H270880   6.283   6.013  12.116 -0.6862 -0.4098 -0.0173
16489TIP3   OH270881   0.396   1.565  13.494 -0.1045  0.4626  0.0031
16489TIP3    H170882   0.388   1.611  13.578 -2.2368 -0.5511  0.3712
16489TIP3    H270883   0.447   1.487  13.514 -0.2771  0.4179  0.2667
16490TIP3   OH270884   2.766   4.556  16.077  0.2133 -0.2965 -0.1527
16490TIP3    H170885   2.817   4.492  16.127  1.2730 -1.0625 -2.1710
16490TIP3    H270886   2.705   4.503  16.026 -0.9305  0.4805  0.4115
16491TIP3   OH270887   1.559   1.358  13.242 -0.2739 -0.5702 -0.2826
16491TIP3    H170888   1.561   1.443  13.197  1.9748  0.3183  1.3955
16491TIP3    H270889   1.496   1.370  13.313 -0.3355 -0.4775 -0.3516
16492TIP3   OH270890   2.828   0.105  16.234 -0.6845 -0.8754 -0.6375
16492TIP3    H170891   2.745   0.061  16.255 -0.0980 -2.0570 -0.7395
16492TIP3    H270892   2.891   0.067  16.295 -0.1693 -0.1337 -0.7054
16493TIP3   OH270893   6.294   0.924   6.533 -0.2152 -0.2280 -0.5744
16493TIP3    H170894   6.368   0.929   6.593 -1.4776 -0.2693  1.0399
16493TIP3    H270895   6.294   1.008   6.488  0.7476 -0.1891 -0.5067
16494TIP3   OH270896   6.382   5.763   4.028  0.4285  0.0215 -0.2767
16494TIP3    H170897   6.293   5.796   4.042 -0.0604 -1.0075 -0.8826
16494TIP3    H270898   6.372   5.698   3.959  1.3577 -1.4701  0.9646
16495TIP3   OH270899   4.917   3.732  15.693  0.1159 -1.0028  0.5338
16495TIP3    H170900   4.852   3.758  15.759  0.1410 -0.3552  0.3063
16495TIP3    H270901   4.955   3.814  15.664  1.0833 -1.3902  0.7027
16496TIP3   OH270902   3.839   6.756   2.707  0.1154 -0.3641 -0.5619
16496TIP3    H170903   3.931   6.740   2.687 -0.0192  0.4192 -1.8764
16496TIP3    H270904   3.798   6.670   2.700  0.6612 -0.6420 -0.4174
16497TIP3   OH270905   4.875   4.521  16.768 -0.5559 -0.0844  0.3049
16497TIP3    H170906   4.907   4.583  16.702  0.3979 -1.7524 -0.8493
16497TIP3    H270907   4.823   4.458  16.718  0.0349 -1.2726  1.1484
16498TIP3   OH270908   3.445   1.784  17.052 -0.0038 -0.0816  0.0906
16498TIP3    H170909   3.400   1.868  17.051 -2.0815 -1.1774 -0.2830
16498TIP3    H270910   3.516   1.794  16.988 -0.0129  1.4792  0.3120
16499TIP3   OH270911   5.391   4.751   3.509  0.4277 -0.0838 -0.0420
16499TIP3    H170912   5.430   4.833   3.539 -0.5553  0.2983  0.2232
16499TIP3    H270913   5.325   4.777   3.445  1.0420 -0.7595 -0.9544
16500TIP3   OH270914   3.425   1.524   5.748  0.0676  0.1312 -0.2905
16500TIP3    H170915   3.453   1.615   5.761 -0.8706  0.2394  1.0651
16500TIP3    H270916   3.406   1.518   5.654  0.4956  1.2285 -0.4611
16501TIP3   OH270917   3.653   1.794  12.806 -0.6382 -0.2416 -0.4969
16501TIP3    H170918   3.720   1.838  12.858  1.2277  0.2708 -3.2372
16501TIP3    H270919   3.696   1.714  12.774 -1.4861 -0.1408 -1.9128
16502TIP3   OH270920   3.493   6.602   3.549 -0.2869  0.2461 -0.8081
16502TIP3    H170921   3.531   6.517   3.572  2.6911  1.4126 -1.2334
16502TIP3    H270922   3.498   6.654   3.629 -1.5408  0.2633 -0.7208
16503TIP3   OH270923   3.236   0.706  12.042 -0.1917  0.1444 -0.0166
16503TIP3    H170924   3.270   0.616  12.051 -0.5153  0.0008 -0.2140
16503TIP3    H270925   3.187   0.704  11.959 -0.7806  0.3171  0.3256
16504TIP3   OH270926   5.047   2.581  17.035  0.4824  0.2022 -0.0215
16504TIP3    H170927   5.025   2.501  16.986  0.3102  0.3430 -0.1751
16504TIP3    H270928   5.059   2.647  16.967  3.6545 -0.4014 -0.1254
16505TIP3   OH270929   4.523   1.272  15.182 -0.3119  0.0836  0.4191
16505TIP3    H170930   4.453   1.337  15.185  0.3805  0.7861  1.7106
16505TIP3    H270931   4.479   1.190  15.208 -1.7424 -0.5546 -3.6555
16506TIP3   OH270932   2.835   4.650  11.544 -0.4867 -0.3981 -0.1441
16506TIP3    H170933   2.803   4.612  11.463  0.5381 -0.5908 -0.4649
16506TIP3    H270934   2.766   4.710  11.572 -0.0319  1.0803 -2.1386
16507TIP3   OH270935   1.105   4.510   4.587  0.1764  0.5620  0.5948
16507TIP3    H170936   1.044   4.497   4.514 -2.4003  1.0849  2.5931
16507TIP3    H270937   1.161   4.433   4.585 -1.0986 -0.3677 -0.7919
16508TIP3   OH270938   3.527   2.766  11.645 -0.1160 -0.1343  1.0095
16508TIP3    H170939   3.456   2.757  11.581  2.2564  0.6063 -1.8572
16508TIP3    H270940   3.562   2.678  11.654  1.0192  0.1371 -0.5370
16509TIP3   OH270941   1.740   2.146  12.748 -0.1606 -0.5420 -0.3583
16509TIP3    H170942   1.765   2.128  12.838 -0.1423 -0.6513 -0.3861
16509TIP3    H270943   1.752   2.241  12.738  4.3241 -1.0901 -1.5875
16510TIP3   OH270944   2.568   5.596  12.793  0.0028  0.5031 -0.1673
16510TIP3    H170945   2.546   5.649  12.870 -0.4396  0.9705 -0.6174
16510TIP3    H270946   2.664   5.591  12.794 -0.0728 -1.9262  2.0741
16511TIP3   OH270947   6.268   5.126   3.846 -0.3426  0.3143  0.4583
16511TIP3    H170948   6.290   5.038   3.817  1.0532  0.9851 -0.5904
16511TIP3    H270949   6.173   5.131   3.836 -0.1467 -0.1684 -2.1460
16512TIP3   OH270950   5.367   3.462   1.770  0.1007  0.1739  0.1781
16512TIP3    H170951   5.438   3.515   1.736 -0.2437  1.5402  1.5257
16512TIP3    H270952   5.297   3.469   1.705  1.1947 -1.1937 -1.1564
16513TIP3   OH270953   2.331   2.851   1.032  0.1983 -0.3822 -0.2193
16513TIP3    H170954   2.280   2.847   0.951 -0.9208  0.8793  0.4141
16513TIP3    H270955   2.383   2.770   1.031  0.1683 -0.4056 -2.1667
16514TIP3   OH270956   5.486   1.138   1.221  0.2775 -0.6256 -0.1753
16514TIP3    H170957   5.404   1.121   1.174  0.6479  0.3680 -1.1916
16514TIP3    H270958   5.473   1.095   1.306 -1.3757 -0.3302 -0.2495
16515TIP3   OH270959   2.090   3.355  14.595  0.2128  0.2931  0.8544
16515TIP3    H170960   2.079   3.380  14.687  0.2627  2.1483  0.3913
16515TIP3    H270961   2.170   3.303  14.593  1.5295  2.2151  1.5550
16516TIP3   OH270962   5.024   3.030  15.095 -0.7916  0.0968  0.0286
16516TIP3    H170963   5.083   3.105  15.089 -0.6281  0.0829  1.3770
16516TIP3    H270964   5.079   2.954  15.080 -0.4621  0.0910  1.1925
16517TIP3   OH270965   5.824   0.754   4.636 -0.1604 -0.7217  0.4345
16517TIP3    H170966   5.884   0.731   4.707 -1.2302 -1.3038  1.1777
16517TIP3    H270967   5.771   0.675   4.623  0.0343 -0.6278 -1.0374
16518TIP3   OH270968   5.658   0.891  15.165 -0.0151 -0.6194  0.4777
16518TIP3    H170969   5.612   0.962  15.121 -1.3929 -1.4050  0.6164
16518TIP3    H270970   5.714   0.934  15.229 -0.9094  0.3326  0.6270
16519TIP3   OH270971   6.294   4.456  15.656 -0.3600 -0.1611 -0.2052
16519TIP3    H170972   6.254   4.485  15.574 -0.8538  0.3110  0.1994
16519TIP3    H270973   6.386   4.442  15.633 -0.8740 -1.8949 -1.2973
16520TIP3   OH270974   1.045   2.503   5.690  0.1059  0.5581 -0.2764
16520TIP3    H170975   1.105   2.429   5.678 -1.0437 -0.2286 -1.2732
16520TIP3    H270976   1.098   2.580   5.671  0.9061 -0.1126 -0.7872
16521TIP3   OH270977   1.198   5.580   3.552 -0.3470  0.1448  0.2685
16521TIP3    H170978   1.258   5.654   3.562  0.1299  0.0371 -1.5554
16521TIP3    H270979   1.179   5.551   3.641  1.0598  1.1782  0.9106
16522TIP3   OH270980   1.299   1.363   6.701 -0.1624 -0.0132  0.4177
16522TIP3    H170981   1.358   1.354   6.776 -1.4710  0.5802  1.5336
16522TIP3    H270982   1.344   1.425   6.643  0.5982 -0.0543  0.9500
16523TIP3   OH270983   6.498   6.005  11.064 -0.3316 -0.1042 -0.3087
16523TIP3    H170984   6.481   5.958  10.982  1.7157 -1.1807 -0.1664
16523TIP3    H270985   6.462   6.092  11.050  0.5339 -0.0835 -2.5983
16524TIP3   OH270986   5.033   6.204  14.370 -0.2810  0.4297 -0.1809
16524TIP3    H170987   5.066   6.271  14.310  0.9610  0.8099  0.9312
16524TIP3    H270988   4.949   6.240  14.401 -0.6554  0.4899 -1.2283
16525TIP3   OH270989   0.365   6.764   2.874  0.0703 -0.5296  0.3353
16525TIP3    H170990   0.372   6.850   2.913 -1.0184  0.3860 -1.4200
16525TIP3    H270991   0.299   6.774   2.805 -0.9857 -3.0624  0.9304
16526TIP3   OH270992   1.083   1.840  12.974  0.0274  0.0180 -0.1629
16526TIP3    H170993   1.130   1.766  12.934 -0.7756 -1.6588  1.9004
16526TIP3    H270994   1.002   1.801  13.008  0.4247  1.4777  2.5459
16527TIP3   OH270995   2.275   2.754   4.459  0.0324 -0.0908  0.5024
16527TIP3    H170996   2.277   2.845   4.490  2.3788 -0.4717  1.5657
16527TIP3    H270997   2.202   2.715   4.507  1.2358  0.3294  2.7944
16528TIP3   OH270998   5.570   0.850   2.318  0.6556  0.5291 -0.6153
16528TIP3    H170999   5.517   0.827   2.394  0.3253  0.5228 -0.8457
16528TIP3    H271000   5.659   0.823   2.341  0.2755 -0.9530 -0.8666
16529TIP3   OH271001   5.772   0.846  12.184  0.6154  0.1871  0.2593
16529TIP3    H171002   5.783   0.773  12.245  2.3433  0.7715  0.6833
16529TIP3    H271003   5.779   0.924  12.239 -0.5878  0.6983 -0.2854
16530TIP3   OH271004   0.339   6.123   4.276 -0.7180  0.3622 -0.1919
16530TIP3    H171005   0.409   6.108   4.340 -0.1642 -1.0037 -1.0705
16530TIP3    H271006   0.331   6.218   4.270  0.5581  0.5244  0.4706
16531TIP3   OH271007   0.279   2.611  14.206 -0.0287  0.1722 -0.3125
16531TIP3    H171008   0.197   2.575  14.238 -1.3559  2.9245 -0.5084
16531TIP3    H271009   0.325   2.639  14.286 -0.0864  0.3360 -0.3375
16532TIP3   OH271010   1.345   5.834   0.399  0.2919 -0.0311  0.3942
16532TIP3    H171011   1.419   5.886   0.367 -0.6998  1.8664  1.1026
16532TIP3    H271012   1.267   5.883   0.373 -0.6883 -1.2992  0.8605
16533TIP3   OH271013   1.004   3.275  11.382 -0.7612  0.0758  0.2170
16533TIP3    H171014   0.931   3.323  11.421 -1.1962  1.1971 -1.9536
16533TIP3    H271015   1.078   3.335  11.390 -0.8179  0.2445 -0.5627
16534TIP3   OH271016   4.853   0.663  15.927  0.2439  0.7582  0.0514
16534TIP3    H171017   4.844   0.747  15.883  2.0835  0.8183 -0.2590
16534TIP3    H271018   4.778   0.658  15.985 -0.0016  2.5176 -0.0905
16535TIP3   OH271019   3.412   3.541  13.321  0.2784 -0.6693 -0.1051
16535TIP3    H171020   3.457   3.575  13.399 -0.5035  0.7645 -0.2572
16535TIP3    H271021   3.421   3.610  13.256 -1.2971 -0.7613 -0.4458
16536TIP3   OH271022   2.765   0.001   3.151  0.1422 -0.6897 -0.0467
16536TIP3    H171023   2.857  -0.000   3.124 -0.0337  1.1618 -0.7751
16536TIP3    H271024   2.748   0.092   3.173 -1.6641 -0.9337 -0.4039
16537TIP3   OH271025   0.724   1.673   3.246  0.3249 -0.2755  0.0796
16537TIP3    H171026   0.785   1.600   3.237  1.2056  0.3784  0.5470
16537TIP3    H271027   0.757   1.722   3.321 -0.2756  0.5706 -0.1973
16538TIP3   OH271028   0.440   6.580  16.483 -0.1444  0.1340  0.2995
16538TIP3    H171029   0.498   6.591  16.408 -0.3151 -0.4387  0.0857
16538TIP3    H271030   0.464   6.651  16.542  1.2968 -0.5260  0.5407
16539TIP3   OH271031   6.525   3.491  14.802  0.6215 -0.2298 -0.1594
16539TIP3    H171032   6.455   3.517  14.741  1.4611  0.5867 -0.7934
16539TIP3    H271033   6.555   3.574  14.839 -0.2433 -0.7719  1.7795
16540TIP3   OH271034   2.038   3.653  16.588  1.1133 -0.4197 -0.1884
16540TIP3    H171035   1.998   3.567  16.571 -1.3126  0.8059 -0.9262
16540TIP3    H271036   1.984   3.692  16.657  2.4240  0.3743  0.4111
16541TIP3   OH271037   0.462   5.175   2.197  0.0042 -0.2402  0.2172
16541TIP3    H171038   0.446   5.254   2.248  0.6870 -0.5000  0.8325
16541TIP3    H271039   0.448   5.202   2.106 -0.0574  0.5051  0.4462
16542TIP3   OH271040   5.881   0.025   2.310 -0.0133 -0.5746 -0.1736
16542TIP3    H171041   5.870   0.009   2.216  0.3217 -2.3814  0.0830
16542TIP3    H271042   5.803  -0.013   2.350  0.3773 -0.8153  0.3715
16543TIP3   OH271043   2.251   3.373  13.590  0.1738 -0.1752 -0.2509
16543TIP3    H171044   2.204   3.431  13.530 -1.1968  0.5178  1.4486
16543TIP3    H271045   2.205   3.289  13.582 -0.0581 -0.0617 -0.1350
16544TIP3   OH271046   5.705   1.326   0.398 -0.6057 -0.3855  0.1785
16544TIP3    H171047   5.703   1.422   0.399  1.4192 -0.3332  0.6890
16544TIP3    H271048   5.642   1.302   0.330  1.5753  1.4187 -2.6022
16545TIP3   OH271049   3.706   0.165   1.708 -0.0918 -0.2637  0.2202
16545TIP3    H171050   3.652   0.243   1.724 -2.4761 -1.9699  0.9176
16545TIP3    H271051   3.719   0.127   1.795  2.6931  0.3553  0.1148
16546TIP3   OH271052   3.712   2.526  12.875  0.3060  0.5012  0.4679
16546TIP3    H171053   3.784   2.515  12.814  1.9186 -0.9209  2.5246
16546TIP3    H271054   3.731   2.608  12.921 -0.8927  1.5602 -0.8898
16547TIP3   OH271055   3.322   2.114  14.502  0.0373 -0.0560  0.1755
16547TIP3    H171056   3.268   2.059  14.559 -1.1795  1.2389  0.3211
16547TIP3    H271057   3.400   2.062  14.483 -0.8452 -1.5967  0.7419
16548TIP3   OH271058   6.022   2.652  11.095 -0.0170  0.1614 -0.0830
16548TIP3    H171059   5.998   2.658  11.188 -2.9441  0.5266 -0.8045
16548TIP3    H271060   6.076   2.573  11.090 -0.4566 -0.3000  1.8205
16549TIP3   OH271061   1.728   3.356  16.520 -0.0006  0.2918  0.7493
16549TIP3    H171062   1.659   3.397  16.467 -2.3730 -1.9681  1.9786
16549TIP3    H271063   1.735   3.413  16.597 -1.3547 -0.0783  1.1701
16550TIP3   OH271064   6.000   3.055  14.468 -0.2202  0.5805 -0.2603
16550TIP3    H171065   6.017   3.065  14.374 -0.4641 -1.9310 -0.5908
16550TIP3    H271066   6.083   3.025  14.504  0.0684  2.1978  0.4729
16551TIP3   OH271067   0.426   0.005  13.674 -0.8553 -0.0766 -0.0794
16551TIP3    H171068   0.335   0.001  13.643 -2.0986  2.1538  3.0214
16551TIP3    H271069   0.420  -0.010  13.768  2.1292 -0.8598  0.0283
16552TIP3   OH271070   4.212   4.971   5.797 -0.2149  0.1287  0.2429
16552TIP3    H171071   4.267   5.027   5.742 -1.3051 -1.0516 -2.1391
16552TIP3    H271072   4.124   5.009   5.791  0.0672  1.2947  3.0275
16553TIP3   OH271073   4.268   3.538   4.105 -0.8848 -0.1324 -0.2254
16553TIP3    H171074   4.303   3.456   4.070 -0.2751 -1.0455  2.4389
16553TIP3    H271075   4.174   3.523   4.112 -1.0834  0.2243 -1.8267
16554TIP3   OH271076   0.393   5.878  11.059  0.3456  0.2596  0.2623
16554TIP3    H171077   0.306   5.917  11.066  0.3540  0.2630  0.3471
16554TIP3    H271078   0.409   5.874  10.965  0.6599  1.1502  0.2766
16555TIP3   OH271079   4.627   2.373   2.890  0.0142 -0.4759 -0.5696
16555TIP3    H171080   4.701   2.318   2.868  0.2642 -1.0440  1.5816
16555TIP3    H271081   4.596   2.340   2.974 -2.3223  0.1162 -1.1499
16556TIP3   OH271082   1.512   0.723   0.422  0.2563 -0.1261 -0.1794
16556TIP3    H171083   1.548   0.745   0.508 -0.1757 -1.1240  0.2718
16556TIP3    H271084   1.523   0.629   0.415  2.0997  0.1984 -2.0885
16557TIP3   OH271085   3.709   0.360   0.744  0.0347  0.1923  0.9554
16557TIP3    H171086   3.754   0.357   0.660 -0.1249 -3.0534  0.9415
16557TIP3    H271087   3.624   0.320   0.729 -0.2517  0.1636  2.4917
16558TIP3   OH271088   3.236   0.391   0.884  0.4521 -0.8283 -0.3357
16558TIP3    H171089   3.275   0.432   0.961 -1.3308 -0.2462  0.2845
16558TIP3    H271090   3.176   0.456   0.849 -0.7521 -2.0750 -0.6513
16559TIP3   OH271091   6.038   4.872   4.459 -0.1521 -0.0600  0.5162
16559TIP3    H171092   5.982   4.812   4.410 -0.2658 -0.8098  1.5393
16559TIP3    H271093   6.024   4.847   4.551  3.5760 -1.7990  0.6848
16560TIP3   OH271094   5.763   0.302  15.525 -0.3052 -0.1970 -0.3254
16560TIP3    H171095   5.747   0.319  15.432  1.1622 -0.0108 -0.5704
16560TIP3    H271096   5.689   0.341  15.570  0.1926  1.9322 -1.2765
16561TIP3   OH271097   3.817   2.301   0.352  0.2804 -0.0314 -0.1737
16561TIP3    H171098   3.843   2.271   0.264  0.3164 -2.7838  0.7471
16561TIP3    H271099   3.729   2.267   0.364 -0.1637  1.2996  0.4478
16562TIP3   OH271100   2.683   2.088  15.338 -0.4579  0.5384  0.6502
16562TIP3    H171101   2.717   2.027  15.273 -0.7757  1.8147 -0.7343
16562TIP3    H271102   2.751   2.093  15.405  0.2035 -0.1800  0.0297
16563TIP3   OH271103   3.275   0.968  15.089 -0.4356 -0.4714  0.1516
16563TIP3    H171104   3.316   0.886  15.113  1.9645  0.2995 -1.1283
16563TIP3    H271105   3.342   1.035  15.105 -1.9013  1.0893  0.0125
16564TIP3   OH271106   1.818   0.576  14.633  0.4475 -0.0639 -0.2262
16564TIP3    H171107   1.826   0.565  14.539  0.7666  0.8058 -0.3099
16564TIP3    H271108   1.767   0.657  14.643 -0.3995 -0.6707  0.3370
16565TIP3   OH271109   2.195   6.648  16.809 -0.0843  0.2183 -0.0328
16565TIP3    H171110   2.240   6.687  16.733  0.7683 -0.6808 -0.0015
16565TIP3    H271111   2.210   6.710  16.880  3.3399 -1.2471  0.6321
16566TIP3   OH271112   4.509   5.629  13.924 -0.2579 -0.5514 -0.3610
16566TIP3    H171113   4.507   5.723  13.939 -1.6854 -0.5764 -0.3770
16566TIP3    H271114   4.593   5.601  13.961 -0.1638  0.5978  0.3204
16567TIP3   OH271115   4.771   4.164   2.410 -0.6208 -0.0499 -0.5212
16567TIP3    H171116   4.712   4.122   2.347 -0.0073 -0.9006 -0.5355
16567TIP3    H271117   4.830   4.094   2.437 -2.1397 -0.2144  2.5484
16568TIP3   OH271118   2.557   4.719  12.971  0.0628  0.0145 -0.2434
16568TIP3    H171119   2.583   4.644  12.918  0.8918  1.1488 -1.4630
16568TIP3    H271120   2.566   4.794  12.913 -0.9403  1.0493  0.9074
16569TIP3   OH271121   2.595   6.771  14.329 -0.1188 -0.5880  0.6032
16569TIP3    H171122   2.516   6.718  14.317 -0.7100  0.7476 -1.5959
16569TIP3    H271123   2.662   6.708  14.355 -0.9096 -2.3456 -1.5245
16570TIP3   OH271124   2.082   3.981   2.198 -0.1906 -0.0319  0.0714
16570TIP3    H171125   2.126   3.984   2.283  3.0239 -2.9124 -1.3829
16570TIP3    H271126   2.049   4.070   2.185  1.0744  0.9915  3.3833
16571TIP3   OH271127   6.463   1.036   1.128 -0.0338 -0.1581  0.0759
16571TIP3    H171128   6.461   1.131   1.144 -0.1612 -0.3336  1.1587
16571TIP3    H271129   6.488   1.028   1.036  0.3637  0.9189  0.0767
16572TIP3   OH271130   3.570   3.107   1.772 -0.2923  0.2273  0.1775
16572TIP3    H171131   3.525   3.108   1.856  0.6262  0.7584  0.6728
16572TIP3    H271132   3.544   3.189   1.730 -1.9735 -0.7458 -0.7280
16573TIP3   OH271133   1.749   2.505  12.059  0.0473  0.0899  0.0527
16573TIP3    H171134   1.789   2.531  12.142 -1.3562 -1.0272  1.1229
16573TIP3    H271135   1.706   2.585  12.027 -0.2176  0.2888  0.8904
16574TIP3   OH271136   1.763   5.140  12.422 -0.8579 -0.4750 -0.2404
16574TIP3    H171137   1.743   5.180  12.338  0.1582  0.6257  0.0306
16574TIP3    H271138   1.794   5.052  12.400 -0.6202 -0.1978 -1.0213
16575TIP3   OH271139   5.556   2.674  11.045 -0.2405  0.2955  0.0431
16575TIP3    H171140   5.636   2.628  11.020 -1.4804 -1.8821 -0.0123
16575TIP3    H271141   5.502   2.674  10.966 -0.9974  0.2056  0.5468
16576TIP3   OH271142   2.533   1.334  14.418 -0.2887  0.6913 -0.0791
16576TIP3    H171143   2.599   1.394  14.452  0.4293 -0.0786 -0.1173
16576TIP3    H271144   2.509   1.280  14.494  0.1067  0.0784 -0.3891
16577TIP3   OH271145   1.559   6.687  14.255  0.2144 -0.4519  0.2261
16577TIP3    H171146   1.482   6.676  14.311  0.1806 -1.0608  0.0710
16577TIP3    H271147   1.556   6.779  14.228 -0.8235 -0.6222 -0.2878
16578TIP3   OH271148   6.405   6.504   5.560 -0.3453  0.7761  0.2808
16578TIP3    H171149   6.420   6.586   5.513 -3.5901  0.9324 -0.6043
16578TIP3    H271150   6.373   6.531   5.647  1.5927  0.4360  1.1347
16579TIP3   OH271151   0.821   6.555   4.205  0.0451 -0.3485  0.5150
16579TIP3    H171152   0.738   6.509   4.193  0.5957 -0.8346 -1.6108
16579TIP3    H271153   0.887   6.485   4.203  0.6769  0.2670 -0.0483
16580TIP3   OH271154   5.729   1.315  15.763  0.0711  0.8081 -0.1950
16580TIP3    H171155   5.641   1.354  15.763 -1.1020 -1.6574  3.0071
16580TIP3    H271156   5.759   1.323  15.853  1.9095 -1.0705 -0.6013
16581TIP3   OH271157   3.557   5.798  14.573  0.0479 -0.2683 -0.1188
16581TIP3    H171158   3.499   5.763  14.506 -0.3510  1.3269 -0.6316
16581TIP3    H271159   3.562   5.892  14.554  1.4529 -0.1059  0.9317
16582TIP3   OH271160   0.558   2.867  13.024  0.2697 -0.0445  0.1953
16582TIP3    H171161   0.642   2.839  13.060 -0.1278 -1.4942  0.0275
16582TIP3    H271162   0.505   2.787  13.020 -0.2490  0.3800 -2.0928
16583TIP3   OH271163   3.509   0.319   3.493  0.0428  0.5156 -0.0659
16583TIP3    H171164   3.456   0.369   3.555  0.3403  0.8377 -0.0687
16583TIP3    H271165   3.599   0.345   3.513  0.2200 -0.2308  0.1223
16584TIP3   OH271166   4.871   0.198   1.279  0.4381  0.0271  0.2333
16584TIP3    H171167   4.786   0.238   1.299  0.4141 -0.3035  0.8009
16584TIP3    H271168   4.918   0.200   1.362  1.1374  0.5696 -0.1715
16585TIP3   OH271169   5.842   3.820  15.141  0.1023 -0.0050  0.6708
16585TIP3    H171170   5.855   3.841  15.233 -1.3449 -0.1856  0.9280
16585TIP3    H271171   5.752   3.847  15.123  0.8117  1.3575 -1.0585
16586TIP3   OH271172   3.333   4.923   0.483 -0.3525  0.1678  0.3672
16586TIP3    H171173   3.315   4.874   0.563  0.0661  0.8838  0.9058
16586TIP3    H271174   3.255   4.910   0.429 -0.7788 -0.0489  1.0272
16587TIP3   OH271175   5.309   1.930   2.438  0.4398  0.8170  0.1827
16587TIP3    H171176   5.330   1.872   2.512 -1.9537 -1.4057 -0.8075
16587TIP3    H271177   5.381   1.917   2.376  1.0459  0.5945  0.9194
16588TIP3   OH271178   1.165   5.445  10.992 -0.0088  0.2811 -0.1809
16588TIP3    H171179   1.130   5.375  10.937  1.3662 -2.3309  2.1318
16588TIP3    H271180   1.235   5.484  10.940  0.5634 -1.4253 -0.7117
16589TIP3   OH271181   0.058   4.516   5.198 -0.2203  0.0904 -0.6042
16589TIP3    H171182   0.073   4.454   5.269 -0.5113  0.4227 -0.2495
16589TIP3    H271183   0.127   4.497   5.135  0.4618  0.2542  0.0813
16590TIP3   OH271184   4.987   4.597  15.382 -0.4050  0.2446 -0.8799
16590TIP3    H171185   4.944   4.634  15.459  2.7445  0.7403  0.7158
16590TIP3    H271186   5.014   4.509  15.410 -0.5101 -0.1267 -1.9192
16591TIP3   OH271187   0.763   0.475   6.354 -0.1617 -0.3066  0.2208
16591TIP3    H171188   0.825   0.541   6.325 -0.2415 -0.5217 -0.4539
16591TIP3    H271189   0.692   0.478   6.290 -1.2028  0.4333  1.3750
16592TIP3   OH271190   3.181   2.766   6.042 -0.9785 -0.2698  0.3682
16592TIP3    H171191   3.233   2.807   6.111  1.9540  0.7661 -2.3585
16592TIP3    H271192   3.188   2.672   6.060 -0.1668 -0.0254  1.4241
16593TIP3   OH271193   6.555   4.353   1.495 -0.1093 -0.1167  0.2674
16593TIP3    H171194   6.519   4.323   1.578  0.8529 -1.2834  0.2885
16593TIP3    H271195   6.514   4.297   1.429  0.1790 -0.1349  0.1023
16594TIP3   OH271196   5.311   4.073   5.648  0.2180 -0.4357 -0.1119
16594TIP3    H171197   5.313   3.986   5.688  3.4852 -0.3218  0.1410
16594TIP3    H271198   5.370   4.066   5.573 -1.9720  0.7322 -1.9850
16595TIP3   OH271199   4.380   5.782  15.165  0.7862  0.5234 -0.0431
16595TIP3    H171200   4.414   5.699  15.199  1.3077  0.7374 -0.0366
16595TIP3    H271201   4.340   5.759  15.082 -0.3341  0.0277  0.6183
16596TIP3   OH271202   6.024   5.784  16.900 -0.0453  0.6570  0.6028
16596TIP3    H171203   6.012   5.723  16.827 -1.4190  1.0878  0.4678
16596TIP3    H271204   6.057   5.729  16.972  0.2956  0.0490 -0.0178
16597TIP3   OH271205   1.741   4.981  11.234 -0.7392 -0.0863 -0.1898
16597TIP3    H171206   1.781   4.896  11.214  0.8448  0.2119  1.5783
16597TIP3    H271207   1.739   5.027  11.150 -0.7165 -1.5025 -0.9795
16598TIP3   OH271208   5.133   2.131  16.210  0.0262  0.1010  0.4041
16598TIP3    H171209   5.141   2.226  16.199  0.8415 -0.2150 -2.1416
16598TIP3    H271210   5.130   2.118  16.304 -1.9679  2.7891  0.7779
16599TIP3   OH271211   4.227   5.606  13.143 -0.3172 -1.0741  0.1040
16599TIP3    H171212   4.273   5.634  13.222  1.3831 -1.4790 -0.7276
16599TIP3    H271213   4.198   5.687  13.102  1.8902 -0.6566 -0.6843
16600TIP3   OH271214   2.011   4.069   0.221  0.2514 -0.2262  0.6266
16600TIP3    H171215   1.917   4.073   0.204  0.2583 -0.2119  0.5929
16600TIP3    H271216   2.052   4.102   0.142  0.2779 -0.0123  0.7282
16601TIP3   OH271217   5.005   4.791   3.325 -0.2035 -0.2137  0.2302
16601TIP3    H171218   5.046   4.858   3.380  0.2575 -0.9505  0.8001
16601TIP3    H271219   4.945   4.745   3.383  0.6887 -1.3537  0.2675
16602TIP3   OH271220   2.293   0.459   0.225  0.3094 -0.7462  0.1078
16602TIP3    H171221   2.246   0.538   0.250 -0.3546 -1.1897  0.2581
16602TIP3    H271222   2.357   0.446   0.296 -0.1381 -0.8050  0.5072
16603TIP3   OH271223   6.472   6.076  17.217  0.5336 -0.6344  0.4920
16603TIP3    H171224   6.386   6.114  17.240  0.6129  1.0350 -1.7506
16603TIP3    H271225   6.464   5.984  17.239 -1.6412 -0.3788  0.9305
16604TIP3   OH271226   4.767   4.464   5.207  0.3507  0.3863  0.1710
16604TIP3    H171227   4.698   4.453   5.272  0.4861  1.5502  0.5318
16604TIP3    H271228   4.848   4.465   5.258  0.6251 -0.9198 -0.2432
16605TIP3   OH271229   6.250   5.407   6.324 -0.2627  0.2741  0.2091
16605TIP3    H171230   6.283   5.498   6.325 -0.7415  0.4492  0.0422
16605TIP3    H271231   6.157   5.416   6.306 -0.5758 -0.1710  1.5699
16606TIP3   OH271232   2.239   6.542   4.086  0.2430  0.2503 -0.3292
16606TIP3    H171233   2.193   6.534   4.170  0.3896  1.2503 -0.1444
16606TIP3    H271234   2.171   6.567   4.024  0.4764  1.5451 -0.0923
16607TIP3   OH271235   6.287   6.045   0.810  0.1470  0.1918  0.8984
16607TIP3    H171236   6.379   6.050   0.836  0.2322 -0.0540  0.6475
16607TIP3    H271237   6.252   5.972   0.860  0.7029 -1.3093 -0.8334
16608TIP3   OH271238   6.180   5.831   5.237 -0.6550  0.1687  0.3436
16608TIP3    H171239   6.150   5.901   5.296  0.2072 -0.0428  1.0574
16608TIP3    H271240   6.242   5.781   5.290 -0.8981 -0.8473 -0.3243
16609TIP3   OH271241   4.464   2.120  13.991 -0.3301 -0.1953 -0.7973
16609TIP3    H171242   4.422   2.111  14.077  0.9737 -1.6190 -0.3036
16609TIP3    H271243   4.398   2.166  13.938 -0.6024  2.0353  1.3483
16610TIP3   OH271244   0.677   4.622   1.195 -0.2635 -0.0826 -0.0374
16610TIP3    H171245   0.715   4.682   1.131  0.9050 -0.9816 -0.1974
16610TIP3    H271246   0.729   4.637   1.275  0.5205 -1.3890 -0.2863
16611TIP3   OH271247   1.852   1.812  15.658  0.5079  0.0102 -0.0023
16611TIP3    H171248   1.818   1.874  15.723 -1.4556  0.3245 -1.2715
16611TIP3    H271249   1.773   1.775  15.617  1.7008 -0.6639 -1.7443
16612TIP3   OH271250   5.069   4.174  13.107  0.2396 -0.2420  0.1615
16612TIP3    H171251   5.094   4.213  13.023  0.7364 -1.9101 -0.4903
16612TIP3    H271252   5.019   4.242  13.151 -0.1535  0.6131 -1.5497
16613TIP3   OH271253   2.415   6.623   5.335 -0.1381  0.3492 -0.4147
16613TIP3    H171254   2.498   6.655   5.300  1.3894 -1.7397  1.1603
16613TIP3    H271255   2.368   6.703   5.361  1.0915  1.5918 -1.9065
16614TIP3   OH271256   3.730   0.175  14.678 -0.1221 -0.1732  0.1403
16614TIP3    H171257   3.732   0.228  14.757  2.5803 -0.1675  0.1238
16614TIP3    H271258   3.686   0.229  14.613 -0.8573  0.4840  1.1724
16615TIP3   OH271259   5.355   5.994  13.516  0.2947 -0.5250 -0.1294
16615TIP3    H171260   5.327   5.921  13.461  0.7252  0.0238 -1.0821
16615TIP3    H271261   5.450   5.986  13.521  0.6315  1.5692 -2.5462
16616TIP3   OH271262   4.685   2.342  16.861 -0.6324 -0.1334 -0.4080
16616TIP3    H171263   4.769   2.384  16.843 -1.2480  0.7503 -1.3551
16616TIP3    H271264   4.677   2.274  16.793  0.7358 -2.3828  1.6290
16617TIP3   OH271265   3.441   6.318  11.726  0.4888 -0.0116 -0.3693
16617TIP3    H171266   3.423   6.405  11.762  1.7637 -0.2841  1.0011
16617TIP3    H271267   3.514   6.332  11.666  1.2609 -0.2497  0.4949
16618TIP3   OH271268   2.729   5.334  13.400  0.4755  0.0225 -0.2251
16618TIP3    H171269   2.769   5.421  13.397 -1.1199  0.7941  0.7261
16618TIP3    H271270   2.638   5.348  13.376  0.7166 -1.7437 -2.4052
16619TIP3   OH271271   1.021   4.852  13.083  0.5962 -0.3735  0.4905
16619TIP3    H171272   0.960   4.778  13.080  0.5937 -0.3167 -3.1129
16619TIP3    H271273   0.983   4.917  13.023  2.8164  0.7693  0.2639
16620TIP3   OH271274   6.372   4.419   5.800  0.4877 -0.0552  0.3294
16620TIP3    H171275   6.449   4.468   5.773  1.5110 -1.2328  1.0698
16620TIP3    H271276   6.378   4.336   5.753  0.6695 -0.8930  1.8093
16621TIP3   OH271277   6.671   0.665  13.495 -0.1166  0.1451  0.0113
16621TIP3    H171278   6.753   0.666  13.444 -1.6338  0.4074 -2.4880
16621TIP3    H271279   6.700   0.671  13.586  2.6279  0.8841 -0.8542
16622TIP3   OH271280   4.054   5.387   2.408 -0.2274  0.0586  0.3635
16622TIP3    H171281   3.983   5.330   2.439 -1.4428  1.0854 -0.5161
16622TIP3    H271282   4.091   5.424   2.489 -0.5986 -0.5831  0.8354
16623TIP3   OH271283   0.633   2.346   3.367  0.3559 -0.2667  0.3780
16623TIP3    H171284   0.617   2.401   3.291 -2.6026  0.4740  1.4921
16623TIP3    H271285   0.668   2.264   3.330 -0.8594  0.1412 -1.7508
16624TIP3   OH271286   5.768   0.974   3.036 -0.4004  0.1521 -0.6638
16624TIP3    H171287   5.835   0.947   3.098 -0.7807 -0.8344 -0.6679
16624TIP3    H271288   5.809   1.042   2.983  0.5360 -0.3353 -0.5645
16625TIP3   OH271289   3.340   1.733  13.184 -0.2806  0.5690 -0.6275
16625TIP3    H171290   3.321   1.757  13.093 -1.0242 -0.4871 -0.7606
16625TIP3    H271291   3.351   1.638  13.183 -1.2192  0.4222  0.5235
16626TIP3   OH271292   6.597   1.666   4.119  0.0088 -0.5109  0.6173
16626TIP3    H171293   6.518   1.710   4.090  0.8403  0.2438 -0.5266
16626TIP3    H271294   6.644   1.645   4.039  1.7419  0.4989  1.3509
16627TIP3   OH271295   3.479   4.455   1.791  0.3886 -0.7619 -0.1880
16627TIP3    H171296   3.543   4.384   1.796  2.1022  0.7925  0.5112
16627TIP3    H271297   3.490   4.503   1.873 -2.6469 -1.2291  0.5729
16628TIP3   OH271298   1.017   1.917  13.834  0.3459  0.1534  0.0381
16628TIP3    H171299   1.071   1.845  13.866 -1.6830  0.1970  3.9815
16628TIP3    H271300   1.059   1.995  13.870  0.3909  0.5848 -0.9624
16629TIP3   OH271301   5.542   0.185  10.377  0.2513  0.0594  0.6603
16629TIP3    H171302   5.477   0.141  10.432 -0.7551  0.2707 -0.3425
16629TIP3    H271303   5.626   0.153  10.410 -0.3986 -1.2595  1.0972
16630TIP3   OH271304   5.952   0.064   1.441  0.0564 -0.1636  0.3072
16630TIP3    H171305   5.867   0.077   1.398 -0.2049 -0.4086  0.7454
16630TIP3    H271306   5.984  -0.019   1.405  1.0775  0.9548 -1.4286
16631TIP3   OH271307   1.132   5.788  13.729  0.0154 -0.2096  0.4530
16631TIP3    H171308   1.171   5.874  13.743 -1.5074  0.6847 -0.7368
16631TIP3    H271309   1.194   5.743  13.671 -0.3632  0.9683 -0.9021
16632TIP3   OH271310   0.451   2.466  11.857  0.6142  0.0906  0.1736
16632TIP3    H171311   0.359   2.452  11.835  0.1800  0.8276  1.5440
16632TIP3    H271312   0.466   2.412  11.934  0.9626  1.0832  0.8080
16633TIP3   OH271313   6.254   0.116  13.001 -0.0878 -0.3448 -0.4496
16633TIP3    H171314   6.300   0.032  13.014  0.0540 -0.6818 -2.8903
16633TIP3    H271315   6.201   0.102  12.923 -1.7546  1.1643  0.3922
16634TIP3   OH271316   1.818   1.537   4.312 -0.4867  0.0266 -0.4905
16634TIP3    H171317   1.896   1.592   4.301  0.0433 -0.5263  0.4479
16634TIP3    H271318   1.754   1.573   4.250  0.4009  0.6928 -1.0285
16635TIP3   OH271319   2.068   1.742  12.169  0.2572 -0.1334 -0.1344
16635TIP3    H171320   2.125   1.709  12.099  0.6581  0.2137  0.0247
16635TIP3    H271321   2.036   1.664  12.213  0.1708 -0.3492 -0.5730
16636TIP3   OH271322   4.169   3.132   0.490  0.5555  0.6605 -0.2565
16636TIP3    H171323   4.152   3.224   0.512 -0.5959  0.2006  0.8997
16636TIP3    H271324   4.181   3.089   0.575 -1.7897 -0.7786 -0.5930
16637TIP3   OH271325   2.089   3.293   5.555  0.3487 -0.2852 -0.1442
16637TIP3    H171326   2.019   3.330   5.502  2.0223  0.9367 -1.5467
16637TIP3    H271327   2.056   3.207   5.582 -1.8124  0.4231 -0.4601
16638TIP3   OH271328   6.269   2.516   2.265 -0.3214  0.1911 -0.3642
16638TIP3    H171329   6.349   2.519   2.213 -1.6322 -2.0300 -2.6572
16638TIP3    H271330   6.277   2.437   2.318 -1.6785 -0.9791 -1.8528
16639TIP3   OH271331   4.953   0.827  14.921 -0.4682 -0.3105 -0.1664
16639TIP3    H171332   4.932   0.905  14.973  0.6205 -0.0783 -0.0732
16639TIP3    H271333   4.953   0.858  14.830  0.4802 -0.0740 -0.0939
16640TIP3   OH271334   2.548   4.132   5.767  0.2300  0.0169 -0.2587
16640TIP3    H171335   2.470   4.185   5.784  0.1227  0.2405 -1.4209
16640TIP3    H271336   2.588   4.120   5.854  1.6134  4.0445 -0.2403
16641TIP3   OH271337   1.851   2.664   3.609  0.3384 -0.0646  0.2788
16641TIP3    H171338   1.884   2.629   3.526 -1.7231 -1.5162  0.0460
16641TIP3    H271339   1.908   2.738   3.628  1.5046 -0.3746 -1.8935
16642TIP3   OH271340   4.514   3.215   0.037 -0.2967  0.0548  0.7607
16642TIP3    H171341   4.570   3.216   0.115  0.1621 -1.1050  0.4503
16642TIP3    H271342   4.429   3.187   0.070 -0.4420  0.8348  1.0612
16643TIP3   OH271343   2.807   4.171   2.736 -0.2697  0.8213  0.3523
16643TIP3    H171344   2.806   4.085   2.692  0.6016  1.1299 -0.2941
16643TIP3    H271345   2.730   4.216   2.703 -0.6668  0.3316  0.6014
16644TIP3   OH271346   0.543   5.255  12.029  0.2835 -0.2173  0.1265
16644TIP3    H171347   0.585   5.212  12.104  2.6053 -2.4069 -2.3203
16644TIP3    H271348   0.484   5.189  11.993  1.6595 -0.3587 -1.9233
16645TIP3   OH271349   5.042   4.022  16.067 -0.3481  0.4505 -0.0596
16645TIP3    H171350   5.004   4.069  15.993  1.6091 -1.4739 -2.3602
16645TIP3    H271351   5.115   4.078  16.095  0.1430  0.2566 -0.9079
16646TIP3   OH271352   3.880   1.529   1.267  0.3909  0.2871  0.2524
16646TIP3    H171353   3.929   1.588   1.210  0.4499  0.8610  0.8993
16646TIP3    H271354   3.793   1.524   1.228  0.5348  0.3951 -0.0844
16647TIP3   OH271355   1.082   2.479  14.828 -0.6221  0.3721 -0.8648
16647TIP3    H171356   1.164   2.501  14.783 -0.1709 -0.1307 -0.3052
16647TIP3    H271357   1.098   2.504  14.920 -1.2452  0.6531 -0.8337
16648TIP3   OH271358   5.979   3.758  13.207  0.0366 -0.3772  0.4130
16648TIP3    H171359   5.927   3.689  13.249  0.2030 -0.4561  0.4911
16648TIP3    H271360   6.062   3.758  13.255 -0.2937  0.4801  0.9785
16649TIP3   OH271361   1.877   0.186  15.563 -0.0275  0.3382  0.1202
16649TIP3    H171362   1.857   0.262  15.617 -1.4385  1.5479 -2.0098
16649TIP3    H271363   1.967   0.164  15.585  0.3801  2.5798  0.8461
16650TIP3   OH271364   2.168   6.029   5.345  0.2575  0.3704  0.4264
16650TIP3    H171365   2.155   6.006   5.253 -0.7752 -0.3391  0.7335
16650TIP3    H271366   2.104   5.975   5.392  2.2128 -0.8903  1.7460
16651TIP3   OH271367   0.394   0.927  14.583  0.4135 -0.3994  0.0662
16651TIP3    H171368   0.430   1.014  14.599  0.7225 -0.3249 -0.9900
16651TIP3    H271369   0.307   0.943  14.545  0.8375 -0.5336 -0.9775
16652TIP3   OH271370   6.725   1.957  16.892 -0.5531 -0.2909  0.1290
16652TIP3    H171371   6.786   2.002  16.834 -0.4956  0.2004  0.5600
16652TIP3    H271372   6.641   2.000  16.876 -0.6816 -0.6324 -0.1038
16653TIP3   OH271373   3.960   1.975   5.273 -0.1912 -0.8401 -0.1331
16653TIP3    H171374   4.035   1.999   5.327 -0.4468 -0.8140  0.2163
16653TIP3    H271375   3.918   1.903   5.321 -0.5287 -0.6885 -0.1994
16654TIP3   OH271376   0.203   2.560   1.937 -0.6580 -0.2761  0.1928
16654TIP3    H171377   0.177   2.597   1.853  0.8459 -1.4328 -0.8014
16654TIP3    H271378   0.292   2.528   1.923 -0.3531 -0.4024  2.2507
16655TIP3   OH271379   3.820   3.194  16.743  0.5847  0.0640  0.4946
16655TIP3    H171380   3.859   3.241  16.669 -0.2083 -0.5289 -0.3075
16655TIP3    H271381   3.893   3.180  16.804  1.4321 -0.2588 -0.5861
16656TIP3   OH271382   0.148   4.997  16.523  0.1983 -0.0397  0.6640
16656TIP3    H171383   0.163   5.028  16.433  0.0375 -1.5505  0.0934
16656TIP3    H271384   0.229   4.952  16.546 -0.0943 -0.4194  0.9463
16657TIP3   OH271385   2.196   4.677  11.985  0.7718 -0.6433 -0.2474
16657TIP3    H171386   2.105   4.695  12.008  0.1258 -0.8965 -2.4422
16657TIP3    H271387   2.242   4.759  12.000 -0.3311  0.2231 -1.5258
16658TIP3   OH271388   3.474   1.926  13.734 -0.6725 -0.2967 -0.3291
16658TIP3    H171389   3.394   1.917  13.682 -0.5867 -1.0247 -0.3421
16658TIP3    H271390   3.445   1.908  13.824 -1.1823  2.6791  0.1814
16659TIP3   OH271391   5.935   6.747  12.463  0.2050  0.6400 -0.3104
16659TIP3    H171392   5.952   6.697  12.543  1.0579  0.2041 -0.7621
16659TIP3    H271393   5.857   6.707  12.425 -1.3671  2.0506  1.2847
16660TIP3   OH271394   5.581   6.430  16.165  0.1473 -0.2948 -0.3948
16660TIP3    H171395   5.673   6.403  16.168 -0.2622 -1.7809 -0.5030
16660TIP3    H271396   5.534   6.358  16.207 -1.0327  0.1651 -0.8947
16661TIP3   OH271397   2.161   3.496   3.001 -0.0794  0.3050  0.0068
16661TIP3    H171398   2.108   3.536   2.932  0.6868 -0.8220 -1.2682
16661TIP3    H271399   2.166   3.403   2.976  1.7740  0.2296  0.5583
16662TIP3   OH271400   6.341   1.967  12.240 -0.3732  0.1146 -0.6402
16662TIP3    H171401   6.314   1.973  12.148 -2.7714  0.3694  0.0631
16662TIP3    H271402   6.318   2.052  12.277  1.8699  0.5195 -0.1088
16663TIP3   OH271403   1.191   3.709   4.488  0.5370 -0.1605  0.0723
16663TIP3    H171404   1.255   3.747   4.548 -1.8660  0.6619  2.2466
16663TIP3    H271405   1.224   3.621   4.471  2.0046  0.0786  1.5293
16664TIP3   OH271406   5.861   4.265  10.229 -0.7574  0.0135  0.3527
16664TIP3    H171407   5.926   4.199  10.253  0.4375  0.4141 -1.6578
16664TIP3    H271408   5.811   4.227  10.157 -0.9744  0.7539  0.0987
16665TIP3   OH271409   1.468   6.127   5.129 -0.4353  0.1526  0.5087
16665TIP3    H171410   1.426   6.052   5.087  0.5939 -0.7608  1.0934
16665TIP3    H271411   1.559   6.125   5.097 -0.2172  0.7332  1.0771
16666TIP3   OH271412   2.884   2.903  15.984  0.2515 -0.3338 -0.1019
16666TIP3    H171413   2.841   2.845  15.921  1.5037 -0.3100 -1.0006
16666TIP3    H271414   2.975   2.873  15.986  0.2110 -0.3498  1.7316
16667TIP3   OH271415   4.080   3.601   5.480  0.2020  0.2532  0.3628
16667TIP3    H171416   4.105   3.691   5.499  0.2149  0.1894  0.6434
16667TIP3    H271417   4.130   3.578   5.401  0.8818  0.1895  0.8121
16668TIP3   OH271418   3.694   1.369  15.653 -0.3254  0.0632  0.0376
16668TIP3    H171419   3.599   1.370  15.640 -0.2810  1.8908 -0.2814
16668TIP3    H271420   3.707   1.310  15.728 -1.4053 -2.7182 -1.8995
16669TIP3   OH271421   3.075   6.353   2.505  0.1439 -0.2585  0.2541
16669TIP3    H171422   3.102   6.261   2.512 -3.4694 -1.3059  1.8928
16669TIP3    H271423   3.024   6.357   2.424  0.4966  0.3716  0.0583
16670TIP3   OH271424   0.009   5.803   4.989  0.3878  0.1981  0.8336
16670TIP3    H171425   0.070   5.876   4.998  1.1781 -0.6720  2.7994
16670TIP3    H271426  -0.060   5.822   5.053  1.9074 -2.0365  3.2079
16671TIP3   OH271427   0.462   4.421  13.764 -0.1560  0.4092 -0.7202
16671TIP3    H171428   0.552   4.445  13.740 -0.5681  1.6031 -1.1173
16671TIP3    H271429   0.416   4.505  13.770 -0.6731 -0.0317  1.8649
16672TIP3   OH271430   3.319   6.051  12.465  0.3815 -0.4305 -0.3569
16672TIP3    H171431   3.225   6.062  12.478  0.1869  1.1165 -2.6842
16672TIP3    H271432   3.349   6.000  12.540 -1.7641  1.6940  2.0125
16673TIP3   OH271433   2.088   4.234   3.314 -0.0060 -0.4179  0.8113
16673TIP3    H171434   2.065   4.293   3.386 -0.1127 -1.2969  1.5084
16673TIP3    H271435   2.004   4.207   3.277  0.0892  2.5580 -1.7596
16674TIP3   OH271436   3.878   4.751   2.053 -0.4003  0.4924  0.0028
16674TIP3    H171437   3.970   4.730   2.067 -0.5035  0.7406  1.1354
16674TIP3    H271438   3.879   4.825   1.993  0.1377  0.3862 -0.1172
16675TIP3   OH271439   4.248   2.976  11.275  0.4937  0.0635  0.0589
16675TIP3    H171440   4.238   2.963  11.370 -0.9761 -0.5165 -0.1635
16675TIP3    H271441   4.210   2.897  11.236  1.1599  0.2660 -1.0149
16676TIP3   OH271442   5.810   5.663   1.926  0.0963  0.4469 -0.1601
16676TIP3    H171443   5.791   5.622   2.010 -0.0452 -0.6849 -0.7324
16676TIP3    H271444   5.746   5.734   1.919 -1.8231 -1.2771 -0.5908
16677TIP3   OH271445   1.806   3.974   5.322  0.1856 -0.1409 -0.0208
16677TIP3    H171446   1.805   4.069   5.329 -0.1884 -0.1478  0.0170
16677TIP3    H271447   1.744   3.944   5.388 -0.9666 -0.3378 -1.1749
16678TIP3   OH271448   6.510   0.216  14.909 -0.1618  0.1453 -0.4338
16678TIP3    H171449   6.582   0.278  14.905 -0.2887  0.3326  0.0781
16678TIP3    H271450   6.544   0.143  14.961 -0.8268  0.9029  1.0905
16679TIP3   OH271451   2.983   6.173  12.168  0.1944 -0.0784  0.6090
16679TIP3    H171452   2.970   6.267  12.174  0.2980 -0.1036  1.3695
16679TIP3    H271453   2.994   6.155  12.075  0.9208  0.7598  0.5344
16680TIP3   OH271454   4.218   1.871  15.825 -0.2575  0.0238  0.5663
16680TIP3    H171455   4.133   1.884  15.782  0.4494  3.8708  0.1521
16680TIP3    H271456   4.231   1.776  15.825 -2.9678 -0.4226 -2.5064
16681TIP3   OH271457   3.745   4.212  14.348 -0.1618  0.0740  0.0493
16681TIP3    H171458   3.669   4.198  14.405  0.0113 -1.6275 -0.1247
16681TIP3    H271459   3.721   4.289  14.296 -0.5279  1.3512  2.0346
16682TIP3   OH271460   2.375   4.102   3.312 -0.1476 -0.2630 -0.2172
16682TIP3    H171461   2.401   4.084   3.221 -1.0174 -1.4588 -0.2342
16682TIP3    H271462   2.296   4.155   3.304  2.3852  3.7032 -0.1680
16683TIP3   OH271463   4.320   3.280  16.608  0.5505 -0.2377  0.2255
16683TIP3    H171464   4.410   3.256  16.630  0.3182  0.3865  1.9643
16683TIP3    H271465   4.323   3.375  16.595  0.2529 -0.2940 -0.2647
16684TIP3   OH271466   0.167   2.114   1.894 -0.2193 -0.5981  0.2564
16684TIP3    H171467   0.175   2.127   1.988  0.6711  0.9310 -0.0164
16684TIP3    H271468   0.224   2.040   1.875  0.2303 -0.3965  0.8078
16685TIP3   OH271469   4.547   1.602  11.808  0.2353 -0.1060  0.2438
16685TIP3    H171470   4.637   1.589  11.840 -0.4996 -2.0455  1.5656
16685TIP3    H271471   4.555   1.603  11.713  1.9195  1.7456  0.3629
16686TIP3   OH271472   1.312   1.731   4.703  0.0360  0.1223  0.1274
16686TIP3    H171473   1.221   1.760   4.695  0.6616  1.9486 -0.6346
16686TIP3    H271474   1.344   1.729   4.613  0.7123 -0.7236  0.3771
16687TIP3   OH271475   4.015   1.431  10.988 -0.3976 -0.0286 -0.1015
16687TIP3    H171476   3.944   1.372  10.963 -0.8099  0.5061 -0.2049
16687TIP3    H271477   3.998   1.511  10.939  0.6185 -0.1041 -0.5920
16688TIP3   OH271478   0.627   2.057   3.562  0.0002  0.3528 -0.0223
16688TIP3    H171479   0.572   2.134   3.543  0.7970  1.1446  0.8630
16688TIP3    H271480   0.630   2.010   3.479  0.4288  1.8668 -0.8911
16689TIP3   OH271481   6.576   2.849  14.330 -0.0176 -0.0353 -0.1145
16689TIP3    H171482   6.659   2.897  14.322 -1.0781  1.6125 -1.5700
16689TIP3    H271483   6.578   2.787  14.258  0.2914 -0.5529  0.3329
16690TIP3   OH271484   3.251   0.204   2.358  0.7421  0.1886  0.2971
16690TIP3    H171485   3.331   0.193   2.308  0.2352 -0.2509 -0.4328
16690TIP3    H271486   3.259   0.141   2.430  0.1791 -1.3190 -0.9133
16691TIP3   OH271487   6.124   0.026  11.042 -0.6928  0.0076  0.0801
16691TIP3    H171488   6.204   0.065  11.008  0.4546 -1.4193  1.0479
16691TIP3    H271489   6.101  -0.042  10.978  0.0043 -0.9164  0.7907
16692TIP3   OH271490   1.996   3.890   0.546 -0.1375 -0.4442  0.1694
16692TIP3    H171491   2.058   3.821   0.567 -0.2798 -0.3873  0.7904
16692TIP3    H271492   1.995   3.946   0.624 -0.2508  0.0856 -0.2085
16693TIP3   OH271493   1.684   1.668   0.085 -0.1922 -0.2366  0.2300
16693TIP3    H171494   1.644   1.691   0.002  4.5012 -1.1862 -2.4555
16693TIP3    H271495   1.630   1.595   0.118 -2.4739  0.5526 -1.6205
16694TIP3   OH271496   3.303   5.762  15.714  0.8120  0.3152 -0.2484
16694TIP3    H171497   3.391   5.782  15.683  0.0995  1.5354 -1.5239
16694TIP3    H271498   3.266   5.846  15.740  0.1537 -0.2423  0.6756
16695TIP3   OH271499   5.949   6.691  14.702  0.2319 -0.0556 -0.0920
16695TIP3    H171500   5.867   6.706  14.749 -0.0391 -0.5890 -0.3999
16695TIP3    H271501   6.002   6.639  14.762  0.5155  0.6562  0.2812
16696TIP3   OH271502   6.446   4.553   3.731  0.2762  0.4807 -0.0551
16696TIP3    H171503   6.370   4.607   3.708  0.7734  1.1090 -0.2497
16696TIP3    H271504   6.468   4.507   3.651 -1.4290 -1.6579  0.6291
16697TIP3   OH271505   6.072   0.617   4.492  0.3569 -0.6844 -0.2537
16697TIP3    H171506   5.994   0.572   4.525  0.4726  0.1255  1.1914
16697TIP3    H271507   6.044   0.708   4.480  1.0792 -0.3733  0.3382
16698TIP3   OH271508   0.032   5.899   1.042 -0.0323 -0.0584  0.0775
16698TIP3    H171509   0.096   5.916   1.110  0.2070 -0.6687  0.0086
16698TIP3    H271510  -0.050   5.883   1.089  0.6290 -2.8837  0.3910
16699TIP3   OH271511   2.657   0.486  12.247  0.2322 -0.1466  0.0469
16699TIP3    H171512   2.612   0.423  12.191 -0.4177  0.5200 -0.2008
16699TIP3    H271513   2.732   0.515  12.196 -0.4792  0.6240 -0.5831
16700TIP3   OH271514   5.753   1.603  11.115  0.4273 -0.0386 -0.3711
16700TIP3    H171515   5.685   1.549  11.155  1.1950 -0.6094  0.1773
16700TIP3    H271516   5.719   1.625  11.028 -0.8418  0.4264  0.2449
16701TIP3   OH271517   3.346   1.217   5.503 -0.2838  0.1066  0.4147
16701TIP3    H171518   3.366   1.136   5.456  0.2463 -0.2134  1.1894
16701TIP3    H271519   3.302   1.188   5.583 -0.8126  0.6295  0.3185
16702TIP3   OH271520   2.088   0.223  15.225  0.0091 -0.3376  0.7054
16702TIP3    H171521   2.053   0.202  15.138  0.0124 -0.9157  0.8405
16702TIP3    H271522   2.108   0.316  15.221 -2.4439  0.2333  0.9276
16703TIP3   OH271523   6.125   5.429   0.113  0.4219  0.6396  0.6731
16703TIP3    H171524   6.141   5.375   0.190 -0.6949  2.5391  2.2741
16703TIP3    H271525   6.034   5.413   0.091  0.6586  0.3264 -0.0932
16704TIP3   OH271526   5.593   5.083  15.692 -0.0534 -0.0968  0.6601
16704TIP3    H171527   5.597   4.995  15.656  0.2443  0.6959 -1.3137
16704TIP3    H271528   5.500   5.106  15.689 -0.0241 -0.0183  0.3763
16705TIP3   OH271529   0.417   5.681  16.119  0.4479 -0.4499 -0.2338
16705TIP3    H171530   0.390   5.592  16.097  0.0570 -0.0109 -1.6147
16705TIP3    H271531   0.421   5.682  16.214  1.4208 -2.2243 -0.2367
16706TIP3   OH271532   3.312   1.347   1.436  0.0506 -0.7331 -0.2612
16706TIP3    H171533   3.303   1.439   1.411 -1.5466 -1.1128 -1.1664
16706TIP3    H271534   3.341   1.303   1.355  1.5652 -0.9290  0.3618
16707TIP3   OH271535   1.494   1.817   6.496 -0.3219 -0.5514  0.2457
16707TIP3    H171536   1.579   1.854   6.472 -0.5045 -1.1797 -1.4553
16707TIP3    H271537   1.432   1.862   6.439 -0.4991 -3.7238 -2.2192
16708TIP3   OH271538   3.581   1.463   5.197  0.3397 -0.0487  0.2430
16708TIP3    H171539   3.524   1.440   5.125 -0.3805 -0.0161  0.7988
16708TIP3    H271540   3.623   1.544   5.170 -0.3183  0.2384  0.0753
16709TIP3   OH271541   3.662   5.304  11.058  0.3992  0.5769  0.0705
16709TIP3    H171542   3.674   5.398  11.053 -1.2395  0.7487 -1.0932
16709TIP3    H271543   3.584   5.292  11.112  0.6208 -0.1177  0.2509
16710TIP3   OH271544   1.413   4.763   1.053 -0.3807 -0.5382 -0.0835
16710TIP3    H171545   1.407   4.858   1.064 -1.8030 -0.5141 -0.9732
16710TIP3    H271546   1.497   4.749   1.009  0.2205  0.2334  0.8037
16711TIP3   OH271547   5.138   5.103  12.445 -0.2538 -0.1492  0.0246
16711TIP3    H171548   5.195   5.083  12.520  0.1976 -0.5770 -0.4261
16711TIP3    H271549   5.059   5.141  12.484  0.3990  0.5757  0.6483
16712TIP3   OH271550   1.319   3.820   5.370 -0.4081 -0.0486 -0.0418
16712TIP3    H171551   1.346   3.729   5.367  1.1256  0.3207  1.6166
16712TIP3    H271552   1.351   3.852   5.454 -2.0341  1.6819 -0.0380
16713TIP3   OH271553   5.740   1.644   4.073  0.8487 -0.4261 -0.3377
16713TIP3    H171554   5.673   1.602   4.126 -0.3933  0.5079 -1.1433
16713TIP3    H271555   5.754   1.584   4.000  1.0116 -0.6988 -0.0830
16714TIP3   OH271556   3.490   0.199   2.163 -0.5228 -0.1089 -0.4628
16714TIP3    H171557   3.584   0.201   2.149 -0.8573 -0.0997 -2.9731
16714TIP3    H271558   3.470   0.107   2.181  0.0082 -0.0217  0.6484
16715TIP3   OH271559   4.244   4.850   3.524 -0.1091 -0.1942  0.2600
16715TIP3    H171560   4.334   4.821   3.515 -0.1177 -1.4148  3.5584
16715TIP3    H271561   4.240   4.932   3.475  2.3832 -0.8704 -1.1433
16716TIP3   OH271562   5.521   0.309   2.680  0.0417 -0.0887  0.3668
16716TIP3    H171563   5.458   0.282   2.613  1.9930 -0.0431 -1.5580
16716TIP3    H271564   5.602   0.264   2.656  1.1168  0.9069  2.0086
16717TIP3   OH271565   6.659   5.302  11.043 -0.5937 -0.5957 -0.0942
16717TIP3    H171566   6.600   5.337  11.111 -1.2501 -0.3295 -0.7867
16717TIP3    H271567   6.616   5.221  11.014  1.7375 -2.8858  2.6272
16718TIP3   OH271568   0.736   4.897  11.687 -0.3454 -0.3230  0.5271
16718TIP3    H171569   0.826   4.909  11.656  0.0561 -1.8107  1.0808
16718TIP3    H271570   0.740   4.918  11.780 -0.9486  1.3050  0.2032
16719TIP3   OH271571   2.806   5.737   4.779 -0.1000 -0.5626 -0.1700
16719TIP3    H171572   2.840   5.670   4.838 -1.8159 -1.1198  0.2067
16719TIP3    H271573   2.772   5.805   4.837  0.1243 -0.1373 -0.5383
16720TIP3   OH271574   3.115   0.374   5.030  0.4994  0.0602 -0.1381
16720TIP3    H171575   3.104   0.279   5.030  0.3658  0.0724 -0.8594
16720TIP3    H271576   3.151   0.394   4.943 -0.2239  0.7476 -0.2863
16721TIP3   OH271577   5.228   6.362  16.982 -0.2719 -0.0797  0.5196
16721TIP3    H171578   5.297   6.428  16.985 -0.1134 -0.2525  0.6998
16721TIP3    H271579   5.202   6.357  16.890  0.6772 -0.7728  0.2907
16722TIP3   OH271580   0.973   0.760  10.960  0.2567  0.1755  0.1421
16722TIP3    H171581   1.024   0.809  11.024  1.2750  1.5342 -1.6648
16722TIP3    H271582   0.884   0.759  10.996  0.3828  2.6804  0.5973
16723TIP3   OH271583   1.648   3.029   0.187  0.4950  0.6810 -0.1922
16723TIP3    H171584   1.679   3.092   0.121  2.0574  0.9247  0.7345
16723TIP3    H271585   1.696   2.949   0.168 -1.4637 -0.2532 -1.3408
16724TIP3   OH271586   1.373   1.326   3.779 -0.2338 -0.0381  0.2941
16724TIP3    H171587   1.316   1.400   3.758 -2.0891 -1.2457  0.9178
16724TIP3    H271588   1.419   1.307   3.698 -0.6298  1.0452 -0.1983
16725TIP3   OH271589   1.619   5.272  14.814 -0.2774 -0.4451 -0.2425
16725TIP3    H171590   1.587   5.326  14.885 -1.0314  1.1704 -1.7895
16725TIP3    H271591   1.700   5.234  14.848  0.4399  1.9006  0.7503
16726TIP3   OH271592   2.093   3.653  14.054  0.3162  0.1843 -0.6264
16726TIP3    H171593   2.134   3.578  14.011  0.5423  0.1048 -0.2735
16726TIP3    H271594   2.060   3.618  14.137  1.0088  0.6213 -0.1576
16727TIP3   OH271595   6.585   3.126  16.560  0.0006  0.8559 -0.2967
16727TIP3    H171596   6.496   3.092  16.545 -0.5303  1.1616  1.9363
16727TIP3    H271597   6.607   3.094  16.648  1.7852  1.4765 -0.5140
16728TIP3   OH271598   4.768   2.875  14.948  0.0236 -0.2826  0.2622
16728TIP3    H171599   4.834   2.842  14.888 -0.5372  0.1126 -0.5718
16728TIP3    H271600   4.711   2.799  14.965  0.9126 -0.7321  1.2993
16729TIP3   OH271601   2.450   4.418  13.893  0.0255 -0.4387 -0.1336
16729TIP3    H171602   2.428   4.376  13.976  1.0117 -0.4375  0.1297
16729TIP3    H271603   2.514   4.485  13.915 -1.9275  1.5962 -0.4723
16730TIP3   OH271604   4.326   5.805   4.121 -0.5203 -0.4114 -0.0378
16730TIP3    H171605   4.381   5.807   4.199  1.8331  1.3547 -1.6927
16730TIP3    H271606   4.364   5.736   4.067 -1.2077 -0.5691 -0.3310
16731TIP3   OH271607   3.610   6.715   0.218  0.2429  0.0269  0.1484
16731TIP3    H171608   3.594   6.626   0.187 -0.3831  0.1000  0.2573
16731TIP3    H271609   3.619   6.767   0.138  1.5038 -0.2847  0.0771
16732TIP3   OH271610   1.578   3.738   4.089 -0.8559 -0.4979 -0.1183
16732TIP3    H171611   1.592   3.805   4.022 -2.2409 -0.7356 -0.6490
16732TIP3    H271612   1.559   3.659   4.040  0.2351 -1.1754  0.5229
16733TIP3   OH271613   1.442   4.976  16.347 -0.4734  0.0761  0.2555
16733TIP3    H171614   1.480   4.911  16.406  2.3321  1.1539 -0.3132
16733TIP3    H271615   1.458   5.060  16.390  0.6703  0.7939 -1.5072
16734TIP3   OH271616   3.924   1.154  15.543 -0.2565  0.0440 -0.0762
16734TIP3    H171617   3.918   1.241  15.503  1.3900 -0.1015 -0.6642
16734TIP3    H271618   3.834   1.123  15.546 -0.6666  1.0643 -1.4553
16735TIP3   OH271619   4.289   4.420   4.796 -0.1525 -0.0739 -0.0937
16735TIP3    H171620   4.257   4.481   4.731  0.6299  0.3141 -0.1135
16735TIP3    H271621   4.227   4.346   4.792 -0.4897  0.2447 -0.7911
16736TIP3   OH271622   2.778   5.281   2.180  0.0472  0.1780  0.4964
16736TIP3    H171623   2.784   5.275   2.085 -0.2166  1.3146  0.4006
16736TIP3    H271624   2.760   5.192   2.209 -0.1944 -0.1157 -0.5476
16737TIP3   OH271625   4.950   1.901  15.912  0.2270 -0.0726  0.5415
16737TIP3    H171626   4.881   1.891  15.977  0.3554 -3.3663  0.2742
16737TIP3    H271627   4.905   1.934  15.834 -0.3298  1.6029  1.5494
16738TIP3   OH271628   3.961   6.064  11.616 -0.1420 -0.6241  0.3528
16738TIP3    H171629   3.923   6.016  11.689  0.1643 -1.0190  0.2530
16738TIP3    H271630   3.886   6.086  11.561 -0.3384 -0.5801  0.6401
16739TIP3   OH271631   4.145   5.580   5.357  0.2330 -0.4705  0.7783
16739TIP3    H171632   4.238   5.591   5.374  0.8756 -2.8104 -0.9671
16739TIP3    H271633   4.138   5.568   5.262 -1.8834  0.0531  0.8278
16740TIP3   OH271634   0.275   0.923   0.051 -0.3210  0.4771 -0.7505
16740TIP3    H171635   0.365   0.913   0.081 -1.1739 -0.7900  1.5231
16740TIP3    H271636   0.236   0.985   0.113 -1.0871  0.7987 -1.5460
16741TIP3   OH271637   4.697   4.813   3.250  0.1562 -0.0680  0.0067
16741TIP3    H171638   4.697   4.806   3.155 -0.2207 -1.3293  0.0890
16741TIP3    H271639   4.788   4.796   3.276  0.0912 -0.5754 -0.0836
16742TIP3   OH271640   0.451   3.070   4.283  0.2495  0.0202  0.3516
16742TIP3    H171641   0.495   3.123   4.217 -0.6298  0.7982  0.3812
16742TIP3    H271642   0.358   3.083   4.266  0.0227 -0.6919  1.0155
16743TIP3   OH271643   6.128   2.610  13.234  0.5420  0.1141 -0.0944
16743TIP3    H171644   6.178   2.547  13.286 -0.3615  0.8050  1.6641
16743TIP3    H271645   6.116   2.568  13.149  4.1094 -0.0525 -0.5647
16744TIP3   OH271646   5.630   5.096   2.443 -0.5658 -0.0718 -0.4512
16744TIP3    H171647   5.687   5.106   2.367 -0.3683  2.0041 -0.0567
16744TIP3    H271648   5.641   5.004   2.469  0.1966 -0.5122 -2.2490
16745TIP3   OH271649   5.827   2.965   6.683 -0.3475  0.5472  0.1172
16745TIP3    H171650   5.737   2.981   6.711  0.0281 -0.0259  1.7206
16745TIP3    H271651   5.879   3.030   6.732  0.2904 -0.2799  0.5431
16746TIP3   OH271652   4.238   5.214   3.708 -0.7967  0.1401  0.4238
16746TIP3    H171653   4.286   5.258   3.638 -0.1906  2.1940  2.0948
16746TIP3    H271654   4.150   5.201   3.672 -0.5887  1.4816 -0.6109
16747TIP3   OH271655   4.575   0.713  14.756 -0.2561 -0.3268  0.5641
16747TIP3    H171656   4.572   0.726  14.851 -2.1070 -0.2372  0.5075
16747TIP3    H271657   4.577   0.617  14.745 -1.3301 -0.3745  0.6860
16748TIP3   OH271658   5.065   1.132   3.183  1.0577 -0.0097  0.2756
16748TIP3    H171659   5.089   1.211   3.231 -0.2162  0.8273 -0.4053
16748TIP3    H271660   5.002   1.087   3.240  0.1269  0.5935 -0.2623
16749TIP3   OH271661   6.023   6.133  14.700 -0.6980  0.6261 -0.2978
16749TIP3    H171662   5.985   6.068  14.642 -1.2070 -0.6202  1.3700
16749TIP3    H271663   6.016   6.094  14.787  1.6034  1.7081  0.4114
16750TIP3   OH271664   5.177   2.102   2.882  0.4304  0.0472 -0.1942
16750TIP3    H171665   5.129   2.037   2.935 -0.3337 -0.6678 -1.7183
16750TIP3    H271666   5.262   2.063   2.867  0.7778  0.4104  0.7989
16751TIP3   OH271667   4.659   6.298  12.091  1.0596  0.1981  0.0287
16751TIP3    H171668   4.718   6.343  12.029 -0.2147 -0.1368 -1.4756
16751TIP3    H271669   4.663   6.206  12.066  2.5159 -0.3484  2.1535
16752TIP3   OH271670   3.979   3.259  11.946 -0.2640  0.9758  0.0024
16752TIP3    H171671   4.062   3.275  11.902 -0.2870  1.6862  0.2200
16752TIP3    H271672   3.960   3.167  11.928 -0.3243  1.2888 -1.5434
16753TIP3   OH271673   1.502   2.712   5.592 -0.1015  0.1531  0.4485
16753TIP3    H171674   1.469   2.652   5.525  0.2194  1.3184 -0.7814
16753TIP3    H271675   1.438   2.706   5.663 -0.3132 -1.2842  0.1469
16754TIP3   OH271676   3.061   6.417  15.605  0.1563  0.5034 -0.2770
16754TIP3    H171677   3.089   6.463  15.526  0.1394  0.0301 -0.5582
16754TIP3    H271678   3.113   6.337  15.606 -1.7501 -0.7732 -1.2381
16755TIP3   OH271679   4.376   0.157  11.815 -0.4296 -0.2710  0.0247
16755TIP3    H171680   4.363   0.078  11.867 -1.4305  0.5873  1.1216
16755TIP3    H271681   4.288   0.183  11.788 -0.3038  1.4611  1.1995
16756TIP3   OH271682   1.555   1.868   1.927  0.3176  0.1121 -0.0877
16756TIP3    H171683   1.503   1.788   1.917  0.0915  0.4213 -1.4268
16756TIP3    H271684   1.606   1.874   1.846  2.9098 -0.5078  1.4357
16757TIP3   OH271685   6.419   5.921   2.805  0.4525 -0.0110  0.1636
16757TIP3    H171686   6.457   5.864   2.872 -0.9652 -0.2360  0.7997
16757TIP3    H271687   6.453   6.008   2.827  2.1506 -0.4992 -0.4606
16758TIP3   OH271688   1.462   3.193   0.305  0.3732 -0.3926 -0.1698
16758TIP3    H171689   1.425   3.138   0.374 -0.7412 -0.0766 -0.5032
16758TIP3    H271690   1.541   3.146   0.277  1.8521  0.4023  2.5623
16759TIP3   OH271691   3.194   6.384   1.388  0.0537 -0.2578  0.1244
16759TIP3    H171692   3.148   6.310   1.427  1.5525 -1.5634 -0.5235
16759TIP3    H271693   3.139   6.410   1.315  0.0673 -1.5031 -0.3547
16760TIP3   OH271694   4.752   2.522  12.201  0.2516 -0.5393 -0.1265
16760TIP3    H171695   4.674   2.566  12.233 -0.1192 -0.4184 -1.1826
16760TIP3    H271696   4.724   2.477  12.121  1.5788  0.6951 -1.3274
16761TIP3   OH271697   2.890   0.333   3.440 -0.3252  0.0508 -0.4086
16761TIP3    H171698   2.851   0.283   3.511  0.2327  0.4693  0.2045
16761TIP3    H271699   2.977   0.295   3.428 -0.3733  0.0552 -0.7890
16762TIP3   OH271700   3.717   0.232  16.322 -0.0195 -0.6938 -0.9630
16762TIP3    H171701   3.740   0.147  16.361  1.8431  0.1226 -0.2104
16762TIP3    H271702   3.622   0.237  16.330  0.0147 -1.9839  0.5263
16763TIP3   OH271703   3.622   2.954  11.926 -0.2798  0.1183  0.2883
16763TIP3    H171704   3.578   2.896  11.988 -1.5411  0.1253 -0.5690
16763TIP3    H271705   3.587   2.928  11.840  1.2436  0.2635 -0.4045
16764TIP3   OH271706   1.594   5.270   3.638  0.4461  0.5141  0.3293
16764TIP3    H171707   1.594   5.265   3.734  1.0991 -2.2982  0.2466
16764TIP3    H271708   1.502   5.270   3.614  0.2626 -1.5818  0.9075
16765TIP3   OH271709   0.819   0.212  13.060 -0.0237 -0.2770 -0.0521
16765TIP3    H171710   0.829   0.275  13.131 -0.3380 -2.3002  1.8395
16765TIP3    H271711   0.737   0.166  13.079  0.8145 -2.1047 -0.7049
16766TIP3   OH271712   2.329   0.055   1.863 -0.1289 -0.5198  0.0100
16766TIP3    H171713   2.394  -0.007   1.896  0.5127 -0.1849 -0.6128
16766TIP3    H271714   2.281   0.006   1.797  0.2855 -0.4100 -0.3811
16767TIP3   OH271715   3.294   2.499   1.322  0.2606 -0.2139 -0.2605
16767TIP3    H171716   3.323   2.561   1.389 -0.6860  0.6786 -0.6658
16767TIP3    H271717   3.368   2.439   1.312  0.4967 -0.2245  1.4155
16768TIP3   OH271718   5.528   5.781   2.458  0.7670 -0.4920  0.1753
16768TIP3    H171719   5.581   5.861   2.452  1.2005 -0.5843  2.2684
16768TIP3    H271720   5.438   5.810   2.442  1.0502  0.2416 -0.1138
16769TIP3   OH271721   4.518   5.510   4.617  0.5873  0.2820 -0.2910
16769TIP3    H171722   4.588   5.482   4.675 -0.4604  0.3036  1.0088
16769TIP3    H271723   4.461   5.564   4.672  0.3976  1.5916 -1.7292
16770TIP3   OH271724   6.560   0.505  14.595  0.4017  0.3592  0.7102
16770TIP3    H171725   6.531   0.590  14.628  0.6451  0.7637 -0.1001
16770TIP3    H271726   6.503   0.488  14.520  1.1527  0.3890  0.1226
16771TIP3   OH271727   4.916   3.634   5.318 -0.3926  0.0374 -0.1685
16771TIP3    H171728   4.975   3.580   5.369  1.7493  1.4634 -1.0758
16771TIP3    H271729   4.964   3.655   5.238 -1.9746  1.5220 -0.7854
16772TIP3   OH271730   2.913   3.203  16.830 -0.3955 -0.2435  0.2281
16772TIP3    H171731   2.940   3.249  16.751  2.8108 -1.6094  0.4321
16772TIP3    H271732   2.859   3.266  16.878  1.5273  2.3041 -0.8377
16773TIP3   OH271733   5.984   1.232  11.433 -0.0736 -0.0422 -0.3044
16773TIP3    H171734   6.054   1.250  11.370  1.2024  0.7218  1.3150
16773TIP3    H271735   5.907   1.213  11.378  1.7788 -2.6444 -2.1476
16774TIP3   OH271736   6.612   2.994   5.419 -0.0452 -0.4767  0.2182
16774TIP3    H171737   6.637   2.996   5.511 -1.6329 -0.4884  0.6629
16774TIP3    H271738   6.662   2.921   5.382  0.2317 -0.7756  1.1627
16775TIP3   OH271739   3.159   5.192  15.415  0.4507 -0.1224  0.0257
16775TIP3    H171740   3.168   5.169  15.322  2.1036 -1.6293  0.5456
16775TIP3    H271741   3.133   5.284  15.414  0.4742 -0.1150 -1.9336
16776TIP3   OH271742   3.241   3.344  15.046  0.5008 -0.0469  0.0444
16776TIP3    H171743   3.157   3.376  15.014  0.8920  0.0544 -0.9208
16776TIP3    H271744   3.296   3.339  14.967  1.0112 -1.3160  0.4582
16777TIP3   OH271745   0.810   5.737  12.675  0.2383  0.2195  0.2199
16777TIP3    H171746   0.899   5.703  12.684 -0.4158 -0.9622  2.3924
16777TIP3    H271747   0.754   5.661  12.686 -1.0920  1.1456 -0.0740
16778TIP3   OH271748   2.886   1.803  13.367 -0.0486  0.1455 -0.2367
16778TIP3    H171749   2.798   1.776  13.393  0.0178  0.3485  0.1883
16778TIP3    H271750   2.902   1.754  13.286  0.1442 -1.2633  0.6344
16779TIP3   OH271751   3.470   5.222  11.256  0.3931  0.2124  0.0469
16779TIP3    H171752   3.545   5.167  11.280 -0.2780 -1.8363 -2.4115
16779TIP3    H271753   3.448   5.268  11.337  2.6619 -1.0967  1.4683
16780TIP3   OH271754   5.044   4.203   2.558  0.4174 -0.4597  0.3874
16780TIP3    H171755   5.011   4.113   2.554  2.8609 -1.3271 -1.9055
16780TIP3    H271756   5.081   4.219   2.472 -0.3162  2.9401  0.6233
16781TIP3   OH271757   1.936   4.191   0.960  0.7536 -0.3917  0.2508
16781TIP3    H171758   1.983   4.242   0.893  0.0715 -0.9207 -0.6463
16781TIP3    H271759   1.998   4.185   1.033  0.9698  1.4373  0.2444
16782TIP3   OH271760   3.044   0.089   4.317  0.1903  0.3127 -0.3077
16782TIP3    H171761   3.119   0.055   4.366  1.1657  1.8479 -0.6978
16782TIP3    H271762   3.050   0.184   4.326 -0.9246  0.5144 -1.4907
16783TIP3   OH271763   2.716   0.594   2.689 -0.4688 -0.0155  0.6149
16783TIP3    H171764   2.657   0.519   2.686 -1.0746  0.5322 -1.7218
16783TIP3    H271765   2.804   0.556   2.689 -0.7758 -0.7365  0.1614
16784TIP3   OH271766   5.234   5.293  15.510 -0.2262  0.1406 -0.1303
16784TIP3    H171767   5.239   5.370  15.454  0.9315 -0.9779 -1.6268
16784TIP3    H271768   5.192   5.227  15.455 -0.2215 -0.5966  0.7550
16785TIP3   OH271769   6.540   6.377  16.266 -0.0124  0.2594  0.2953
16785TIP3    H171770   6.588   6.447  16.221  1.6002 -0.4626  0.8579
16785TIP3    H271771   6.606   6.333  16.320 -1.5923  0.0545  2.0904
16786TIP3   OH271772   3.591   4.565  11.579 -0.0921 -0.2606  0.7043
16786TIP3    H171773   3.601   4.641  11.522  0.4539 -1.2307 -0.5253
16786TIP3    H271774   3.500   4.568  11.608  0.6179  2.3718  2.8757
16787TIP3   OH271775   2.388   3.519  14.243  0.2927  0.2540  0.3341
16787TIP3    H171776   2.374   3.574  14.166 -1.8451 -0.1552  0.4025
16787TIP3    H271777   2.418   3.435  14.208  0.5437  0.4703  0.0297
16788TIP3   OH271778   1.074   1.826   4.697 -0.2326 -0.2149  0.2535
16788TIP3    H171779   0.997   1.835   4.640  0.5796 -0.2075 -0.8752
16788TIP3    H271780   1.113   1.914   4.698  1.6479 -0.9701 -1.9556
16789TIP3   OH271781   1.115   4.790  16.865 -0.1394 -0.3505 -0.1896
16789TIP3    H171782   1.039   4.827  16.910  0.1952  1.1504 -0.8102
16789TIP3    H271783   1.174   4.763  16.935 -0.4882  0.1113  0.2842
16790TIP3   OH271784   4.330   5.133  12.817  0.1061  0.1650 -0.0423
16790TIP3    H171785   4.237   5.152  12.805 -0.2645 -0.6891  1.3537
16790TIP3    H271786   4.333   5.076  12.894  1.7006 -0.5997 -0.6550
16791TIP3   OH271787   1.338   4.432  12.709  0.4760  0.1709 -0.3759
16791TIP3    H171788   1.434   4.425  12.714  0.4605 -0.3558 -0.7653
16791TIP3    H271789   1.321   4.460  12.619  0.1903 -1.2663 -0.7801
16792TIP3   OH271790   6.107   0.850  12.252  0.1938 -0.3159  0.2137
16792TIP3    H171791   6.076   0.929  12.208  2.5044  1.1154  1.0530
16792TIP3    H271792   6.140   0.880  12.337 -0.0156 -2.3734  1.0782
16793TIP3   OH271793   5.290   4.333  13.606  0.3573  0.3950 -0.9989
16793TIP3    H171794   5.326   4.252  13.570 -0.7562 -1.0547  1.0449
16793TIP3    H271795   5.217   4.354  13.547 -0.5065 -1.1290 -0.5228
16794TIP3   OH271796   2.087   4.024  15.211  0.0942 -0.4938 -0.6551
16794TIP3    H171797   2.113   4.114  15.192  1.0370 -0.5529  0.3014
16794TIP3    H271798   2.003   4.033  15.257  1.1333  0.0214  1.1917
16795TIP3   OH271799   5.640   0.544   1.896 -0.1538 -0.1766 -0.3953
16795TIP3    H171800   5.714   0.541   1.835 -0.3154  0.7387 -0.6507
16795TIP3    H271801   5.578   0.604   1.855  0.3428  1.5618  1.3281
16796TIP3   OH271802   6.256   4.902   2.901  0.1924  0.5784  0.6524
16796TIP3    H171803   6.236   4.917   2.993  0.3958  0.9538  0.6351
16796TIP3    H271804   6.351   4.917   2.894  0.2905 -0.0772  0.5097
16797TIP3   OH271805   3.719   0.516  17.105  0.0797 -0.0684 -0.1447
16797TIP3    H171806   3.721   0.503  17.010  0.1108 -0.2262 -0.1228
16797TIP3    H271807   3.633   0.554  17.122 -0.0017 -0.2244 -0.2121
16798TIP3   OH271808   1.728   4.345   3.839  0.4358 -0.3598 -0.2707
16798TIP3    H171809   1.665   4.414   3.859 -0.3815 -1.2141  0.1393
16798TIP3    H271810   1.811   4.391   3.829 -0.2605  0.7902 -0.8892
16799TIP3   OH271811   0.428   3.574  13.768 -0.0739  0.0052  0.4780
16799TIP3    H171812   0.369   3.531  13.707 -0.2921  1.3616 -0.2782
16799TIP3    H271813   0.490   3.621  13.713 -0.8752  2.0567  1.2683
16800TIP3   OH271814   2.582   2.791  13.429 -0.1207  0.1011 -0.0902
16800TIP3    H171815   2.536   2.857  13.378 -0.1167  1.0873  1.1555
16800TIP3    H271816   2.539   2.792  13.514  0.0380 -1.3385  0.0240
16801TIP3   OH271817   5.146   0.537   2.293 -0.3104  0.6939 -0.1729
16801TIP3    H171818   5.080   0.595   2.255 -1.2732 -1.0200 -1.1910
16801TIP3    H271819   5.160   0.571   2.381 -1.6409  1.8340 -0.3844
16802TIP3   OH271820   6.294   5.580  16.241 -0.0828 -0.1730  0.2856
16802TIP3    H171821   6.223   5.580  16.176  0.5970 -0.9078 -0.4763
16802TIP3    H271822   6.270   5.650  16.302 -2.5537 -1.7798  1.2549
16803TIP3   OH271823   5.537   1.398   1.356 -0.0747 -0.1712 -0.0324
16803TIP3    H171824   5.619   1.421   1.314  0.3894 -0.5590  0.6582
16803TIP3    H271825   5.509   1.318   1.311  0.6639 -0.8557  0.7076
16804TIP3   OH271826   0.811   3.747   5.996  0.6013  0.6545 -0.4834
16804TIP3    H171827   0.768   3.684   6.054  1.8208  0.1170 -0.1319
16804TIP3    H271828   0.766   3.830   6.013 -1.6474 -0.2982 -1.6279
16805TIP3   OH271829   1.258   4.839   4.017  0.3026  0.1561  0.2778
16805TIP3    H171830   1.292   4.754   3.988  1.2070  0.9261 -0.9882
16805TIP3    H271831   1.296   4.852   4.104 -0.6329 -1.1716  0.9047
16806TIP3   OH271832   6.590   3.482  15.511  0.1334  0.1272 -0.0344
16806TIP3    H171833   6.574   3.391  15.535 -0.1889 -0.3839 -2.0226
16806TIP3    H271834   6.684   3.486  15.492  0.4219  0.5710  1.4789
16807TIP3   OH271835   6.675   3.003   6.293  0.3729  0.2474  0.4019
16807TIP3    H171836   6.597   3.047   6.328  0.9728  0.1704  1.8860
16807TIP3    H271837   6.742   3.017   6.360  0.6901 -2.5389  0.7364
16808TIP3   OH271838   3.830   3.844   2.583  0.0607  0.0701  0.1320
16808TIP3    H171839   3.759   3.791   2.619 -0.8425  0.8767 -0.4283
16808TIP3    H271840   3.815   3.931   2.620  2.6873 -0.4691  2.6376
16809TIP3   OH271841   6.307   2.814   0.153  0.1332 -0.2247  0.6962
16809TIP3    H171842   6.231   2.852   0.109 -0.0790  0.6222  1.7745
16809TIP3    H271843   6.355   2.769   0.084 -0.9488 -0.1240 -0.1340
16810TIP3   OH271844   4.492   0.325   0.416 -0.5378 -0.4194  0.2195
16810TIP3    H171845   4.458   0.362   0.498 -0.8323  1.1699 -0.6079
16810TIP3    H271846   4.440   0.367   0.347 -0.4250 -1.8852 -0.7896
16811TIP3   OH271847   3.839   0.159  13.307  0.3249 -0.1052  0.0149
16811TIP3    H171848   3.765   0.190  13.255 -0.6789  0.1681  1.5887
16811TIP3    H271849   3.913   0.212  13.277  0.0119 -0.7192 -1.9133
16812TIP3   OH271850   3.866   0.533  13.322 -0.0186 -0.0837 -0.1107
16812TIP3    H171851   3.924   0.607  13.303 -0.7525 -0.1975 -3.1187
16812TIP3    H271852   3.920   0.470  13.369  1.4555  1.0794 -0.2340
16813TIP3   OH271853   5.753   5.716   3.704  0.2599 -0.5899 -0.0487
16813TIP3    H171854   5.720   5.798   3.668  2.2981  0.7584  1.0881
16813TIP3    H271855   5.709   5.708   3.789 -1.9427 -2.0457 -1.2795
16814TIP3   OH271856   0.934   0.961   4.886  0.5835  0.5758  0.2204
16814TIP3    H171857   0.941   0.990   4.976  0.0017  2.9160 -0.4639
16814TIP3    H271858   0.979   1.028   4.835  0.7336 -0.6108 -1.2462
16815TIP3   OH271859   5.603   4.471  12.117  0.7243 -0.1372  0.0323
16815TIP3    H171860   5.602   4.567  12.120 -0.2090 -0.1341 -0.2917
16815TIP3    H271861   5.694   4.449  12.096  0.9886  0.6693  0.3173
16816TIP3   OH271862   2.934   0.600  13.919 -0.0424 -0.1856  0.4497
16816TIP3    H171863   2.870   0.668  13.895 -1.2338 -1.5686 -0.3578
16816TIP3    H271864   2.995   0.598  13.845  0.1438  0.1611  0.5884
16817TIP3   OH271865   1.272   5.826  11.850 -0.1269 -0.3887  0.5638
16817TIP3    H171866   1.276   5.913  11.811 -0.5903 -1.3843 -1.7501
16817TIP3    H271867   1.227   5.840  11.934 -0.9210  1.4713 -0.1424
16818TIP3   OH271868   3.077   4.894   0.379 -0.1405  0.2727  0.2844
16818TIP3    H171869   3.008   4.954   0.404  0.2248  0.3948  1.0190
16818TIP3    H271870   3.032   4.818   0.343 -0.6125  0.8284 -0.2825
16819TIP3   OH271871   5.828   0.596   2.127 -0.1536 -0.7028  0.7977
16819TIP3    H171872   5.888   0.659   2.087 -1.6637  0.3730  0.1532
16819TIP3    H271873   5.753   0.593   2.068 -1.7472 -0.2669  2.7179
16820TIP3   OH271874   0.483   6.236  11.398  0.4430 -0.3403  0.2475
16820TIP3    H171875   0.430   6.161  11.372  2.2521 -1.4434 -0.4071
16820TIP3    H271876   0.551   6.241  11.331  0.8248  1.3811  0.7541
16821TIP3   OH271877   3.780   0.507   2.090  0.1312  0.4201 -0.6630
16821TIP3    H171878   3.811   0.485   2.003  1.2317 -0.3427 -0.0897
16821TIP3    H271879   3.858   0.534   2.138 -0.3887  0.3909  0.2193
16822TIP3   OH271880   1.054   1.188  15.156  0.5332  0.0117 -0.4306
16822TIP3    H171881   1.089   1.125  15.093  0.7580 -0.0288 -0.2669
16822TIP3    H271882   1.069   1.273  15.116 -0.8916 -0.0806 -1.2249
16823TIP3   OH271883   0.887   3.229  15.160  0.1182  0.1788 -0.1762
16823TIP3    H171884   0.812   3.179  15.127 -0.2261  0.1481  0.6465
16823TIP3    H271885   0.944   3.162  15.199  0.7150  0.1662 -1.0428
16824TIP3   OH271886   3.776   1.329  15.047  0.0268 -0.3310 -0.1720
16824TIP3    H171887   3.855   1.281  15.023  0.8487  1.0055 -0.1665
16824TIP3    H271888   3.713   1.308  14.977  0.8053 -0.3822 -0.8692
16825TIP3   OH271889   4.381   2.864  12.273 -0.6710  0.2541  0.0210
16825TIP3    H171890   4.300   2.830  12.235 -1.8905  2.0989  0.9227
16825TIP3    H271891   4.354   2.938  12.327  1.6294  0.9601  0.2818
16826TIP3   OH271892   6.381   6.474  11.584  0.2549 -0.0224  0.1282
16826TIP3    H171893   6.444   6.411  11.619  0.5798  0.0033 -0.3938
16826TIP3    H271894   6.295   6.435  11.599  0.4872 -0.9193 -0.8361
16827TIP3   OH271895   6.528   0.820   3.517  0.4045 -0.5140  0.3874
16827TIP3    H171896   6.503   0.834   3.425 -0.2365  0.0228  0.6396
16827TIP3    H271897   6.483   0.889   3.565  2.6461  0.6960  0.8370
16828TIP3   OH271898   2.514   3.651   2.794 -0.4928 -0.2910  0.1000
16828TIP3    H171899   2.538   3.707   2.868 -1.9331 -0.2105  0.5337
16828TIP3    H271900   2.418   3.656   2.791 -0.4275  0.1309 -2.1044
16829TIP3   OH271901   4.403   0.218  12.596  0.5158 -0.3318  0.0333
16829TIP3    H171902   4.493   0.234  12.568  0.1412 -0.4058 -1.2319
16829TIP3    H271903   4.391   0.275  12.672  1.3717  0.2798 -0.2849
16830TIP3   OH271904   6.323   5.820   3.211 -0.2844  0.4047 -0.3970
16830TIP3    H171905   6.308   5.765   3.134  0.0081 -0.3373  0.0685
16830TIP3    H271906   6.242   5.813   3.261  0.3523 -0.9376  0.4755
16831TIP3   OH271907   0.797   6.361  16.405  0.1725  0.5105  0.3142
16831TIP3    H171908   0.777   6.422  16.334 -0.5314  0.9539  0.8871
16831TIP3    H271909   0.830   6.416  16.476  1.2779  0.0230  0.1924
16832TIP3   OH271910   0.519   1.512   4.771 -0.5367 -0.0274  0.0409
16832TIP3    H171911   0.442   1.505   4.714 -0.0288  0.4468 -0.7127
16832TIP3    H271912   0.488   1.559   4.848 -0.6471  1.5058 -0.9160
16833TIP3   OH271913   6.725   2.957   5.690 -0.1878 -0.2839  0.0272
16833TIP3    H171914   6.736   3.017   5.764  0.5321 -1.5981  1.0031
16833TIP3    H271915   6.652   2.900   5.717  0.1758 -0.8596 -0.2085
16834TIP3   OH271916   6.591   6.675  14.699  0.0570 -0.5428  0.3022
16834TIP3    H171917   6.611   6.628  14.779 -1.2291  0.2173  1.1066
16834TIP3    H271918   6.554   6.609  14.640  1.8903 -1.2932 -0.0359
16835TIP3   OH271919   0.833   2.030  16.871  0.5389 -0.4203  0.2534
16835TIP3    H171920   0.859   1.950  16.825 -3.5355 -1.3555 -0.6631
16835TIP3    H271921   0.866   2.017  16.960  1.6737 -2.1957 -0.3884
16836TIP3   OH271922   3.168   1.761  13.747 -0.1337 -0.3469  0.0763
16836TIP3    H171923   3.175   1.810  13.830 -1.2278  0.9162 -0.5598
16836TIP3    H271924   3.097   1.804  13.700  0.7955 -0.7584 -1.7370
16837TIP3   OH271925   0.440   3.287  14.353 -0.6833  0.3099  0.6085
16837TIP3    H171926   0.459   3.264  14.444 -1.6601  0.5916  0.8906
16837TIP3    H271927   0.457   3.381  14.347 -2.5074  0.6975  1.0275
16838TIP3   OH271928   3.297   3.738  13.869  0.0122 -0.0218 -0.6723
16838TIP3    H171929   3.354   3.756  13.944 -0.2485 -0.7572 -0.2856
16838TIP3    H271930   3.209   3.754  13.902 -0.1169 -0.5305 -0.7555
16839TIP3   OH271931   5.633   6.618   2.832 -0.4316  0.0190  0.2402
16839TIP3    H171932   5.704   6.665   2.788 -0.7748  0.9175  0.6332
16839TIP3    H271933   5.595   6.683   2.891 -0.8489 -0.7873  0.8613
16840TIP3   OH271934   0.331   1.740   2.213 -0.0587 -0.4398  0.7489
16840TIP3    H171935   0.297   1.749   2.124 -0.2553 -0.1212  0.8571
16840TIP3    H271936   0.381   1.820   2.228 -0.5980 -0.1845  1.1792
16841TIP3   OH271937   3.980   6.122  11.996 -0.3813  0.1244 -0.0149
16841TIP3    H171938   4.047   6.141  11.931 -1.0074  2.1615 -0.1161
16841TIP3    H271939   3.994   6.187  12.065 -3.0412  1.5066 -0.6796
16842TIP3   OH271940   4.581   0.955  11.642  0.1838 -0.0884 -0.1809
16842TIP3    H171941   4.572   0.979  11.550  0.4053 -0.5429 -0.3216
16842TIP3    H271942   4.614   0.865  11.640  2.8070  0.8051  0.3127
16843TIP3   OH271943   1.023   0.147  14.472  0.5265 -0.0614 -0.0094
16843TIP3    H171944   1.073   0.220  14.435  1.5056 -1.4202 -1.4110
16843TIP3    H271945   0.998   0.178  14.559  2.9745  1.0561  0.3590
16844TIP3   OH271946   6.168   4.499  15.397 -0.5205  0.0123  0.2683
16844TIP3    H171947   6.164   4.591  15.371 -0.6293  0.1429  0.7314
16844TIP3    H271948   6.247   4.465  15.357  0.5524  0.8074  1.6805
16845TIP3   OH271949   1.814   4.451  13.569  0.3320 -0.3745  0.2826
16845TIP3    H171950   1.760   4.410  13.501  0.3869  1.4912 -0.9441
16845TIP3    H271951   1.761   4.447  13.648 -0.3086 -1.3680 -0.1904
16846TIP3   OH271952   3.576   4.838   0.361 -0.0629 -0.0530 -0.1405
16846TIP3    H171953   3.506   4.895   0.394 -2.8174 -4.1079  1.4136
16846TIP3    H271954   3.540   4.803   0.279  0.4869 -1.5753  0.2707
16847TIP3   OH271955   5.953   6.579  11.112 -0.2293 -0.5536 -0.4013
16847TIP3    H171956   5.869   6.625  11.102 -0.4756 -0.9292 -0.0643
16847TIP3    H271957   5.940   6.523  11.188  0.6204  0.0145  0.1718
16848TIP3   OH271958   3.987   4.225   3.963 -0.0346 -0.5444  0.0059
16848TIP3    H171959   3.969   4.314   3.931  1.1406 -0.7184 -1.1985
16848TIP3    H271960   3.904   4.195   3.998 -0.8310  0.4838 -0.9512
16849TIP3   OH271961   1.896   3.674   5.297  0.4756 -0.0754 -0.1352
16849TIP3    H171962   1.894   3.752   5.352 -0.1370  0.1628 -0.4964
16849TIP3    H271963   1.865   3.604   5.354 -0.0997  0.1600 -0.1500
16850TIP3   OH271964   0.421   1.529   1.761  0.3859 -0.4797 -0.0773
16850TIP3    H171965   0.513   1.524   1.736  1.0767  3.6678  1.1466
16850TIP3    H271966   0.376   1.564   1.683 -0.0039 -1.6301 -0.3733
16851TIP3   OH271967   1.312   4.523   2.003  0.4823 -0.1319  0.0820
16851TIP3    H171968   1.240   4.498   1.945  0.7900 -1.0263  0.0837
16851TIP3    H271969   1.293   4.613   2.027 -0.9592 -0.5447  0.5382
16852TIP3   OH271970   0.620   3.204   4.751  0.6502 -0.3616 -0.5823
16852TIP3    H171971   0.555   3.271   4.773  0.3643 -0.6887 -0.4127
16852TIP3    H271972   0.675   3.198   4.829  0.0373 -1.0579 -0.1944
16853TIP3   OH271973   0.910   2.700   1.123  0.5953  0.9571 -0.4744
16853TIP3    H171974   0.831   2.711   1.177  0.0313  2.3976 -1.5557
16853TIP3    H271975   0.982   2.695   1.186 -0.2686  0.5611  0.4917
16854TIP3   OH271976   0.546   2.256   0.884  0.2967 -0.3270  0.0583
16854TIP3    H171977   0.604   2.215   0.949 -0.9489 -2.7499 -0.3211
16854TIP3    H271978   0.562   2.350   0.895  2.9310 -0.8511  1.2329
16855TIP3   OH271979   1.231   1.656  15.026  0.0839 -0.2977  0.0386
16855TIP3    H171980   1.271   1.696  15.103  0.4782 -2.3255  0.9297
16855TIP3    H271981   1.288   1.680  14.954  0.1105  1.0216  0.4836
16856TIP3   OH271982   6.245   6.371   1.705 -0.1258  0.1471  0.2406
16856TIP3    H171983   6.268   6.354   1.797 -0.2203 -0.8351  0.0841
16856TIP3    H271984   6.314   6.431   1.674 -0.9657  1.7583  1.3905
16857TIP3   OH271985   6.779   3.573  11.056 -0.1997  0.4414  0.3244
16857TIP3    H171986   6.813   3.515  10.988  0.6610  1.3586 -0.0317
16857TIP3    H271987   6.695   3.603  11.023 -1.0915 -1.3198  0.9182
16858TIP3   OH271988   2.796   4.191   3.043 -0.3977  0.4277 -0.1832
16858TIP3    H171989   2.814   4.281   3.073 -0.2301  0.6935 -1.0535
16858TIP3    H271990   2.807   4.196   2.948 -0.5413 -0.4859 -0.2445
16859TIP3   OH271991   3.043   0.908   1.090 -0.0190  0.1155 -0.1898
16859TIP3    H171992   3.134   0.909   1.118  0.7768 -1.3642 -2.4966
16859TIP3    H271993   3.008   0.993   1.116  1.9609  0.6202  0.8915
16860TIP3   OH271994   2.956   4.897  15.299  0.3359 -0.2181  0.3658
16860TIP3    H171995   3.044   4.878  15.333  1.0336  0.3329 -1.0954
16860TIP3    H271996   2.900   4.830  15.338  1.0378  0.5740  2.8758
16861TIP3   OH271997   2.609   4.230  13.048 -0.1345 -0.2916  0.0906
16861TIP3    H171998   2.619   4.230  12.952 -0.1994 -0.5847  0.0837
16861TIP3    H271999   2.515   4.243  13.061  0.0080  0.7358  0.1317
16862TIP3   OH272000   0.873   1.982  14.940 -0.0422  0.4399  0.0003
16862TIP3    H172001   0.928   2.030  14.879  0.9811  0.2805  0.7763
16862TIP3    H272002   0.820   2.049  14.983  0.0425  0.6696 -0.2518
16863TIP3   OH272003   2.171   0.248  11.709  0.3397 -0.4734 -0.2070
16863TIP3    H172004   2.131   0.163  11.688 -1.1974  0.4492 -1.1559
16863TIP3    H272005   2.128   0.276  11.790  0.3961 -0.3291 -0.2275
16864TIP3   OH272006   6.224   1.998  11.634 -0.0956  0.3949 -0.1568
16864TIP3    H172007   6.196   1.942  11.706 -1.3016  0.2014 -0.7723
16864TIP3    H272008   6.190   2.085  11.656  0.8715  0.6772  0.2702
16865TIP3   OH272009   4.671   0.895  13.223  0.1729 -0.4687  0.2547
16865TIP3    H172010   4.706   0.958  13.160 -0.2875  0.0463  0.5022
16865TIP3    H272011   4.739   0.889  13.291 -0.9081  1.8627  1.6321
16866TIP3   OH272012   1.765   3.341   3.339 -0.3707  0.1274 -0.1775
16866TIP3    H172013   1.746   3.344   3.245  0.6985  0.5195 -0.3782
16866TIP3    H272014   1.845   3.391   3.349 -0.3900 -0.0635  0.9275
16867TIP3   OH272015   1.896   4.719  16.307 -0.2778 -0.1913  0.1313
16867TIP3    H172016   1.991   4.713  16.317 -0.5234 -3.5730  0.9767
16867TIP3    H272017   1.884   4.762  16.222  2.0095 -0.0496 -0.1528
16868TIP3   OH272018   6.495   2.501   5.876 -0.0499 -0.5223  0.3658
16868TIP3    H172019   6.545   2.430   5.917  0.2903 -2.3440 -3.0040
16868TIP3    H272020   6.408   2.463   5.860 -0.7743  0.7916  1.1304
16869TIP3   OH272021   3.929   5.590  16.524 -0.1701  0.0337 -0.3479
16869TIP3    H172022   3.945   5.518  16.584  0.3059 -0.5508 -1.1584
16869TIP3    H272023   4.016   5.624  16.503 -0.5194  2.1686  1.6113
16870TIP3   OH272024   4.925   4.240  11.323  0.0190  0.7204 -0.2178
16870TIP3    H172025   5.013   4.221  11.354 -0.4936  1.1694  1.5717
16870TIP3    H272026   4.925   4.213  11.231  1.8418  0.1883 -0.0697
16871TIP3   OH272027   0.136   2.751   3.439  0.7148 -0.4307  0.2812
16871TIP3    H172028   0.161   2.800   3.361  1.2048 -0.1290  0.6225
16871TIP3    H272029   0.042   2.735   3.429  0.7690 -0.3426 -0.3392
16872TIP3   OH272030   3.560   0.464   1.101 -0.2249  0.0216  0.8153
16872TIP3    H172031   3.609   0.499   1.026 -3.2943  0.6162 -1.0253
16872TIP3    H272032   3.539   0.374   1.076 -1.4922  0.3094  0.7950
16873TIP3   OH272033   3.398   4.996  16.011 -0.1220  0.5966 -0.4022
16873TIP3    H172034   3.389   4.932  16.082  1.2766  1.5955  0.6726
16873TIP3    H272035   3.312   4.994  15.967 -0.9083 -0.2268  1.1243
16874TIP3   OH272036   6.222   0.299  14.781  0.1357  0.3411 -0.0659
16874TIP3    H172037   6.266   0.246  14.714  0.9242  2.3803 -1.1997
16874TIP3    H272038   6.143   0.250  14.802  1.5095 -1.9767 -0.0778
16875TIP3   OH272039   6.027   5.981   5.457 -0.0106 -0.0368 -0.4061
16875TIP3    H172040   5.971   5.979   5.535  0.8894 -0.0557  0.2453
16875TIP3    H272041   6.019   6.070   5.423 -0.2408  0.0318 -0.1692
16876TIP3   OH272042   0.652   1.658  12.217 -0.2099  0.1652  0.0239
16876TIP3    H172043   0.732   1.642  12.268 -0.3216 -0.6524 -0.0474
16876TIP3    H272044   0.596   1.707  12.276  0.3859  0.8370  0.0417
16877TIP3   OH272045   3.337   3.512   3.248 -0.2395  0.4694  0.3367
16877TIP3    H172046   3.334   3.557   3.164 -0.5843 -1.1903 -0.5685
16877TIP3    H272047   3.430   3.490   3.260 -0.2734  0.1970  0.1051
16878TIP3   OH272048   6.482   6.047  13.906 -0.7548  0.6715  0.0573
16878TIP3    H172049   6.407   6.056  13.847 -0.1409 -1.3686 -1.0735
16878TIP3    H272050   6.445   6.058  13.993 -1.5926  4.3402 -0.6479
16879TIP3   OH272051   2.897   0.694   3.774  0.5598 -0.1677 -0.6002
16879TIP3    H172052   2.825   0.651   3.820  0.7398 -2.2871 -2.2093
16879TIP3    H272053   2.878   0.788   3.782 -1.2727 -0.6276  0.7440
16880TIP3   OH272054   0.005   4.681  14.172  0.6953  0.1519  0.0318
16880TIP3    H172055   0.085   4.629  14.181 -0.3878 -1.3306  1.4909
16880TIP3    H272056   0.001   4.733  14.252 -2.1221 -3.1815  2.1634
16881TIP3   OH272057   1.449   1.457  11.241  0.8926  0.0022 -0.7637
16881TIP3    H172058   1.489   1.428  11.323 -1.0541 -0.2366  0.1311
16881TIP3    H272059   1.480   1.394  11.176 -1.0210 -2.4505  0.6096
16882TIP3   OH272060   5.141   3.606  15.449  0.5387 -0.6216  0.2568
16882TIP3    H172061   5.178   3.631  15.534  0.5915 -1.1037  0.3777
16882TIP3    H272062   5.209   3.629  15.385 -0.0878  1.1239  0.1824
16883TIP3   OH272063   5.283   2.342   0.771  0.4094  0.0335  0.1187
16883TIP3    H172064   5.297   2.433   0.798 -1.5945  0.5641 -0.5353
16883TIP3    H272065   5.270   2.294   0.853  2.7584  0.0663  0.5523
16884TIP3   OH272066   0.626   4.142   2.359 -0.5781  0.0881  0.2120
16884TIP3    H172067   0.590   4.062   2.321 -0.9808  0.7227 -0.7618
16884TIP3    H272068   0.719   4.140   2.335 -1.1386  1.2361 -2.1438
16885TIP3   OH272069   3.390   5.651   0.529 -0.5782 -0.3598  0.4634
16885TIP3    H172070   3.463   5.644   0.468 -1.0322  0.2837 -0.1535
16885TIP3    H272071   3.341   5.569   0.518 -0.8500 -0.1012 -0.2804
16886TIP3   OH272072   5.518   3.848   3.592 -0.2769  0.4236 -0.0295
16886TIP3    H172073   5.525   3.781   3.660  0.0633  1.6546  1.1605
16886TIP3    H272074   5.424   3.868   3.589 -0.2530  0.5818  0.2801
16887TIP3   OH272075   3.853   4.689   0.060  0.7591 -0.4848  0.7509
16887TIP3    H172076   3.918   4.657  -0.003  1.4223 -0.8018  1.5997
16887TIP3    H272077   3.796   4.614   0.076  0.5076 -0.3647  0.4250
16888TIP3   OH272078   0.359   4.210  12.024 -0.5067  0.1883 -0.5002
16888TIP3    H172079   0.377   4.116  12.026  1.2068  0.5174  0.1668
16888TIP3    H272080   0.295   4.221  11.954  1.3794 -1.1268 -2.4660
16889TIP3   OH272081   5.485   5.361   0.130  0.0341  0.2002 -0.3601
16889TIP3    H172082   5.422   5.338   0.198 -0.4077  0.2749 -0.7390
16889TIP3    H272083   5.494   5.456   0.136  0.4501  0.1366 -0.0102
16890TIP3   OH272084   1.598   1.214   1.074 -0.3435 -0.5391  0.4280
16890TIP3    H172085   1.595   1.122   1.098  0.1042 -0.1870  1.8669
16890TIP3    H272086   1.516   1.251   1.107 -0.2064 -0.2749  0.4810
16891TIP3   OH272087   5.217   0.364   4.538  0.1663 -0.4159 -0.2187
16891TIP3    H172088   5.160   0.326   4.470  0.0224 -0.6094  0.0080
16891TIP3    H272089   5.167   0.438   4.572 -0.5918 -1.4646  0.9948
16892TIP3   OH272090   0.986   4.824   0.656  0.1299 -0.2537 -0.1725
16892TIP3    H172091   0.966   4.760   0.587  0.5832 -1.8187  1.1060
16892TIP3    H272092   0.953   4.783   0.736  0.5995  1.0497  0.6937
16893TIP3   OH272093   3.359   5.265  13.977  0.5969 -0.3029 -0.1161
16893TIP3    H172094   3.444   5.268  14.021  0.1297 -0.6997  0.8450
16893TIP3    H272095   3.309   5.199  14.026 -0.4471  0.3177 -0.3186
16894TIP3   OH272096   1.428   3.376   4.947  0.1165  0.1023  0.1641
16894TIP3    H172097   1.521   3.367   4.968  0.5385 -1.1950 -1.9975
16894TIP3    H272098   1.419   3.465   4.915  1.2022 -0.5545 -2.0867
16895TIP3   OH272099   5.707   3.948   4.308  0.4258 -0.1290  0.6505
16895TIP3    H172100   5.700   3.960   4.403  0.8604 -0.1382  0.6840
16895TIP3    H272101   5.773   4.012   4.281  1.5892 -1.3384  0.6017
16896TIP3   OH272102   3.850   3.314   6.568 -0.1869 -0.1440 -0.1769
16896TIP3    H172103   3.826   3.395   6.523  1.6916 -0.7522 -2.4049
16896TIP3    H272104   3.873   3.340   6.656  0.2805  1.7339 -0.8376
16897TIP3   OH272105   3.213   6.617   4.449  0.3035 -0.4201 -0.6955
16897TIP3    H172106   3.195   6.589   4.360 -2.3836  0.5198 -0.4944
16897TIP3    H272107   3.170   6.553   4.505 -0.8037  0.7643 -0.1508
16898TIP3   OH272108   3.672   3.762  13.405 -0.2004 -0.4093  0.0982
16898TIP3    H172109   3.644   3.713  13.483  2.9331 -1.2405  0.7759
16898TIP3    H272110   3.757   3.724  13.382  0.1943  1.6776 -2.1089
16899TIP3   OH272111   3.777   4.398  11.510 -0.0261 -0.5025 -0.2939
16899TIP3    H172112   3.845   4.464  11.499 -1.6306  0.8179 -2.9290
16899TIP3    H272113   3.696   4.448  11.521 -1.0719 -2.0177 -0.9451
16900TIP3   OH272114   1.694   5.010  11.726 -0.0784  0.1410  0.4030
16900TIP3    H172115   1.728   4.956  11.654 -1.4124  1.1390 -1.0160
16900TIP3    H272116   1.626   4.955  11.765  1.2973 -0.7905  1.5514
16901TIP3   OH272117   6.497   1.454   1.430  0.3141 -0.7966 -0.5605
16901TIP3    H172118   6.506   1.378   1.487 -0.8616  0.7262  1.7251
16901TIP3    H272119   6.403   1.470   1.427  0.6421  1.4152  0.1558
16902TIP3   OH272120   4.445   0.808  13.763  0.0044 -0.1648  0.4315
16902TIP3    H172121   4.501   0.802  13.841  0.6923 -3.3087 -0.2383
16902TIP3    H272122   4.504   0.838  13.694 -0.1575  0.7195  0.6688
16903TIP3   OH272123   1.314   6.223  15.129  0.0101 -0.2109 -0.3582
16903TIP3    H172124   1.397   6.228  15.082 -0.0497  2.1840 -0.2856
16903TIP3    H272125   1.262   6.295  15.093 -1.0836 -0.1221  1.3451
16904TIP3   OH272126   6.065   0.087   4.789 -0.1086  0.6641  0.4242
16904TIP3    H172127   6.151   0.045   4.790 -1.7865 -2.9714 -0.4280
16904TIP3    H272128   6.057   0.121   4.699  0.9639  2.2544  0.9086
16905TIP3   OH272129   5.371   0.739   1.299 -0.3445 -0.1652  0.3236
16905TIP3    H172130   5.303   0.678   1.272  1.4646 -1.2614 -1.9352
16905TIP3    H272131   5.435   0.685   1.346  0.1417  0.4001  0.3260
16906TIP3   OH272132   2.453   5.787   0.238 -0.5708 -0.2444 -0.3818
16906TIP3    H172133   2.523   5.850   0.258 -1.2798  0.2322  0.5999
16906TIP3    H272134   2.436   5.800   0.145  1.7688 -1.5003 -1.0438
16907TIP3   OH272135   3.519   1.688  12.212 -0.4261  0.3851 -0.6538
16907TIP3    H172136   3.610   1.705  12.188  0.1304 -1.3572  0.1031
16907TIP3    H272137   3.482   1.644  12.136 -0.4252  0.4608 -0.6974
16908TIP3   OH272138   2.131   2.226   3.717  1.2044  0.2844  0.1748
16908TIP3    H172139   2.050   2.191   3.679  1.2575 -1.4902  1.6287
16908TIP3    H272140   2.101   2.281   3.790  1.2955 -1.0204  1.2287
16909TIP3   OH272141   0.965   4.975   3.392  0.7435  0.1779 -0.0183
16909TIP3    H172142   0.932   4.886   3.398  1.0755  0.1155  1.0292
16909TIP3    H272143   0.913   5.015   3.322 -1.0140 -0.1533  1.0519
16910TIP3   OH272144   1.803   4.925   2.517  0.0765 -0.1125 -0.3119
16910TIP3    H172145   1.817   4.990   2.449 -1.8986 -1.9163 -2.5487
16910TIP3    H272146   1.891   4.902   2.547  1.0474  0.0925 -2.8841
16911TIP3   OH272147   3.933   4.810   3.402  0.1453  0.6645 -0.1367
16911TIP3    H172148   3.888   4.875   3.455  0.1702  0.6297 -0.0727
16911TIP3    H272149   3.983   4.758   3.465 -0.9010 -0.2532 -0.0376
16912TIP3   OH272150   4.031   5.779   2.165  0.6415  0.5745 -0.3191
16912TIP3    H172151   4.058   5.749   2.078  1.1978  0.7314 -0.1987
16912TIP3    H272152   4.112   5.808   2.207  0.2178  1.5104 -0.1417
16913TIP3   OH272153   2.803   5.552   0.201  0.2719  0.2804 -0.2311
16913TIP3    H172154   2.787   5.607   0.124  1.2491 -2.2445 -2.3119
16913TIP3    H272155   2.865   5.602   0.254  0.4224  1.5793 -1.6051
16914TIP3   OH272156   5.544   1.707   5.212  0.1611 -0.3438 -0.3807
16914TIP3    H172157   5.569   1.798   5.198 -0.3030 -0.2423 -0.5513
16914TIP3    H272158   5.463   1.696   5.162 -2.0924  0.3191  2.9573
16915TIP3   OH272159   5.709   2.591   5.804 -0.0012 -0.0160 -0.6460
16915TIP3    H172160   5.760   2.591   5.885 -1.7292 -0.6855  0.4734
16915TIP3    H272161   5.696   2.683   5.783  1.6250  0.1578 -0.9248
16916TIP3   OH272162   2.693   2.115   1.854 -0.0453 -0.1512 -0.0887
16916TIP3    H172163   2.711   2.185   1.792  0.8476 -2.3034 -2.3205
16916TIP3    H272164   2.760   2.126   1.922 -0.5184  1.7200  0.1091
16917TIP3   OH272165   6.686   1.102   0.364 -1.0133 -0.0639 -0.1360
16917TIP3    H172166   6.696   1.048   0.442  0.2239  0.9464  0.4227
16917TIP3    H272167   6.658   1.187   0.397  0.5299  0.6719 -0.6920
16918TIP3   OH272168   5.200   2.771   5.931 -0.3399 -0.1666 -0.1608
16918TIP3    H172169   5.142   2.824   5.986 -0.0441  0.3989 -0.3886
16918TIP3    H272170   5.284   2.773   5.976 -0.0959  0.3021 -0.6339
16919TIP3   OH272171   2.629   0.750  10.758 -0.1336 -0.0547 -0.3507
16919TIP3    H172172   2.695   0.708  10.703  0.2464  1.6595 -1.2440
16919TIP3    H272173   2.680   0.789  10.830 -0.6560 -2.5783  1.4710
16920TIP3   OH272174   3.854   1.774  12.512 -0.1940  0.0535 -0.0042
16920TIP3    H172175   3.819   1.689  12.539 -1.7855  0.5517 -0.4545
16920TIP3    H272176   3.943   1.775  12.546 -0.0870 -1.8910 -0.1931
16921TIP3   OH272177   6.148   2.923  13.676 -0.7544 -0.5867  0.1939
16921TIP3    H172178   6.064   2.907  13.632 -0.6628  1.1039 -0.6490
16921TIP3    H272179   6.213   2.880  13.621 -1.0480 -1.8290  0.8035
16922TIP3   OH272180   3.708   5.171  16.378  0.4891 -0.0737 -0.0285
16922TIP3    H172181   3.625   5.172  16.330  0.1799  1.3523  0.4866
16922TIP3    H272182   3.720   5.080  16.404 -0.8022 -0.3415 -0.3237
16923TIP3   OH272183   4.650   6.481   0.577 -0.1263 -0.4611  0.1838
16923TIP3    H172184   4.671   6.489   0.670  0.0457  0.2667  0.0825
16923TIP3    H272185   4.730   6.504   0.531  0.0746 -1.7434 -0.1425
16924TIP3   OH272186   6.554   2.126  13.766  0.0799 -0.0636  0.6721
16924TIP3    H172187   6.564   2.048  13.820 -2.3384 -0.7107  0.2471
16924TIP3    H272188   6.604   2.107  13.687  2.7421  0.4522  2.1883
16925TIP3   OH272189   4.162   1.859  14.604  0.0669  0.5321  0.6907
16925TIP3    H172190   4.245   1.818  14.626  1.1188  2.6219  0.7697
16925TIP3    H272191   4.152   1.844  14.510 -0.1627 -0.9154  0.9397
16926TIP3   OH272192   3.035   0.634   2.483  0.1776  0.0805 -0.1215
16926TIP3    H172193   3.004   0.725   2.479  0.2816  0.1088 -0.3071
16926TIP3    H272194   2.987   0.589   2.414 -1.2036 -0.4198  1.1515
16927TIP3   OH272195   2.517   2.052   0.869  0.0619 -0.1719  0.1800
16927TIP3    H172196   2.475   1.995   0.804 -0.4147 -0.8817  1.1064
16927TIP3    H272197   2.488   2.018   0.953 -0.8722  1.9194  0.7319
16928TIP3   OH272198   6.084   1.228   3.357 -0.1661  0.7361 -0.1489
16928TIP3    H172199   6.131   1.247   3.438  0.9896 -0.6695 -0.4731
16928TIP3    H272200   6.029   1.306   3.343 -0.5485  0.9223  2.0727
16929TIP3   OH272201   1.254   0.843   5.079  0.4518  0.1742  0.5089
16929TIP3    H172202   1.222   0.933   5.089 -0.5212 -0.0580 -0.5011
16929TIP3    H272203   1.334   0.853   5.027  0.1713  0.4219  0.1225
16930TIP3   OH272204   4.379   6.201  15.432 -0.0841  0.0071  0.1783
16930TIP3    H172205   4.301   6.212  15.487  0.7033  0.6947  1.1634
16930TIP3    H272206   4.424   6.285  15.435  1.4209 -0.7974  0.7278
16931TIP3   OH272207   1.172   3.538  13.963 -0.1244 -0.0495  0.7149
16931TIP3    H172208   1.159   3.443  13.956 -1.9039  0.2195 -0.0254
16931TIP3    H272209   1.088   3.570  13.996 -0.9064  1.6588 -2.6521
16932TIP3   OH272210   1.122   6.485   2.130 -0.5992 -0.7465  0.3412
16932TIP3    H172211   1.077   6.570   2.129  0.3177 -0.2588 -0.5199
16932TIP3    H272212   1.065   6.428   2.183 -1.3696  0.3166  0.6782
16933TIP3   OH272213   4.114   3.009   0.010  0.0074 -0.3549  0.0147
16933TIP3    H172214   4.042   2.979   0.065  0.7970 -0.7552  0.8553
16933TIP3    H272215   4.178   3.044   0.072  0.5173  0.0390 -0.7254
16934TIP3   OH272216   0.368   3.972   5.703 -0.0877 -0.2817 -0.0468
16934TIP3    H172217   0.446   3.995   5.754  0.5901 -2.2223 -0.1630
16934TIP3    H272218   0.295   3.985   5.764  0.5601 -0.8234  0.8653
16935TIP3   OH272219   3.613   1.084  13.652  0.0331 -0.8202 -0.3604
16935TIP3    H172220   3.662   1.155  13.694 -2.9860  0.6313  0.8110
16935TIP3    H272221   3.568   1.041  13.724 -1.4183 -1.3422 -1.5651
16936TIP3   OH272222   4.467   0.665   2.245 -0.5931  0.0298  0.2835
16936TIP3    H172223   4.498   0.576   2.230  0.4431  0.2098  1.2925
16936TIP3    H272224   4.382   0.668   2.202 -0.7610 -1.5316  0.4662
16937TIP3   OH272225   0.924   1.203  16.018 -0.6898 -0.0537  0.6260
16937TIP3    H172226   0.891   1.247  15.940  0.5240 -0.2189 -0.0095
16937TIP3    H272227   0.880   1.246  16.091 -0.2058  1.5939 -0.0294
16938TIP3   OH272228   5.576   3.822  15.070 -0.1252  0.1002 -0.2613
16938TIP3    H172229   5.538   3.904  15.101 -0.0577 -0.6227  1.7699
16938TIP3    H272230   5.574   3.830  14.974  0.6552  2.8122 -0.0937
16939TIP3   OH272231   6.469   0.697  14.224 -0.6161 -0.2778  0.1334
16939TIP3    H172232   6.380   0.665  14.241 -0.1104 -1.3501  0.7932
16939TIP3    H272233   6.514   0.623  14.183 -0.0989  0.3540 -0.4490
16940TIP3   OH272234   4.545   2.261   2.632 -0.2891  0.4566  0.3033
16940TIP3    H172235   4.476   2.320   2.663  0.3239  1.3144  0.0478
16940TIP3    H272236   4.625   2.314   2.635 -0.2356  0.6651 -3.0165
16941TIP3   OH272237   1.329   5.732   2.706 -0.4418  0.2723  0.2450
16941TIP3    H172238   1.391   5.708   2.774 -1.8211 -0.6136  1.2026
16941TIP3    H272239   1.272   5.798   2.747 -1.0453  0.0042 -0.1541
16942TIP3   OH272240   0.965   1.573   3.439 -0.1021 -0.3376  0.4927
16942TIP3    H172241   1.042   1.536   3.481  0.6389  0.7718  0.1415
16942TIP3    H272242   0.912   1.498   3.413  1.1594 -1.1244  0.1872
16943TIP3   OH272243   1.682   6.201   3.509 -0.2140 -0.2290 -0.3507
16943TIP3    H172244   1.644   6.113   3.509 -0.0232 -0.3111 -0.7561
16943TIP3    H272245   1.689   6.224   3.417 -0.1970  0.1856 -0.2479
16944TIP3   OH272246   1.574   6.025   6.037 -0.2484  0.0438  0.1421
16944TIP3    H172247   1.509   5.966   6.076 -1.1665  0.7684 -0.2609
16944TIP3    H272248   1.582   6.096   6.102  0.8544 -0.5220  0.6288
16945TIP3   OH272249   1.830   1.536   0.527 -0.5190  0.2796 -0.3522
16945TIP3    H172250   1.857   1.619   0.488  0.7874  0.8677  1.7078
16945TIP3    H272251   1.871   1.469   0.472 -0.7346  1.0155 -1.4194
16946TIP3   OH272252   6.594   3.090   1.874  0.2826 -0.2185  0.1434
16946TIP3    H172253   6.631   3.174   1.902  1.2524 -0.0809 -1.4837
16946TIP3    H272254   6.578   3.042   1.956 -0.1360  1.4731  1.0834
16947TIP3   OH272255   3.785   4.484  12.971 -0.0721  0.2759 -0.4736
16947TIP3    H172256   3.695   4.485  12.939  0.2613 -0.2178 -1.4347
16947TIP3    H272257   3.838   4.516  12.897  0.4710  1.2778  0.3224
16948TIP3   OH272258   3.688   4.074   2.719 -0.1750 -0.1880 -0.2524
16948TIP3    H172259   3.625   4.143   2.696 -0.8810 -0.1450  1.7218
16948TIP3    H272260   3.751   4.118   2.777  0.4343 -0.7589 -0.4773
16949TIP3   OH272261   3.850   5.684  10.723  0.3329 -0.0802 -0.0250
16949TIP3    H172262   3.911   5.741  10.771  0.3962 -0.5807  0.4888
16949TIP3    H272263   3.906   5.620  10.679  0.5628  2.3859 -3.5583
16950TIP3   OH272264   1.022   3.935   4.845  0.2497  0.0173  0.7479
16950TIP3    H172265   1.032   3.854   4.794  0.4020  1.2100 -1.1673
16950TIP3    H272266   0.928   3.941   4.863  0.5151 -1.7206  2.8387
16951TIP3   OH272267   4.026   6.443   1.072  0.4170 -0.1374 -0.0715
16951TIP3    H172268   4.082   6.518   1.094 -0.5079  0.7699 -0.7447
16951TIP3    H272269   3.944   6.483   1.044  0.3324 -1.3829 -1.6352
16952TIP3   OH272270   2.483   0.218  15.977  0.2731 -0.3668  0.4936
16952TIP3    H172271   2.557   0.271  16.007  0.7258  0.5701 -2.1218
16952TIP3    H272272   2.515   0.128  15.980  2.5698  0.2225 -3.1744
16953TIP3   OH272273   5.603   2.563  13.839 -0.0404 -0.5731  0.0603
16953TIP3    H172274   5.567   2.648  13.815 -1.4093 -1.0542  0.3300
16953TIP3    H272275   5.681   2.583  13.890 -0.2189  0.5195 -0.0903
16954TIP3   OH272276   3.028   6.120  12.547  0.9016 -0.5705 -0.2188
16954TIP3    H172277   2.939   6.114  12.512  1.1941 -0.1953 -1.0526
16954TIP3    H272278   3.042   6.036  12.592  0.7215 -1.3147 -1.5243
16955TIP3   OH272279   3.330   1.746   1.608 -0.3305  0.5092  0.4272
16955TIP3    H172280   3.298   1.727   1.696  2.6479  1.0615  1.6995
16955TIP3    H272281   3.422   1.769   1.621  0.7941 -1.6935 -3.0959
16956TIP3   OH272282   1.912   5.192  13.939  0.0841  0.4891 -0.1744
16956TIP3    H172283   1.927   5.172  13.847 -0.5296  0.7064 -0.3237
16956TIP3    H272284   1.823   5.227  13.942 -0.4303 -0.8339  0.6988
16957TIP3   OH272285   3.658   0.068   1.124 -0.0314  0.1361 -0.0406
16957TIP3    H172286   3.727   0.129   1.095 -0.3062  0.0983 -0.7820
16957TIP3    H272287   3.706  -0.003   1.167  0.4878 -0.4381 -1.5170
16958TIP3   OH272288   2.470   4.491  16.324 -0.7008  0.1839  0.1042
16958TIP3    H172289   2.518   4.554  16.271 -0.4731 -1.0292 -1.1687
16958TIP3    H272290   2.529   4.471  16.396  0.0392 -0.0500 -0.5593
16959TIP3   OH272291   3.918   4.442   0.473  0.1520  0.0394 -0.1748
16959TIP3    H172292   3.903   4.415   0.382  0.6452 -1.5597  0.2081
16959TIP3    H272293   3.831   4.462   0.507 -0.1690 -0.5703 -0.6262
16960TIP3   OH272294   0.818   4.784  13.777  0.5094  0.1441  0.5712
16960TIP3    H172295   0.807   4.867  13.822 -1.0272 -0.1486  0.7552
16960TIP3    H272296   0.844   4.807  13.688  1.1466  0.7798  0.9195
16961TIP3   OH272297   0.418   1.512   0.795 -0.6814 -0.3768 -0.7629
16961TIP3    H172298   0.493   1.559   0.757  1.5272 -0.3910  3.3168
16961TIP3    H272299   0.352   1.579   0.809  0.0834  0.3832 -0.7435
16962TIP3   OH272300   0.161   4.571   3.861  0.2709  0.9783  0.1203
16962TIP3    H172301   0.067   4.591   3.868  0.2783  0.8137  0.7761
16962TIP3    H272302   0.164   4.476   3.853  0.3630  1.0187 -0.3224
16963TIP3   OH272303   2.603   6.611   4.621 -0.3638  0.5536  0.0046
16963TIP3    H172304   2.665   6.548   4.583 -0.3527  0.0148  0.9177
16963TIP3    H272305   2.520   6.592   4.578  0.2341  1.7237 -1.7311
16964TIP3   OH272306   5.805   5.257   1.713 -0.3980 -0.2068 -0.1516
16964TIP3    H172307   5.832   5.169   1.685  0.3874 -0.2412  0.6884
16964TIP3    H272308   5.865   5.316   1.668  1.5537 -0.3138  2.1838
16965TIP3   OH272309   4.382   3.725   2.536  0.2106 -0.2705  0.2952
16965TIP3    H172310   4.386   3.747   2.443 -1.2700 -0.4764  0.1758
16965TIP3    H272311   4.407   3.633   2.541  1.7366  0.1322  0.2718
16966TIP3   OH272312   1.547   2.608   2.336 -0.1952  0.0077  0.1641
16966TIP3    H172313   1.588   2.560   2.407  0.9732 -0.9359 -1.1360
16966TIP3    H272314   1.614   2.670   2.307 -1.1936  1.4500  0.8766
16967TIP3   OH272315   6.485   4.368   1.992 -0.2598 -0.1151 -0.2746
16967TIP3    H172316   6.456   4.460   1.989 -1.3250 -0.4516 -0.4972
16967TIP3    H272317   6.486   4.341   1.900  2.8690  0.5204 -0.4710
16968TIP3   OH272318   4.220   5.247  16.076  0.4393  0.2814 -0.4371
16968TIP3    H172319   4.312   5.267  16.095  0.1202  0.6919  0.7190
16968TIP3    H272320   4.172   5.284  16.150 -0.5027 -1.5195 -0.1284
16969TIP3   OH272321   2.928   5.074  15.090  0.4378  0.4586 -0.5583
16969TIP3    H172322   2.934   5.009  15.020 -0.3952  0.8400 -0.9929
16969TIP3    H272323   2.934   5.023  15.171  0.9937 -0.0245 -0.9035
16970TIP3   OH272324   3.845   5.498  16.811 -0.1935  0.5271 -0.6666
16970TIP3    H172325   3.796   5.463  16.737 -1.6631  2.0364 -0.4435
16970TIP3    H272326   3.788   5.483  16.886  0.9921 -0.3856  0.0628
16971TIP3   OH272327   1.712   5.724  16.644  0.3407 -0.6568  0.1760
16971TIP3    H172328   1.755   5.802  16.609 -0.2714 -0.2750  0.2608
16971TIP3    H272329   1.766   5.651  16.614  0.6614 -0.2301 -0.2955
16972TIP3   OH272330   3.482   0.836  16.175  0.4445 -0.6587  0.0880
16972TIP3    H172331   3.444   0.923  16.164 -0.2659 -0.9984 -0.2302
16972TIP3    H272332   3.494   0.826  16.269 -2.6370 -1.5010  0.4729
16973TIP3   OH272333   2.128   5.883  11.749  0.0936  0.2046  0.6002
16973TIP3    H172334   2.213   5.915  11.780  0.9030 -0.7251 -0.5901
16973TIP3    H272335   2.078   5.962  11.729  1.2604  0.7633 -0.1748
16974TIP3   OH272336   0.483   1.558   3.305 -0.5159 -0.0889 -0.3133
16974TIP3    H172337   0.571   1.584   3.277 -0.7169  3.0002  1.7811
16974TIP3    H272338   0.498   1.505   3.383 -0.5454  1.1892  0.5662
16975TIP3   OH272339   4.228   3.692  11.394 -0.4013  0.1505  0.1815
16975TIP3    H172340   4.267   3.638  11.325 -0.2072 -1.0133  1.1782
16975TIP3    H272341   4.154   3.736  11.352  0.2869  0.1761 -1.0014
16976TIP3   OH272342   2.802   5.938  13.808 -0.5057 -1.1886 -0.3442
16976TIP3    H172343   2.838   5.975  13.889 -2.3730 -0.7057  0.2976
16976TIP3    H272344   2.796   6.013  13.749  0.2110 -1.4030 -0.6797
16977TIP3   OH272345   4.244   2.248  13.883 -0.1670  0.0738  0.1792
16977TIP3    H172346   4.227   2.283  13.795  1.3363  0.5766  0.0798
16977TIP3    H272347   4.162   2.263  13.930 -0.5583  0.9719 -0.7585
16978TIP3   OH272348   6.339   2.891  13.913 -0.1601 -0.3252  0.0507
16978TIP3    H172349   6.387   2.823  13.865 -0.6450 -1.4968  1.1772
16978TIP3    H272350   6.270   2.843  13.959  1.1088  0.5716  2.9921
16979TIP3   OH272351   4.368   2.237   5.434  0.4976 -0.0141 -0.2827
16979TIP3    H172352   4.429   2.216   5.505  1.5976 -0.6385 -1.3877
16979TIP3    H272353   4.351   2.330   5.444  3.0814  0.5849 -1.0179
16980TIP3   OH272354   2.794   3.715   0.784  0.3493  0.6847 -0.2308
16980TIP3    H172355   2.713   3.728   0.734  0.1608  2.1864  0.4266
16980TIP3    H272356   2.814   3.622   0.775 -0.8550  0.5228 -1.3101
16981TIP3   OH272357   5.688   2.273   2.474  0.8724 -0.6333 -0.4107
16981TIP3    H172358   5.706   2.217   2.398  0.1396 -1.1699 -0.2065
16981TIP3    H272359   5.622   2.224   2.524 -0.9613  1.1229 -1.0329
16982TIP3   OH272360   4.058   4.204  13.859  0.2914  0.9510 -0.2047
16982TIP3    H172361   4.014   4.270  13.913 -0.9381  1.0793 -1.3289
16982TIP3    H272362   4.073   4.248  13.775  4.7279  1.7108  0.8312
16983TIP3   OH272363   6.457   6.538  13.535  0.2745 -0.6365 -0.1771
16983TIP3    H172364   6.373   6.579  13.553  0.8287  0.9933 -1.2336
16983TIP3    H272365   6.511   6.561  13.611  0.6387  0.7691 -0.8498
16984TIP3   OH272366   1.120   2.449  10.279 -0.1090 -0.1853  0.0297
16984TIP3    H172367   1.122   2.362  10.239  1.9193 -0.9312  1.6424
16984TIP3    H272368   1.081   2.435  10.365  2.9830 -0.1232  1.5260
16985TIP3   OH272369   4.872   2.463   3.096 -0.1605  0.0929  0.0407
16985TIP3    H172370   4.909   2.409   3.166 -0.2813 -0.2328 -0.1457
16985TIP3    H272371   4.886   2.412   3.016  2.7399  1.8104 -0.6179
16986TIP3   OH272372   6.568   6.559  12.415 -0.0688 -0.6186 -0.5893
16986TIP3    H172373   6.494   6.502  12.393 -0.1015 -0.8503  0.0894
16986TIP3    H272374   6.527   6.640  12.446 -0.0607 -1.0396  0.5567
16987TIP3   OH272375   0.563   0.515   6.143 -0.5415 -0.1244  0.4150
16987TIP3    H172376   0.555   0.597   6.191 -2.1012 -0.6047  0.9997
16987TIP3    H272377   0.614   0.538   6.065  4.6345  0.0581  3.5887
16988TIP3   OH272378   2.916   3.069   3.974 -0.3431 -0.1628  0.4673
16988TIP3    H172379   2.946   3.072   4.065 -0.7515 -0.0897  0.6019
16988TIP3    H272380   2.825   3.040   3.980 -0.4480  0.0845  0.0993
16989TIP3   OH272381   2.542   6.372   2.879  0.3118 -0.3685 -0.2273
16989TIP3    H172382   2.587   6.456   2.891 -0.5441  0.2854 -1.4802
16989TIP3    H272383   2.608   6.314   2.843  1.0367 -0.3676  1.0816
16990TIP3   OH272384   6.719   5.166  16.635 -0.7177 -0.3164 -0.8769
16990TIP3    H172385   6.790   5.118  16.592  2.1472 -0.1846  3.4138
16990TIP3    H272386   6.724   5.255  16.598  1.0315 -0.4526 -1.0034
16991TIP3   OH272387   2.444   4.734   5.368  0.2400  0.2549  0.0317
16991TIP3    H172388   2.461   4.645   5.398  2.6385  0.7607  0.3062
16991TIP3    H272389   2.433   4.726   5.273 -1.1706 -0.5228  0.2483
16992TIP3   OH272390   3.380   4.521  15.298  0.2682 -0.2563  0.9630
16992TIP3    H172391   3.360   4.518  15.205 -0.1090  1.4656  0.9775
16992TIP3    H272392   3.442   4.449  15.311 -0.8512 -1.4859 -0.3086
16993TIP3   OH272393   2.437   4.942   1.943 -0.2484  0.1046 -0.2566
16993TIP3    H172394   2.496   4.970   1.873 -1.6356 -0.2891 -1.6089
16993TIP3    H272395   2.372   5.011   1.950 -0.3006 -0.0072  0.4375
16994TIP3   OH272396   4.382   3.668   3.152  0.2743 -0.7114  0.1478
16994TIP3    H172397   4.306   3.703   3.198 -0.5208 -1.0859 -0.8519
16994TIP3    H272398   4.350   3.650   3.063  1.5150 -0.9275 -0.2652
16995TIP3   OH272399   3.182   5.021  14.431 -0.0189 -0.5498 -0.3222
16995TIP3    H172400   3.181   4.933  14.469 -0.6318 -1.4612 -2.4237
16995TIP3    H272401   3.092   5.052  14.440 -0.2360 -0.8979 -1.3765
16996TIP3   OH272402   1.119   2.162   5.163 -0.0535  0.2694  0.3628
16996TIP3    H172403   1.143   2.104   5.234  0.0424  0.2825  0.3412
16996TIP3    H272404   1.085   2.241   5.206 -0.3933  0.1102  0.3905
16997TIP3   OH272405   1.488   1.816  14.918  0.0485 -0.1368  0.1157
16997TIP3    H172406   1.506   1.874  14.992  0.9976 -1.6576  1.1128
16997TIP3    H272407   1.558   1.834  14.855 -0.5947  0.9489 -0.3050
16998TIP3   OH272408   3.481   3.296   4.146 -0.2799 -0.2092 -0.2945
16998TIP3    H172409   3.419   3.338   4.086 -0.8522  0.4271  0.7220
16998TIP3    H272410   3.483   3.353   4.223 -0.7933 -1.8388  0.9705
16999TIP3   OH272411   5.980   1.429  15.160 -0.5387 -0.9353  0.1165
16999TIP3    H172412   5.936   1.510  15.187 -1.4733 -0.2961 -3.1156
16999TIP3    H272413   5.938   1.360  15.211 -0.7236  0.4240  1.8575
17000TIP3   OH272414   1.887   1.802   0.435 -0.5040 -0.1380  0.4827
17000TIP3    H172415   1.839   1.854   0.371 -0.0061  0.2387  0.4200
17000TIP3    H272416   1.948   1.863   0.476 -1.4943 -0.1470  2.0171
17001TIP3   OH272417   4.923   6.514   0.550  0.1538  0.4427  0.1371
17001TIP3    H172418   4.964   6.575   0.610 -0.8884 -0.5644  1.9008
17001TIP3    H272419   4.982   6.513   0.474  0.5576  3.0511  0.3635
17002TIP3   OH272420   4.696   3.641  13.998 -0.4938  1.0853 -0.1518
17002TIP3    H172421   4.621   3.623  13.942 -1.3648  0.1384  1.2639
17002TIP3    H272422   4.767   3.587  13.962 -1.4822 -0.7422  0.5618
17003TIP3   OH272423   3.382   6.032   1.982  0.3245  0.0122  0.2286
17003TIP3    H172424   3.327   5.995   2.051 -0.5099  0.0098 -0.4356
17003TIP3    H272425   3.441   5.961   1.957 -0.4587 -0.4852 -0.1942
17004TIP3   OH272426   6.759   3.520   5.578 -0.2285 -0.2177  0.2929
17004TIP3    H172427   6.740   3.596   5.632  1.0410 -0.3229  0.9199
17004TIP3    H272428   6.712   3.448   5.620  2.5696 -0.7636  2.6448
17005TIP3   OH272429   4.844   5.183  12.762  0.3439  0.2184  0.2617
17005TIP3    H172430   4.833   5.094  12.795 -0.5185 -0.5295 -1.9425
17005TIP3    H272431   4.755   5.212  12.741  0.7775  0.9905 -0.5534
17006TIP3   OH272432   1.356   2.771  15.546 -0.3005  0.4937 -0.2538
17006TIP3    H172433   1.278   2.777  15.491 -1.0252 -2.7675  0.2876
17006TIP3    H272434   1.418   2.720  15.494  0.0529 -0.1963  0.8240
17007TIP3   OH272435   6.679   0.328  16.669  0.3329 -0.5919 -0.2692
17007TIP3    H172436   6.619   0.333  16.742  0.4926  2.9867 -0.2818
17007TIP3    H272437   6.625   0.343  16.591  1.0846  2.3856 -0.2989
17008TIP3   OH272438   1.113   6.603  13.609 -0.1049 -0.3607  0.4588
17008TIP3    H172439   1.087   6.514  13.634 -0.8001 -0.5922 -1.0832
17008TIP3    H272440   1.133   6.597  13.516 -0.5810  1.2065  0.2522
17009TIP3   OH272441   2.335   5.916   5.570  0.1157 -0.0065 -0.3093
17009TIP3    H172442   2.298   5.979   5.507  1.1408 -0.2230 -1.1320
17009TIP3    H272443   2.259   5.885   5.619 -0.7782 -0.1957 -1.7728
17010TIP3   OH272444   6.545   3.501   1.389  0.0652 -0.0645 -0.2639
17010TIP3    H172445   6.450   3.491   1.381 -0.0556 -0.5108  1.4849
17010TIP3    H272446   6.580   3.458   1.312 -1.1084 -1.0951 -0.2433
17011TIP3   OH272447   1.293   5.401  12.767  0.0998  0.1210  0.8203
17011TIP3    H172448   1.373   5.429  12.811 -0.0568 -0.0997  1.2530
17011TIP3    H272449   1.281   5.310  12.794  1.1158 -0.6798 -1.3046
17012TIP3   OH272450   2.125   6.598   1.875  1.2613 -0.6238 -0.0456
17012TIP3    H172451   2.093   6.534   1.812  2.1562 -0.8375 -0.2799
17012TIP3    H272452   2.092   6.682   1.842  0.9679 -0.8385 -0.3027
17013TIP3   OH272453   4.668   0.507  16.898  0.0593  0.3784  0.1112
17013TIP3    H172454   4.715   0.451  16.960 -1.3195 -0.8352  0.0867
17013TIP3    H272455   4.706   0.485  16.813  0.4315  0.4552  0.2533
17014TIP3   OH272456   0.968   3.360   4.966 -0.0391 -0.1132  0.0918
17014TIP3    H172457   1.036   3.320   5.020  0.7419  0.5355 -0.3990
17014TIP3    H272458   0.920   3.286   4.928  0.9489 -0.5774 -0.2588
17015TIP3   OH272459   2.730   1.799  16.471  0.0776 -0.3275  0.0290
17015TIP3    H172460   2.808   1.841  16.435  0.0373  0.7438  1.1528
17015TIP3    H272461   2.761   1.714  16.502  0.5587 -0.3688 -0.5595
17016TIP3   OH272462   3.166   2.162  11.417  0.4047 -0.2268  0.0819
17016TIP3    H172463   3.188   2.243  11.464  0.8021  0.0805 -0.6218
17016TIP3    H272464   3.174   2.094  11.483  0.6016  0.2456  0.5558
17017TIP3   OH272465   4.467   0.942   2.250 -0.6985 -0.0426  0.0353
17017TIP3    H172466   4.467   0.985   2.165  1.0259  1.9516  1.0114
17017TIP3    H272467   4.466   0.848   2.230  0.7410  0.3998 -2.1912
17018TIP3   OH272468   5.420   4.749  14.557  0.5922  0.2168  0.0947
17018TIP3    H172469   5.504   4.785  14.588  0.3664  1.9677 -1.2275
17018TIP3    H272470   5.409   4.788  14.470 -0.6622 -1.5402 -0.5410
17019TIP3   OH272471   2.158   0.107  15.990 -0.1744 -0.0605 -0.1782
17019TIP3    H172472   2.070   0.140  16.007 -0.2815  0.0236 -0.8665
17019TIP3    H272473   2.186   0.153  15.911 -0.4029 -1.6964 -1.2584
17020TIP3   OH272474   5.025   0.519   4.631  0.2300  0.6988  0.0532
17020TIP3    H172475   4.997   0.605   4.600  0.5008  1.1995  1.1804
17020TIP3    H272476   4.952   0.486   4.682  0.7635  0.9865  1.0163
17021TIP3   OH272477   4.713   0.699  11.371  0.0082 -0.2765 -0.2748
17021TIP3    H172478   4.637   0.698  11.313  0.2545 -0.2159 -0.6001
17021TIP3    H272479   4.693   0.632  11.437 -0.9534  0.7060  0.4571
17022TIP3   OH272480   5.360   4.253  16.611  0.4763  0.4054 -0.1469
17022TIP3    H172481   5.319   4.331  16.648 -1.1310  0.7094 -2.4606
17022TIP3    H272482   5.311   4.180  16.648  0.1294  0.6121 -0.2023
17023TIP3   OH272483   4.324   3.484   4.456  0.3678 -1.0735  0.1595
17023TIP3    H172484   4.313   3.576   4.431 -0.8930 -1.0612  0.7311
17023TIP3    H272485   4.257   3.469   4.522  1.7628 -1.9076  1.4063
17024TIP3   OH272486   3.120   4.115   5.810 -0.3214 -0.0041  0.1164
17024TIP3    H172487   3.137   4.035   5.760 -2.4825 -0.7126  0.4844
17024TIP3    H272488   3.132   4.185   5.746 -3.1050 -0.9013 -1.4940
17025TIP3   OH272489   1.982   3.422   1.540 -0.2087 -0.5649 -0.4998
17025TIP3    H172490   1.916   3.479   1.500  1.2009  1.1328 -0.4419
17025TIP3    H272491   2.002   3.463   1.624  0.6290 -1.2950 -0.3366
17026TIP3   OH272492   4.325   6.446   6.014 -0.3111 -0.0105  0.2990
17026TIP3    H172493   4.345   6.409   5.927 -4.5256 -1.1259 -0.3136
17026TIP3    H272494   4.343   6.539   6.005  0.2065 -0.2560 -1.4713
17027TIP3   OH272495   0.586   4.096   0.514 -0.3173  0.0788 -0.0098
17027TIP3    H172496   0.528   4.041   0.462 -0.6964  0.4428  0.0221
17027TIP3    H272497   0.527   4.151   0.565  0.0542 -0.2831  0.8155
17028TIP3   OH272498   4.285   3.590   5.969 -0.2351  0.9160 -0.0419
17028TIP3    H172499   4.307   3.623   6.057  1.5909 -0.6484  0.1215
17028TIP3    H272500   4.193   3.566   5.975 -0.4179  1.8097  1.1271
17029TIP3   OH272501   3.261   5.427   0.492 -0.5292  0.3988 -0.0882
17029TIP3    H172502   3.192   5.433   0.558 -0.6232 -0.9580 -0.0367
17029TIP3    H272503   3.292   5.336   0.498 -1.4564 -0.1529 -2.7927
17030TIP3   OH272504   6.199   4.771   5.745 -0.1059  0.3528 -0.2195
17030TIP3    H172505   6.261   4.783   5.817 -0.8030 -3.0751  1.0122
17030TIP3    H272506   6.167   4.860   5.727  1.6814  1.5591  2.2350
17031TIP3   OH272507   5.911   2.256   4.847 -0.1387 -0.7595 -0.1000
17031TIP3    H172508   5.984   2.221   4.898  0.6751  1.7290  0.4680
17031TIP3    H272509   5.844   2.275   4.911 -0.8358 -1.8519 -0.4877
17032TIP3   OH272510   0.810   1.806   3.512 -0.3561 -0.7714  0.1145
17032TIP3    H172511   0.861   1.885   3.532 -1.2628  0.3509 -1.8587
17032TIP3    H272512   0.875   1.743   3.482  0.2352 -0.3511  0.5000
17033TIP3   OH272513   5.152   5.880   0.347 -0.0054 -0.4752 -0.3206
17033TIP3    H172514   5.077   5.859   0.291  0.4724  0.5753 -1.3779
17033TIP3    H272515   5.132   5.839   0.431 -1.2558 -1.1209 -0.9254
17034TIP3   OH272516   4.293   4.374   3.155 -0.3463  0.0549  0.4344
17034TIP3    H172517   4.208   4.353   3.117 -0.7614  1.3499  0.5992
17034TIP3    H272518   4.317   4.459   3.116  0.9906 -0.4136  0.1897
17035TIP3   OH272519   5.259   2.963   0.659  0.0629 -0.0102  0.7649
17035TIP3    H172520   5.283   3.041   0.609 -0.6424  0.5559  1.2968
17035TIP3    H272521   5.271   2.890   0.598  0.3329  0.5529  0.1432
17036TIP3   OH272522   3.617   4.620   4.046 -0.5434 -0.4294  0.0491
17036TIP3    H172523   3.635   4.647   3.956  1.1104 -0.8468  0.2562
17036TIP3    H272524   3.603   4.525   4.041  0.4735 -0.5957  0.3772
17037TIP3   OH272525   1.276   1.057   4.540  0.1439 -0.6563 -0.0826
17037TIP3    H172526   1.309   1.000   4.471  0.3958 -0.8451  0.1913
17037TIP3    H272527   1.271   1.144   4.500  0.5754 -0.7074 -0.2507
17038TIP3   OH272528   0.430   0.179   0.082  0.3117 -0.3212  0.1665
17038TIP3    H172529   0.389   0.253   0.036  3.5286  0.6496 -1.2966
17038TIP3    H272530   0.452   0.117   0.012 -0.2751 -1.6485  1.1367
17039TIP3   OH272531   2.956   4.787   5.625  0.2240  0.0734 -0.4244
17039TIP3    H172532   2.962   4.859   5.563 -0.6856  0.2283 -0.3336
17039TIP3    H272533   2.990   4.824   5.707  2.9908 -0.6132 -1.2051
17040TIP3   OH272534   5.603   5.157  13.560  0.2006  0.8430  0.3088
17040TIP3    H172535   5.545   5.100  13.510 -0.0464  0.0849  1.4252
17040TIP3    H272536   5.689   5.118  13.551 -0.2504 -0.7369  2.4993
17041TIP3   OH272537   4.149   2.090   4.886 -0.0448  0.3656  0.4462
17041TIP3    H172538   4.107   2.040   4.816  2.4219  1.7386 -2.1264
17041TIP3    H272539   4.097   2.171   4.892 -0.9885 -0.2753  1.0858
17042TIP3   OH272540   0.156   3.273   4.997  0.2789 -0.1230  0.0509
17042TIP3    H172541   0.159   3.291   5.091  1.1061  0.8822 -0.1532
17042TIP3    H272542   0.065   3.288   4.973  0.7694  3.2852  0.0295
17043TIP3   OH272543   0.080   4.354  14.378 -0.2980  0.0974 -0.3002
17043TIP3    H172544   0.054   4.429  14.432  1.4130  0.4171  0.1097
17043TIP3    H272545   0.164   4.327  14.415  0.3115 -0.4265 -2.0701
17044TIP3   OH272546   1.568   4.368  15.956  0.2189  0.0700  0.0300
17044TIP3    H172547   1.623   4.297  15.925  0.1675 -0.2989  0.7680
17044TIP3    H272548   1.500   4.325  16.008  1.2018  0.7931  1.9379
17045TIP3   OH272549   4.971   0.268   0.800  0.2559 -0.1956 -0.2438
17045TIP3    H172550   4.980   0.257   0.706  0.0685 -0.6101 -0.2118
17045TIP3    H272551   5.019   0.195   0.838  0.1028 -0.1799 -0.0188
17046TIP3   OH272552   1.086   1.427   4.283  0.4778  0.0590 -0.1188
17046TIP3    H172553   1.047   1.489   4.221 -0.4004 -0.6050 -0.2429
17046TIP3    H272554   1.069   1.466   4.369 -1.2299 -0.6282 -0.1245
17047TIP3   OH272555   4.205   6.152  14.778  0.0778  0.4025  0.0323
17047TIP3    H172556   4.191   6.239  14.815 -1.6420  0.2992 -0.3292
17047TIP3    H272557   4.137   6.098  14.817 -1.3913  0.1551 -2.7709
17048TIP3   OH272558   5.389   2.438   1.855  0.2747  0.5255 -0.4032
17048TIP3    H172559   5.314   2.385   1.882  1.5807 -0.6610  0.9630
17048TIP3    H272560   5.415   2.401   1.770  0.6277 -0.4781  0.1293
17049TIP3   OH272561   4.997   2.154   3.091 -0.1820 -0.8680 -0.3539
17049TIP3    H172562   4.922   2.141   3.149  0.6143 -1.1747  0.6308
17049TIP3    H272563   5.073   2.127   3.144  0.5462 -1.2811 -1.5925
17050TIP3   OH272564   2.257   0.171   3.819 -0.4572 -0.6253  0.0154
17050TIP3    H172565   2.177   0.121   3.808 -0.5989 -0.0965 -1.4141
17050TIP3    H272566   2.327   0.108   3.805 -0.6144 -1.0289  1.0071
17051TIP3   OH272567   0.002   6.445  16.920 -0.3234 -0.0203  0.2871
17051TIP3    H172568   0.031   6.478  16.835 -0.1911  0.1072  0.3836
17051TIP3    H272569  -0.011   6.523  16.973 -2.3283  0.0149 -0.2219
17052TIP3   OH272570   3.813   3.377  12.625  0.2879 -0.1079  0.2910
17052TIP3    H172571   3.760   3.452  12.597  0.7048  0.1484  0.1818
17052TIP3    H272572   3.751   3.321  12.672  0.1509  0.7010  1.0963
17053TIP3   OH272573   4.158   1.193  11.008  0.0684 -0.2198 -0.3180
17053TIP3    H172574   4.205   1.198  10.925 -0.6448 -0.1230 -0.7222
17053TIP3    H272575   4.142   1.284  11.033 -0.2882 -0.2555 -0.4076
17054TIP3   OH272576   6.392   4.521  13.445 -0.2074  0.0166 -0.2875
17054TIP3    H172577   6.380   4.442  13.498  0.6928 -1.2962 -1.9941
17054TIP3    H272578   6.351   4.500  13.361  0.5775  1.1343 -0.9645
17055TIP3   OH272579   2.505   5.655   3.590  0.5413 -0.4087 -0.3041
17055TIP3    H172580   2.525   5.602   3.513 -0.6817  0.9227 -1.5710
17055TIP3    H272581   2.556   5.615   3.661  1.8441 -1.5285 -1.8378
17056TIP3   OH272582   4.182   2.647  11.934  0.1250 -0.4090  0.3765
17056TIP3    H172583   4.089   2.641  11.957 -0.2405 -1.3172 -1.2290
17056TIP3    H272584   4.186   2.722  11.874  0.3030 -0.8116 -0.1167
17057TIP3   OH272585   5.504   3.149  12.028 -0.1008  0.5221  0.2402
17057TIP3    H172586   5.569   3.109  12.086 -0.9865 -0.6371  0.4433
17057TIP3    H272587   5.489   3.085  11.960 -1.6938  0.3965  0.6909
17058TIP3   OH272588   3.386   3.438   3.929 -0.5062 -0.3174 -0.2076
17058TIP3    H172589   3.448   3.411   3.862 -0.8621 -1.4913 -0.0826
17058TIP3    H272590   3.370   3.531   3.913  0.3108 -0.3199 -1.0108
17059TIP3   OH272591   1.264   5.020  11.771 -0.0993  0.9461 -0.0536
17059TIP3    H172592   1.330   4.962  11.809  0.0370  1.2719  0.2082
17059TIP3    H272593   1.315   5.095  11.739 -0.1376  0.4322 -1.3744
17060TIP3   OH272594   3.574   4.197  11.221 -0.4702  0.4868 -0.0166
17060TIP3    H172595   3.560   4.212  11.315 -0.6343 -0.1300  0.0607
17060TIP3    H272596   3.493   4.228  11.179 -0.9135 -0.4182  0.1648
17061TIP3   OH272597   3.315   1.930   6.308 -0.2896  0.2836 -0.1788
17061TIP3    H172598   3.225   1.915   6.335 -0.0959 -0.9171 -0.1664
17061TIP3    H272599   3.309   1.962   6.218 -0.7124 -0.0437 -0.2663
17062TIP3   OH272600   4.074   3.687  16.358 -0.0177  0.1224 -0.1312
17062TIP3    H172601   4.069   3.649  16.446 -1.9639  0.2311 -0.1928
17062TIP3    H272602   4.082   3.611  16.300  0.5069  0.0182  0.0679
17063TIP3   OH272603   4.373   3.672   0.335  0.2257 -0.3336 -0.1922
17063TIP3    H172604   4.448   3.614   0.344 -1.5882 -2.8214 -0.4609
17063TIP3    H272605   4.379   3.732   0.410  1.8074 -1.2861  0.4489
17064TIP3   OH272606   5.578   2.123   1.388 -0.1243 -0.2303 -0.4422
17064TIP3    H172607   5.490   2.089   1.371 -0.3230 -1.0288  1.9539
17064TIP3    H272608   5.622   2.053   1.435 -0.0535  2.1579  3.2860
17065TIP3   OH272609   6.583   4.281  12.342 -0.0593 -0.0429 -0.6754
17065TIP3    H172610   6.592   4.375  12.324 -0.4222 -0.3173 -2.3456
17065TIP3    H272611   6.508   4.276  12.401 -0.6830  0.6399 -1.3923
17066TIP3   OH272612   2.693   2.456  15.996  0.3048 -0.6975 -0.6406
17066TIP3    H172613   2.738   2.471  16.079  0.0750 -1.1623 -0.4302
17066TIP3    H272614   2.655   2.369  16.005 -0.9871 -0.1381 -0.6678
17067TIP3   OH272615   1.183   6.195   2.023 -0.0143 -0.2344  0.2969
17067TIP3    H172616   1.181   6.286   2.053 -0.5067 -0.6335  1.5324
17067TIP3    H272617   1.272   6.183   1.989 -0.3643  1.0931 -1.1696
17068TIP3   OH272618   4.767   3.326   5.252 -0.2187  0.1087  0.2386
17068TIP3    H172619   4.861   3.331   5.268  0.3078 -1.6996 -2.0329
17068TIP3    H272620   4.729   3.303   5.337  1.4241  0.3511  1.0538
17069TIP3   OH272621   2.141   6.335  16.616 -0.5267  0.3397  0.8152
17069TIP3    H172622   2.197   6.404  16.650 -0.1574  0.7590 -0.5951
17069TIP3    H272623   2.192   6.255  16.628 -1.0573  0.2557  2.6746
17070TIP3   OH272624   5.014   2.386   6.150 -0.2196  0.1680  0.4498
17070TIP3    H172625   5.103   2.423   6.144  0.0476 -0.6210 -0.4728
17070TIP3    H272626   4.960   2.446   6.098  0.1537 -0.5467 -0.7651
17071TIP3   OH272627   3.558   3.739  15.141  0.0011 -0.2735  0.1052
17071TIP3    H172628   3.480   3.745  15.086  0.6100 -3.0496 -1.1580
17071TIP3    H272629   3.532   3.780  15.224 -3.5394 -2.9940  0.4600
17072TIP3   OH272630   4.015   5.694   0.866 -0.3811 -0.1289  0.1691
17072TIP3    H172631   3.983   5.639   0.937  2.0107 -3.2654 -1.0793
17072TIP3    H272632   3.937   5.741   0.835 -2.2326 -1.7700  2.1785
17073TIP3   OH272633   5.337   2.932  11.570 -0.0945 -0.5817  0.4947
17073TIP3    H172634   5.324   2.872  11.643 -3.2523  0.0153  0.5084
17073TIP3    H272635   5.329   2.877  11.492 -1.4214 -0.4715  0.5392
17074TIP3   OH272636   3.202   6.085   1.665 -0.2287  0.9726  0.0149
17074TIP3    H172637   3.233   6.167   1.702  0.6117  1.1183 -0.9774
17074TIP3    H272638   3.251   6.017   1.712  0.2294  1.1186 -0.2461
17075TIP3   OH272639   0.861   2.699   1.763  0.3046  0.6239  0.2122
17075TIP3    H172640   0.931   2.662   1.709 -0.5131  0.0786 -0.4771
17075TIP3    H272641   0.896   2.784   1.791  0.7075  0.9672 -1.2533
17076TIP3   OH272642   6.711   0.317  14.148 -0.0505  0.2382 -0.5958
17076TIP3    H172643   6.776   0.343  14.213 -0.5050  1.8916 -0.7921
17076TIP3    H272644   6.763   0.278  14.077  0.7477  1.5479 -0.7510
17077TIP3   OH272645   4.041   0.900   2.459 -0.3513 -0.2008  0.7751
17077TIP3    H172646   4.118   0.954   2.442 -0.7984  0.0347 -0.6185
17077TIP3    H272647   4.003   0.886   2.372 -1.1439 -1.4033  1.3071
17078TIP3   OH272648   3.721   1.567   0.372  0.2090 -0.4284 -0.7479
17078TIP3    H172649   3.664   1.640   0.397  0.8329 -0.3686  0.5598
17078TIP3    H272650   3.680   1.530   0.294 -1.2241  0.0488 -0.2400
17079TIP3   OH272651   5.218   1.270  11.105 -0.3446  0.3312  0.5866
17079TIP3    H172652   5.248   1.330  11.037  1.1592 -1.6102 -0.5207
17079TIP3    H272653   5.265   1.296  11.184  1.0835 -0.0366 -0.1382
17080TIP3   OH272654   5.458   1.844   3.785  0.2332  0.2641 -0.2817
17080TIP3    H172655   5.453   1.940   3.783 -1.9879  0.2254  1.0456
17080TIP3    H272656   5.447   1.821   3.877 -0.1003 -1.2931 -0.6906
17081TIP3   OH272657   3.957   5.689  11.083  0.0369 -0.2014  0.2640
17081TIP3    H172658   3.963   5.729  10.996 -0.3533 -2.4176 -0.8133
17081TIP3    H272659   3.867   5.659  11.090  1.2283 -4.2799 -0.5417
17082TIP3   OH272660   2.203   5.652  15.037  0.0119  0.1161 -0.3663
17082TIP3    H172661   2.228   5.641  14.945 -1.3937  1.7257 -0.9526
17082TIP3    H272662   2.134   5.586  15.051  0.1976 -0.1001 -0.4673
17083TIP3   OH272663   2.372   6.736  16.086  0.2891 -0.2577 -0.8006
17083TIP3    H172664   2.380   6.646  16.054  0.6542  0.0074 -1.4592
17083TIP3    H272665   2.311   6.777  16.025  1.8458  0.5622 -1.8451
17084TIP3   OH272666   6.718   4.874   0.269  0.6288 -0.5416  0.5419
17084TIP3    H172667   6.650   4.817   0.306 -0.2509  0.4733  0.5098
17084TIP3    H272668   6.765   4.818   0.207  0.0783 -1.3718  0.8678
17085TIP3   OH272669   2.013   1.972   0.151  0.2895  0.4372  0.3220
17085TIP3    H172670   2.094   1.947   0.106  0.3249 -0.3276  0.7984
17085TIP3    H272671   2.032   1.959   0.244 -0.8868 -1.3015  0.3400
17086TIP3   OH272672   3.149   5.204   2.258 -0.8412  0.6650  0.6020
17086TIP3    H172673   3.114   5.220   2.171  0.4928 -0.7924 -0.2188
17086TIP3    H272674   3.072   5.190   2.313 -1.7041  2.0012 -0.2360
17087TIP3   OH272675   5.922   6.766   2.988 -0.0901 -0.2578 -0.1134
17087TIP3    H172676   5.933   6.694   2.926  0.7898 -0.6856  0.5309
17087TIP3    H272677   5.989   6.751   3.054 -0.2868  0.8328  0.3386
17088TIP3   OH272678   0.899   5.295   5.283 -0.0186 -0.1461 -0.1103
17088TIP3    H172679   0.834   5.316   5.217 -0.1514  2.2776  0.7370
17088TIP3    H272680   0.895   5.369   5.345  1.6177 -1.2853  1.3998
17089TIP3   OH272681   5.595   6.637  15.981 -0.0619 -0.3141 -0.1596
17089TIP3    H172682   5.565   6.567  16.039  0.8332 -0.2177  0.4322
17089TIP3    H272683   5.561   6.717  16.021  0.6924 -0.2334  0.3358
17090TIP3   OH272684   3.379   3.093  12.515  0.1128 -0.3602 -0.5670
17090TIP3    H172685   3.425   3.053  12.441  0.0358  0.7959 -1.2652
17090TIP3    H272686   3.433   3.168  12.539  0.1872 -0.7902  0.6254
17091TIP3   OH272687   0.199   4.245  15.474  0.4046  0.5619  0.0600
17091TIP3    H172688   0.279   4.298  15.466  0.4746  0.3207 -0.9138
17091TIP3    H272689   0.128   4.306  15.456  0.5208  0.1950 -1.7586
17092TIP3   OH272690   0.441   4.373  15.484  0.4642  0.0203 -0.0518
17092TIP3    H172691   0.423   4.457  15.442  1.1063  0.2322  0.0843
17092TIP3    H272692   0.518   4.389  15.539  0.7043 -0.6981 -0.1611
17093TIP3   OH272693   6.669   3.480  13.436  0.2490 -0.4557  0.1800
17093TIP3    H172694   6.605   3.456  13.369  1.0155  1.9411 -1.4599
17093TIP3    H272695   6.705   3.397  13.466  0.1089 -1.5612 -2.6089
17094TIP3   OH272696   1.057   5.895   4.631 -0.2958  0.0854  0.0870
17094TIP3    H172697   0.974   5.926   4.666  0.3277  1.0163  0.7594
17094TIP3    H272698   1.117   5.898   4.705  0.3569 -0.5290 -0.4121
17095TIP3   OH272699   6.219   0.663  15.771 -0.1269 -0.1707  0.2026
17095TIP3    H172700   6.223   0.611  15.691  0.4499 -0.7970  0.6300
17095TIP3    H272701   6.302   0.711  15.772 -1.4757  2.2411 -1.1719
17096TIP3   OH272702   3.353   3.479   2.214  0.3976  0.0607 -0.0116
17096TIP3    H172703   3.329   3.500   2.124  1.2971  0.8081 -0.0806
17096TIP3    H272704   3.317   3.391   2.228 -0.5993  0.3345 -0.7664
17097TIP3   OH272705   4.324   1.200  10.784  0.5215  0.3448  0.0484
17097TIP3    H172706   4.320   1.271  10.720  1.7544 -1.4184 -2.0629
17097TIP3    H272707   4.268   1.132  10.747  1.1156 -0.6447  0.9469
17098TIP3   OH272708   3.835   4.390   4.179 -0.3729  0.5840  0.5269
17098TIP3    H172709   3.870   4.302   4.165  1.2070  1.3706 -0.7913
17098TIP3    H272710   3.750   4.390   4.135  0.8255  0.4842 -1.9006
17099TIP3   OH272711   1.757   0.315   3.043  0.6817 -0.3021 -0.5692
17099TIP3    H172712   1.835   0.312   3.098 -0.8243 -0.3177  1.6205
17099TIP3    H272713   1.720   0.401   3.060 -1.0117 -1.1661  0.1719
17100TIP3   OH272714   2.561   4.795   1.352 -0.2242  0.0238 -0.6676
17100TIP3    H172715   2.605   4.757   1.276 -0.3520 -3.5898  0.9474
17100TIP3    H272716   2.478   4.748   1.358  0.8140 -1.5272  3.0376
17101TIP3   OH272717   2.710   1.298  16.756  0.4854  1.3261  0.0476
17101TIP3    H172718   2.746   1.219  16.797 -1.0260  1.2151  1.1912
17101TIP3    H272719   2.697   1.273  16.664 -1.3454 -0.2697  0.6977
17102TIP3   OH272720   1.161   0.633  12.169  0.1656 -0.2753  0.5562
17102TIP3    H172721   1.238   0.618  12.224  0.1353 -2.8167 -0.0347
17102TIP3    H272722   1.107   0.555  12.181 -0.7375 -0.0226 -1.6223
17103TIP3   OH272723   4.121   0.347  14.757 -0.4250  0.3379  0.2733
17103TIP3    H172724   4.123   0.391  14.672 -0.7004 -0.2570 -0.0403
17103TIP3    H272725   4.170   0.406  14.815 -0.2662  0.7636 -0.2844
17104TIP3   OH272726   3.367   6.534  13.144 -0.2765 -0.4303 -0.3403
17104TIP3    H172727   3.307   6.608  13.150  1.0888  0.6649 -0.0090
17104TIP3    H272728   3.341   6.488  13.065 -3.1801 -1.4217  1.1344
17105TIP3   OH272729   5.534   5.325   4.370 -0.1174  0.2274  0.0267
17105TIP3    H172730   5.618   5.348   4.411 -1.0118  0.3560  1.8458
17105TIP3    H272731   5.510   5.241   4.411 -0.7986  0.1177 -0.5989
17106TIP3   OH272732   5.270   6.329   5.181 -0.1603 -0.4716 -0.0498
17106TIP3    H172733   5.288   6.422   5.200  0.2090 -0.2455 -1.4607
17106TIP3    H272734   5.259   6.289   5.268  1.4614  0.5437  0.6628
17107TIP3   OH272735   1.611   3.573  13.484 -0.2388  0.2710 -0.5403
17107TIP3    H172736   1.667   3.500  13.509 -0.3380  0.0702 -0.8936
17107TIP3    H272737   1.670   3.647  13.476 -0.1046  0.1814 -0.3793
17108TIP3   OH272738   3.465   2.339   0.339  0.6958 -0.8914 -0.1441
17108TIP3    H172739   3.428   2.422   0.308  1.8831 -0.5445 -0.6948
17108TIP3    H272740   3.492   2.294   0.259  0.7458 -1.4734  0.2005
17109TIP3   OH272741   1.811   0.364   0.008 -0.1737 -0.2891  0.8211
17109TIP3    H172742   1.743   0.423   0.042 -0.8886 -1.0752  0.7694
17109TIP3    H272743   1.882   0.372   0.072 -0.9241 -0.6324  1.7229
17110TIP3   OH272744   1.744   4.732   5.691 -0.4894 -0.0707 -0.1171
17110TIP3    H172745   1.698   4.665   5.640 -1.9911  0.5800  0.3779
17110TIP3    H272746   1.817   4.758   5.634 -1.8266  0.2614 -1.7408
17111TIP3   OH272747   0.106   4.796  15.033  0.3781 -0.4541 -0.0014
17111TIP3    H172748   0.059   4.720  14.998 -0.1548  0.5671 -1.5152
17111TIP3    H272749   0.168   4.819  14.964  1.7132 -0.5351  1.1458
17112TIP3   OH272750   4.272   4.799  15.575 -0.6928  0.5359 -0.0500
17112TIP3    H172751   4.181   4.816  15.550 -0.3153  2.0489 -0.4291
17112TIP3    H272752   4.265   4.753  15.659 -1.7527  3.0108  1.2615
17113TIP3   OH272753   1.295   3.066   5.472 -0.3898  0.4286  0.3163
17113TIP3    H172754   1.300   3.058   5.377 -2.5492 -3.3000  0.4174
17113TIP3    H272755   1.232   3.135   5.488  1.3047  2.3034 -0.9229
17114TIP3   OH272756   2.034   5.144  14.787 -0.0326  0.3727 -0.3577
17114TIP3    H172757   1.994   5.147  14.700 -0.8478 -1.6115 -0.0628
17114TIP3    H272758   1.966   5.110  14.844  1.0258  0.1103  0.7769
17115TIP3   OH272759   5.446   2.798  14.221  0.0065 -0.0774  0.3378
17115TIP3    H172760   5.471   2.803  14.313  1.2095 -0.0418  0.0202
17115TIP3    H272761   5.368   2.853  14.214  0.8562  1.2453  1.0269
17116TIP3   OH272762   2.463   4.715  12.515  0.1932 -0.2429  0.0764
17116TIP3    H172763   2.444   4.703  12.423 -1.0777 -0.5136  0.3698
17116TIP3    H272764   2.544   4.666  12.529  1.3353  1.2125 -1.2505
17117TIP3   OH272765   3.574   1.267   5.671 -0.7603  0.1137 -0.6065
17117TIP3    H172766   3.512   1.215   5.722  0.5595  0.3469  1.3057
17117TIP3    H272767   3.520   1.331   5.626 -1.9293  0.3121  1.0358
17118TIP3   OH272768   5.219   3.760  14.648 -0.2026 -0.1909 -0.9123
17118TIP3    H172769   5.173   3.680  14.622  1.4499 -1.3401 -0.3963
17118TIP3    H272770   5.288   3.770  14.582  1.3539 -0.7747  0.5996
17119TIP3   OH272771   4.820   3.795  16.526  0.6006  0.5816 -0.1094
17119TIP3    H172772   4.743   3.824  16.478  0.3072 -1.9878 -1.3065
17119TIP3    H272773   4.893   3.805  16.464  0.4335 -1.4471 -0.6943
17120TIP3   OH272774   2.588   0.728  15.249  0.4143 -0.4502  0.4357
17120TIP3    H172775   2.526   0.684  15.307  1.5215 -1.0621  1.1725
17120TIP3    H272776   2.638   0.785  15.307  2.4108 -2.0447  0.3173
17121TIP3   OH272777   0.313   5.792  16.799 -0.4703  0.3357 -0.1886
17121TIP3    H172778   0.253   5.855  16.759 -1.2560  0.0859  0.5733
17121TIP3    H272779   0.385   5.845  16.833 -0.6801  0.7286 -0.3565
17122TIP3   OH272780   5.737   1.414   5.998  0.2964  0.6088  0.2807
17122TIP3    H172781   5.801   1.344   6.011  0.3227  0.5542 -0.1478
17122TIP3    H272782   5.658   1.382   6.040 -0.7946 -1.2536 -2.9950
17123TIP3   OH272783   2.531   2.383   0.425  0.5278  0.0535  0.0019
17123TIP3    H172784   2.532   2.437   0.505  0.2253  0.0841 -0.0176
17123TIP3    H272785   2.562   2.442   0.357  0.9499 -0.0195  0.1255
17124TIP3   OH272786   5.440   4.698  15.079 -0.0151  0.4050 -0.1142
17124TIP3    H172787   5.431   4.695  14.984  1.2579  1.5901 -0.2794
17124TIP3    H272788   5.353   4.672  15.112 -0.8226  1.1779 -1.5979
17125TIP3   OH272789   4.908   5.463   2.338 -0.3676  0.5165 -0.0560
17125TIP3    H172790   4.882   5.502   2.422 -0.8381  0.8296 -0.3460
17125TIP3    H272791   4.912   5.537   2.278 -2.0471  0.0054 -0.8079
17126TIP3   OH272792   5.343   0.578   5.757  0.0030  0.5308  0.1383
17126TIP3    H172793   5.257   0.540   5.741 -0.3810  1.1722  0.6256
17126TIP3    H272794   5.327   0.647   5.821  0.6377  1.6812 -0.9062
17127TIP3   OH272795   1.434   3.866   2.863 -0.2481 -0.0450  0.0762
17127TIP3    H172796   1.435   3.894   2.771 -0.4893  2.5170  0.8195
17127TIP3    H272797   1.344   3.836   2.878  0.1621 -1.8243 -0.8844
17128TIP3   OH272798   1.248   5.960   2.159 -0.1144  0.0720 -0.3235
17128TIP3    H172799   1.177   5.916   2.206  0.3617  2.1999  2.5186
17128TIP3    H272800   1.208   6.039   2.123 -0.2965 -1.1733 -2.9755
17129TIP3   OH272801   4.904   1.273   6.176 -0.1212  0.0204  0.5494
17129TIP3    H172802   4.929   1.362   6.199 -0.5472  0.3099 -0.0907
17129TIP3    H272803   4.809   1.270   6.190 -0.3635  0.1635 -1.0034
17130TIP3   OH272804   4.636   0.272  13.749 -0.2375 -0.5194  0.2200
17130TIP3    H172805   4.676   0.187  13.766 -1.4494 -1.5583 -1.8227
17130TIP3    H272806   4.561   0.252  13.693 -0.9299  1.8341  0.2465
17131TIP3   OH272807   6.383   3.590   3.666 -0.1126  0.4651  0.2980
17131TIP3    H172808   6.476   3.576   3.647 -0.1370  1.3992 -0.6029
17131TIP3    H272809   6.338   3.521   3.618  0.1028  0.1202  0.5896
17132TIP3   OH272810   6.326   3.734  11.435 -0.2143 -0.2904 -0.6004
17132TIP3    H172811   6.294   3.693  11.354 -2.2430  0.1344 -0.0447
17132TIP3    H272812   6.261   3.801  11.455 -1.0724 -2.0060  2.6913
17133TIP3   OH272813   2.399   4.851   3.286 -0.6003  0.3421  0.3778
17133TIP3    H172814   2.488   4.822   3.307 -0.7402  0.0550  0.5786
17133TIP3    H272815   2.343   4.780   3.317 -0.7892 -0.2552 -1.2881
17134TIP3   OH272816   0.191   3.535   2.084  0.1286 -0.0426 -0.0728
17134TIP3    H172817   0.254   3.534   2.012  0.1845  2.7798 -0.1180
17134TIP3    H272818   0.124   3.598   2.056 -0.2410  0.5201  2.0116
17135TIP3   OH272819   2.086   6.357   5.214  0.4430  0.0677  0.0716
17135TIP3    H172820   2.085   6.307   5.132  2.4500 -0.9040  0.6134
17135TIP3    H272821   2.034   6.305   5.275 -0.2232  0.2977 -0.2934
17136TIP3   OH272822   3.004   4.706  13.490  0.0445  0.0945  0.6795
17136TIP3    H172823   2.935   4.684  13.428 -0.7092 -0.0656  1.5654
17136TIP3    H272824   2.976   4.790  13.528  2.1550  1.9283 -1.6116
17137TIP3   OH272825   0.645   0.093   3.439  0.0931 -0.5665  0.2433
17137TIP3    H172826   0.699   0.173   3.436  0.4221 -0.7596  0.8909
17137TIP3    H272827   0.587   0.100   3.363  0.1981  0.2365  0.2356
17138TIP3   OH272828   2.173   3.104  13.427  0.3588  0.6624 -0.6320
17138TIP3    H172829   2.185   3.009  13.434  0.2855  0.5872 -1.4937
17138TIP3    H272830   2.105   3.124  13.491  0.4827  0.1534 -0.3339
17139TIP3   OH272831   6.503   4.220  10.713  0.1829  0.1373  0.1380
17139TIP3    H172832   6.451   4.178  10.645  1.2646  0.9218 -1.2014
17139TIP3    H272833   6.592   4.188  10.700  0.6227  1.1872  0.4379
17140TIP3   OH272834   0.725   6.398   5.688  0.7683 -0.2053 -0.4492
17140TIP3    H172835   0.759   6.474   5.736 -0.5206  1.2371 -1.7752
17140TIP3    H272836   0.726   6.327   5.752  1.2831  1.1057  1.0297
17141TIP3   OH272837   1.612   1.352  12.485  0.7325 -0.4054 -0.1006
17141TIP3    H172838   1.608   1.261  12.515 -0.3502 -0.9473 -1.7988
17141TIP3    H272839   1.538   1.395  12.528  2.8306  0.3631  2.8233
17142TIP3   OH272840   2.124   0.366  13.856 -0.6146 -0.1136  0.3611
17142TIP3    H172841   2.094   0.277  13.842  0.0458 -0.3962  0.6943
17142TIP3    H272842   2.056   0.407  13.910 -1.8669  0.1821 -1.3855
17143TIP3   OH272843   2.446   3.756  12.584  0.5668  1.1745  0.6418
17143TIP3    H172844   2.482   3.694  12.520 -0.9040  0.2736  0.6615
17143TIP3    H272845   2.469   3.719  12.669 -0.4514  0.5701  0.6552
17144TIP3   OH272846   1.528   5.423  11.545 -0.2219  0.5445  0.2138
17144TIP3    H172847   1.463   5.462  11.486  0.9337  2.0658 -0.1006
17144TIP3    H272848   1.597   5.393  11.487  0.2258  0.6766  0.6762
17145TIP3   OH272849   5.490   1.280   3.000 -0.0754  0.1522 -0.3987
17145TIP3    H172850   5.455   1.222   2.932 -3.1875  0.6911  0.6708
17145TIP3    H272851   5.500   1.224   3.077  1.0144  0.1145 -0.5544
17146TIP3   OH272852   1.530   3.584  16.037 -0.6977 -0.1114 -0.1586
17146TIP3    H172853   1.598   3.521  16.012  1.3114  1.7895  0.3333
17146TIP3    H272854   1.494   3.615  15.955  0.4187  0.3260 -0.4901
17147TIP3   OH272855   1.114   0.760   4.182  0.0734 -0.6597 -0.2684
17147TIP3    H172856   1.210   0.757   4.176  0.2405  0.0449  1.6599
17147TIP3    H272857   1.084   0.743   4.093  2.0034 -0.0980 -1.0558
17148TIP3   OH272858   4.506   3.511  15.188 -0.4418  0.0802 -0.0231
17148TIP3    H172859   4.443   3.581  15.171 -0.8344 -0.1892  0.2971
17148TIP3    H272860   4.504   3.500  15.283 -0.4987 -0.4691 -0.0850
17149TIP3   OH272861   1.068   1.035  15.437  0.1694 -0.1802  0.5687
17149TIP3    H172862   1.022   1.033  15.521  1.2696 -1.8912  1.1416
17149TIP3    H272863   1.159   1.050  15.459  0.3327  0.2954 -0.3904
17150TIP3   OH272864   0.414   0.573  16.902 -0.4163 -0.4474  0.4437
17150TIP3    H172865   0.368   0.538  16.825 -1.4788  0.7646  0.5083
17150TIP3    H272866   0.498   0.604  16.868 -0.4639 -0.8510 -0.0509
17151TIP3   OH272867   0.170   4.165   0.003  0.0072 -0.0813 -0.2168
17151TIP3    H172868   0.203   4.134   0.087  2.1537  0.7136 -0.7022
17151TIP3    H272869   0.242   4.219  -0.032 -1.4666  0.9102 -1.8276
17152TIP3   OH272870   1.024   6.728   2.137 -0.0623 -0.3852  0.0707
17152TIP3    H172871   0.962   6.683   2.195 -1.2145  0.8793 -0.1699
17152TIP3    H272872   1.089   6.765   2.197 -0.6043 -0.0744  0.4674
17153TIP3   OH272873   0.871   4.879   1.617 -0.5598 -0.4625  0.0296
17153TIP3    H172874   0.864   4.919   1.704 -1.6027 -0.3634 -0.0868
17153TIP3    H272875   0.965   4.873   1.600 -0.3725  2.3821 -0.1716
17154TIP3   OH272876   4.816   2.781   3.578  0.6608  0.0717  0.2839
17154TIP3    H172877   4.747   2.835   3.617 -1.3391 -1.8650 -0.4193
17154TIP3    H272878   4.807   2.796   3.484  0.3079 -1.1851  0.1086
17155TIP3   OH272879   4.734   4.986   0.691 -0.6691 -0.6471  0.4360
17155TIP3    H172880   4.776   5.060   0.734  0.9315 -0.9032 -0.6571
17155TIP3    H272881   4.681   4.945   0.760 -1.0307  1.0922  1.2117
17156TIP3   OH272882   2.291   6.428   0.283 -0.7731  0.0575  0.0081
17156TIP3    H172883   2.332   6.480   0.214  1.1966 -1.1086  0.2751
17156TIP3    H272884   2.259   6.350   0.238  1.7335 -1.3510  0.6052
17157TIP3   OH272885   4.523   0.648   2.750 -0.7917 -0.1615 -0.0048
17157TIP3    H172886   4.616   0.669   2.746 -1.1752  1.3816 -2.1486
17157TIP3    H272887   4.484   0.702   2.681 -2.9435 -2.4735 -0.6777
17158TIP3   OH272888   1.622   4.584  14.033 -0.1138  0.0361  0.4472
17158TIP3    H172889   1.655   4.526  13.964 -1.4461  0.3872 -0.4974
17158TIP3    H272890   1.620   4.529  14.112 -0.5337 -0.9587 -0.2514
17159TIP3   OH272891   3.729   4.108  13.881 -0.2994 -0.2874  0.7014
17159TIP3    H172892   3.663   4.111  13.812  0.1667 -0.0354  0.2632
17159TIP3    H272893   3.808   4.076  13.837  1.0541  3.4529  0.2486
17160TIP3   OH272894   4.851   4.116  13.390  0.3182  0.7846 -0.2732
17160TIP3    H172895   4.928   4.068  13.362  0.1839 -0.3688  1.3236
17160TIP3    H272896   4.798   4.053  13.438 -0.0720  2.3916  1.4843
17161TIP3   OH272897   4.445   3.633  12.681 -0.0156  0.5446  0.1187
17161TIP3    H172898   4.428   3.551  12.727 -0.0994 -0.0664 -0.9950
17161TIP3    H272899   4.415   3.617  12.592 -1.7316  2.3772  0.3210
17162TIP3   OH272900   0.007   5.498  12.051 -0.0099 -0.3249 -0.2084
17162TIP3    H172901  -0.006   5.419  12.104 -0.8900 -1.6243 -2.2988
17162TIP3    H272902  -0.050   5.563  12.091 -0.6004 -1.2576  0.4874
17163TIP3   OH272903   5.815   1.746  15.968  0.2804  0.4030 -0.4803
17163TIP3    H172904   5.870   1.672  15.995  1.4503  1.0379 -1.0589
17163TIP3    H272905   5.861   1.784  15.893 -0.2514  1.7666 -0.1350
17164TIP3   OH272906   6.098   0.599   1.842  0.1835 -0.5194  0.1901
17164TIP3    H172907   6.170   0.539   1.857 -0.2184 -0.4147  2.7465
17164TIP3    H272908   6.127   0.682   1.880  0.5017  0.7921 -2.7785
17165TIP3   OH272909   5.497   3.390  11.963  0.2995 -0.3332 -1.1104
17165TIP3    H172910   5.511   3.295  11.969  1.4123 -0.5035 -4.7115
17165TIP3    H272911   5.558   3.427  12.026  0.0115 -1.9956  0.1868
17166TIP3   OH272912   0.634   0.311   1.401  0.1203  0.0143  0.6780
17166TIP3    H172913   0.542   0.333   1.411 -0.3989 -2.1721  0.9978
17166TIP3    H272914   0.675   0.392   1.372 -1.8719  1.0487  0.6594
17167TIP3   OH272915   5.252   2.281  13.356 -0.3811 -0.2524 -0.2671
17167TIP3    H172916   5.173   2.229  13.371  0.0080 -1.2313 -1.5819
17167TIP3    H272917   5.298   2.236  13.286  1.6449  0.0121  0.8592
17168TIP3   OH272918   6.645   3.090   6.025 -0.3268 -0.1835  0.2850
17168TIP3    H172919   6.629   3.090   6.119 -2.2181 -0.9237 -0.0107
17168TIP3    H272920   6.589   3.159   5.990 -0.2872 -0.4884 -0.4017
17169TIP3   OH272921   0.083   0.189   5.007 -0.7222  0.1799 -0.5308
17169TIP3    H172922   0.085   0.265   5.066 -1.5409  0.9847 -1.5355
17169TIP3    H272923   0.153   0.132   5.040 -2.5824 -0.4362  2.6032
17170TIP3   OH272924   1.273   0.221   5.941  0.0686  0.5002 -0.2211
17170TIP3    H172925   1.272   0.254   6.031 -1.3944 -1.3453  0.4711
17170TIP3    H272926   1.365   0.225   5.915  0.6412  0.2103  1.6856
17171TIP3   OH272927   1.361   1.967  12.290  0.4583  0.0978 -0.0081
17171TIP3    H172928   1.286   1.984  12.347 -0.7091 -0.3776 -1.3912
17171TIP3    H272929   1.435   1.958  12.351 -0.8124 -0.6745  1.4623
17172TIP3   OH272930   2.967   4.345  12.200  0.2852  0.4895  0.5724
17172TIP3    H172931   2.922   4.375  12.122 -0.1547 -0.5031  0.4427
17172TIP3    H272932   2.930   4.259  12.219  0.9481  0.3718  1.4121
17173TIP3   OH272933   1.301   5.653  13.553 -0.0072  0.1252  0.1952
17173TIP3    H172934   1.315   5.576  13.498 -0.9475 -0.0961  0.2592
17173TIP3    H272935   1.322   5.727  13.497 -2.5082 -0.0184 -0.9856
17174TIP3   OH272936   5.358   0.152  15.719 -0.8501 -0.1669 -0.0817
17174TIP3    H172937   5.348   0.208  15.642 -0.5798 -1.1479 -0.8408
17174TIP3    H272938   5.450   0.161  15.743 -1.1008  0.7071  0.5760
17175TIP3   OH272939   0.709   2.983   1.554  0.0324  0.1087  0.0981
17175TIP3    H172940   0.739   3.072   1.575 -0.6066  0.3798 -0.1066
17175TIP3    H272941   0.789   2.933   1.539  0.4179  0.5114  0.7716
17176TIP3   OH272942   4.593   4.192  11.949  0.5717  0.6662  0.0355
17176TIP3    H172943   4.497   4.197  11.939  0.4133 -0.0275  1.1443
17176TIP3    H272944   4.626   4.204  11.860 -0.6008 -0.4555 -0.5853
17177TIP3   OH272945   5.537   6.217   4.134 -0.2768  0.3826  0.4087
17177TIP3    H172946   5.518   6.289   4.194  0.8658 -0.5728  1.9531
17177TIP3    H272947   5.616   6.176   4.169 -0.4916 -1.1786 -0.8585
17178TIP3   OH272948   5.641   4.643   3.406 -0.1025 -0.0714 -0.4551
17178TIP3    H172949   5.547   4.643   3.427 -0.4268  1.3139 -1.8404
17178TIP3    H272950   5.644   4.640   3.310  1.2593  0.4167 -0.4327
17179TIP3   OH272951   0.989   3.960   6.255  0.2826 -0.2113  0.3418
17179TIP3    H172952   0.976   3.921   6.341  3.3314  1.0165  1.3936
17179TIP3    H272953   0.930   4.036   6.254 -0.0186 -0.4253  1.1857
17180TIP3   OH272954   2.531   2.940  14.186 -0.1890  0.3883  0.1073
17180TIP3    H172955   2.502   3.026  14.158  1.6710  0.4719 -1.6698
17180TIP3    H272956   2.615   2.927  14.141 -1.1555 -2.9684 -0.8477
17181TIP3   OH272957   4.605   3.408   6.844 -0.3633  0.2225 -0.6550
17181TIP3    H172958   4.674   3.465   6.808 -0.7763  0.6992 -0.7014
17181TIP3    H272959   4.523   3.447   6.813 -0.6023 -1.1886 -1.8248
17182TIP3   OH272960   5.742   1.605   0.314  0.0903 -0.3374  0.3795
17182TIP3    H172961   5.743   1.626   0.221 -0.4879 -0.5091  0.3332
17182TIP3    H272962   5.834   1.590   0.337  0.3307  0.5726  0.0309
17183TIP3   OH272963   6.462   5.006  15.399 -0.0458 -0.3798 -0.3942
17183TIP3    H172964   6.453   4.920  15.440 -0.1810 -0.7882 -1.2714
17183TIP3    H272965   6.557   5.021  15.397 -0.0845  0.2187  1.2214
17184TIP3   OH272966   4.782   3.511  11.447 -0.6625  0.2002  0.7132
17184TIP3    H172967   4.701   3.562  11.443 -0.2933  0.7603  0.3450
17184TIP3    H272968   4.767   3.438  11.387 -0.0775  1.4888 -1.0240
17185TIP3   OH272969   0.663   5.389  13.762 -0.4940 -0.0404  0.0653
17185TIP3    H172970   0.597   5.456  13.749 -0.1781  0.3244  0.3489
17185TIP3    H272971   0.705   5.411  13.845 -1.2025 -1.2757  0.7645
17186TIP3   OH272972   1.942   6.036  14.488  0.3187 -1.0500 -0.3394
17186TIP3    H172973   1.853   6.008  14.466  0.0651  1.6739 -3.0766
17186TIP3    H272974   1.999   5.975  14.441 -0.0617 -2.3787  0.8745
17187TIP3   OH272975   1.092   1.391   0.312  0.1376 -0.1883 -0.3090
17187TIP3    H172976   1.118   1.482   0.326  0.4072  0.1460 -2.6731
17187TIP3    H272977   1.139   1.342   0.379  0.8017  1.3017  0.3414
17188TIP3   OH272978   6.473   5.038  11.708  0.2875 -0.1052  0.0181
17188TIP3    H172979   6.385   5.065  11.735  0.4453  0.2069  0.2220
17188TIP3    H272980   6.460   4.997  11.623  0.0030  0.3557 -0.1658
17189TIP3   OH272981   2.012   1.928  15.885 -0.3362 -0.4959 -0.4703
17189TIP3    H172982   1.918   1.921  15.899 -0.6013  1.0133 -1.4360
17189TIP3    H272983   2.048   1.944  15.973 -1.1171  0.2796 -0.2835
17190TIP3   OH272984   1.758   4.575  11.437 -0.0076 -0.3123 -0.3552
17190TIP3    H172985   1.669   4.540  11.438 -0.5904  1.0767 -1.8206
17190TIP3    H272986   1.812   4.504  11.473 -1.3513 -2.1398 -1.8170
17191TIP3   OH272987   4.950   2.848  11.413 -0.4211 -0.5228 -0.1644
17191TIP3    H172988   5.037   2.810  11.405  1.1713  3.1894 -1.3337
17191TIP3    H272989   4.900   2.807  11.342  2.2216  1.9772 -3.6393
17192TIP3   OH272990   2.123   3.423  15.326 -0.0886 -0.1453  0.2325
17192TIP3    H172991   2.214   3.441  15.349 -0.6242  0.4868  1.9347
17192TIP3    H272992   2.109   3.333  15.355  0.5689 -0.9409 -1.8812
17193TIP3   OH272993   0.139   1.273  15.131  0.2653 -0.3793  0.2302
17193TIP3    H172994   0.198   1.348  15.129  1.0771 -1.0251 -0.2254
17193TIP3    H272995   0.188   1.202  15.090 -0.8882 -0.8840 -0.3019
17194TIP3   OH272996   6.546   0.220  14.461  0.6839  0.4706  0.2305
17194TIP3    H172997   6.582   0.305  14.486  0.8120  0.3696  0.3928
17194TIP3    H272998   6.520   0.180  14.544  0.0833  0.5958  0.1007
17195TIP3   OH272999   5.217   5.232   4.268  0.5536 -0.0167  0.1777
17195TIP3    H173000   5.187   5.221   4.359  2.1731 -1.4059  0.5709
17195TIP3    H273001   5.264   5.151   4.249  1.6820  0.9725 -1.3438
17196TIP3   OH273002   6.357   2.527  11.610  0.0071  0.0786 -0.1793
17196TIP3    H173003   6.364   2.611  11.566  0.6166  0.6847  1.0463
17196TIP3    H273004   6.400   2.465  11.550  0.0071  0.7216 -0.8525
17197TIP3   OH273005   4.783   6.176   4.266  0.1798  0.2620  0.0544
17197TIP3    H173006   4.814   6.243   4.205  1.8367  1.2947  1.9716
17197TIP3    H273007   4.783   6.095   4.215 -1.0413  1.5477 -2.0437
17198TIP3   OH273008   2.592   1.582   4.991  0.2840 -0.0892 -0.5809
17198TIP3    H173009   2.594   1.518   5.063  0.7478 -0.6427 -1.0779
17198TIP3    H273010   2.678   1.572   4.949  1.1558  2.2921  0.5570
17199TIP3   OH273011   2.973   1.455  14.506  0.0884  0.5243  0.0792
17199TIP3    H173012   2.998   1.430  14.594 -2.2353  0.3786  0.7134
17199TIP3    H273013   3.022   1.536  14.490 -1.0838  1.7195  2.3152
17200TIP3   OH273014   4.482   4.407  13.906 -0.3336  0.1075 -0.5228
17200TIP3    H173015   4.439   4.420  13.822  0.3021  1.5294 -0.6499
17200TIP3    H273016   4.501   4.313  13.909 -2.7337 -0.3968 -0.7800
17201TIP3   OH273017   4.549   2.220   0.128  0.5233 -0.5283 -0.0661
17201TIP3    H173018   4.459   2.244   0.106  0.0568 -2.5580 -0.5011
17201TIP3    H273019   4.559   2.130   0.095  2.5568 -0.5081  0.3903
17202TIP3   OH273020   0.885   6.546   6.796  0.0664  0.4560  0.0628
17202TIP3    H173021   0.821   6.539   6.725 -1.8022  1.3897  1.6147
17202TIP3    H273022   0.920   6.457   6.805 -2.1600 -0.4475  0.2274
17203TIP3   OH273023   4.725   4.699  16.452  0.2794 -0.3191  0.0237
17203TIP3    H173024   4.677   4.630  16.497  0.5287  0.9343  2.2865
17203TIP3    H273025   4.815   4.666  16.446 -0.0472 -1.0661 -0.7879
17204TIP3   OH273026   0.015   1.931   0.887 -0.2019  0.0175  0.5429
17204TIP3    H173027  -0.008   1.896   0.973  0.6342 -0.3158  0.6373
17204TIP3    H273028   0.024   2.025   0.900  1.0923 -0.1739  1.0869
17205TIP3   OH273029   2.647   4.469   4.828  0.5378 -0.1070  0.5619
17205TIP3    H173030   2.696   4.389   4.845 -0.8015 -1.5372 -1.9784
17205TIP3    H273031   2.555   4.441   4.832  0.0768  1.1226 -1.0317
17206TIP3   OH273032   2.191   5.527   4.324  0.2214 -0.6557  0.1308
17206TIP3    H173033   2.221   5.437   4.310  3.4611  0.1009  1.8514
17206TIP3    H273034   2.239   5.579   4.260 -1.2129 -0.0377 -0.4743
17207TIP3   OH273035   1.342   2.004  14.582 -0.0937  0.4701  0.4540
17207TIP3    H173036   1.396   2.032  14.656  2.8492 -1.3278 -0.9422
17207TIP3    H273037   1.319   2.085  14.536  1.2741  1.2676  1.1630
17208TIP3   OH273038   0.460   5.561  13.707 -0.4155 -1.0874  0.7118
17208TIP3    H173039   0.471   5.652  13.736 -2.1837 -1.0886  1.4709
17208TIP3    H273040   0.387   5.564  13.646  1.0764 -1.6415 -1.1178
17209TIP3   OH273041   4.794   6.249   2.208  0.1707 -0.4117 -0.5927
17209TIP3    H173042   4.791   6.211   2.120  0.5804 -2.5232  0.2828
17209TIP3    H273043   4.832   6.180   2.263 -0.9651  0.5307  1.4216
17210TIP3   OH273044   2.242   0.418   1.947  0.0630 -0.2294 -0.0447
17210TIP3    H173045   2.244   0.387   1.857  0.1126  0.3776 -0.2598
17210TIP3    H273046   2.311   0.484   1.951  1.2101 -1.4657  0.9007
17211TIP3   OH273047   5.455   1.612  13.969 -0.4698  0.3547  0.1596
17211TIP3    H173048   5.378   1.610  14.026 -1.5006 -1.0055 -1.2379
17211TIP3    H273049   5.486   1.702  13.974 -1.5902  0.6805  1.4973
17212TIP3   OH273050   6.671   1.601   2.055 -0.9161 -0.4171  0.8189
17212TIP3    H173051   6.706   1.652   2.128 -0.5968  0.5549  0.0116
17212TIP3    H273052   6.745   1.546   2.027  0.0026  1.5801 -0.8368
17213TIP3   OH273053   2.177   6.683  12.196  0.2339 -0.6413  0.2688
17213TIP3    H173054   2.237   6.634  12.252 -0.1390 -2.3576 -0.7853
17213TIP3    H273055   2.209   6.667  12.107 -0.1250  0.7260 -0.1204
17214TIP3   OH273056   1.679   0.088   3.242  0.3172 -0.4908 -0.3153
17214TIP3    H173057   1.723   0.077   3.326 -0.8063 -0.6357  0.2598
17214TIP3    H273058   1.661   0.182   3.237  0.9303 -0.3861 -0.6836
17215TIP3   OH273059   3.270   5.345   5.162  0.2298 -0.1054  0.1640
17215TIP3    H173060   3.208   5.291   5.113  2.3121 -0.7483 -1.8446
17215TIP3    H273061   3.241   5.435   5.149  0.0100 -0.3706 -1.1900
17216TIP3   OH273062   5.561   0.483   4.747 -0.4301  0.2670  0.2186
17216TIP3    H173063   5.606   0.399   4.739 -0.3359  0.3528 -0.2215
17216TIP3    H273064   5.480   0.463   4.793  0.4964  0.2685  1.8862
17217TIP3   OH273065   0.714   5.886  12.446 -0.3780  0.0857 -0.3631
17217TIP3    H173066   0.775   5.861  12.376 -0.4187 -1.2348  0.0657
17217TIP3    H273067   0.731   5.824  12.516 -1.2863  0.5599  0.2821
17218TIP3   OH273068   0.780   3.665  17.226 -0.9743  0.7881 -0.7440
17218TIP3    H173069   0.827   3.603  17.282 -0.1960  2.5114  0.5687
17218TIP3    H273070   0.725   3.610  17.171 -0.8570 -1.0304  0.8875
17219TIP3   OH273071   5.920   1.422   3.039  0.0694  0.2427 -0.3656
17219TIP3    H173072   6.012   1.444   3.052 -0.1358  1.3030 -0.6432
17219TIP3    H273073   5.874   1.476   3.103 -0.4511  0.6308 -1.0679
17220TIP3   OH273074   5.813   5.025   0.074 -0.5474  0.8200 -0.3525
17220TIP3    H173075   5.890   4.995   0.027 -0.2984  0.7118  0.1223
17220TIP3    H273076   5.739   5.005   0.016 -0.1988  1.1697 -0.9232
17221TIP3   OH273077   5.335   1.760   2.658 -0.3288  0.3209  0.0167
17221TIP3    H173078   5.321   1.688   2.720  1.2006  0.0506  0.0642
17221TIP3    H273079   5.430   1.773   2.657 -0.2589 -0.1025 -2.7496
17222TIP3   OH273080   0.221   5.824  12.214  0.1980 -0.0289  0.4345
17222TIP3    H173081   0.316   5.823  12.202  0.3787  0.3457  1.7638
17222TIP3    H273082   0.185   5.841  12.127  1.4476  3.0935  0.4977
17223TIP3   OH273083   5.621   4.555   0.370  0.2450  0.3365 -0.2269
17223TIP3    H173084   5.568   4.619   0.323  0.8144  0.4854 -0.6709
17223TIP3    H273085   5.680   4.519   0.304  0.5115 -0.0286  0.2031
17224TIP3   OH273086   1.669   2.227  13.190 -0.7633  0.3006  0.0039
17224TIP3    H173087   1.654   2.282  13.267  1.4212 -1.9200  2.1055
17224TIP3    H273088   1.755   2.255  13.158 -0.8632 -0.0179 -0.5405
17225TIP3   OH273089   5.097   6.280  15.499  0.2503  0.8157 -0.1956
17225TIP3    H173090   5.044   6.342  15.449 -1.6227  0.3626  1.1845
17225TIP3    H273091   5.151   6.335  15.555 -2.0951  1.2181  1.7170
17226TIP3   OH273092   1.392   0.265   5.318 -0.1235  0.1750  0.2717
17226TIP3    H173093   1.298   0.268   5.302  0.3579  0.1481 -2.8031
17226TIP3    H273094   1.419   0.179   5.287  0.9333  0.1851  1.1302
17227TIP3   OH273095   2.185   6.064  17.103 -0.2503  0.2324  0.1638
17227TIP3    H173096   2.178   5.977  17.063 -1.5376  0.1719  0.5147
17227TIP3    H273097   2.129   6.120  17.050 -3.0348 -0.1301  2.5958
17228TIP3   OH273098   0.252   6.417  11.671  0.2660 -0.1142 -0.5824
17228TIP3    H173099   0.184   6.481  11.694  0.2143 -0.3123 -0.1741
17228TIP3    H273100   0.313   6.420  11.745  0.9808  0.4389 -1.1882
17229TIP3   OH273101   4.171   3.824   6.692  0.5456  0.5382  0.2411
17229TIP3    H173102   4.133   3.748   6.736 -0.6830  0.5217 -0.8334
17229TIP3    H273103   4.166   3.894   6.756 -1.8649  0.6884 -0.0787
17230TIP3   OH273104   1.330   1.436  14.249  0.0234 -0.2141 -0.4481
17230TIP3    H173105   1.256   1.481  14.289  0.9265 -1.3623  2.7034
17230TIP3    H273106   1.391   1.506  14.226 -1.0143  0.5649 -0.8652
17231TIP3   OH273107   2.863   5.227  14.030 -0.1157 -0.6904 -0.1998
17231TIP3    H173108   2.807   5.234  14.107 -0.3668  1.0209 -0.5292
17231TIP3    H273109   2.952   5.231  14.065 -0.2061 -1.1293  0.0990
17232TIP3   OH273110   4.946   3.679  13.079  0.1727 -0.9110 -0.2919
17232TIP3    H173111   4.931   3.633  12.997 -1.7133 -1.0006  0.0666
17232TIP3    H273112   4.944   3.772  13.055 -2.3172 -0.8678 -0.1126
17233TIP3   OH273113   2.733   3.693   0.454  0.2641  0.1633 -0.1014
17233TIP3    H173114   2.681   3.633   0.507  2.2039  0.3145  2.0281
17233TIP3    H273115   2.709   3.780   0.486  1.1462  0.2805  0.2323
17234TIP3   OH273116   2.622   5.120  13.247  0.1050  0.0403 -0.0780
17234TIP3    H173117   2.688   5.057  13.274  0.1300 -0.1569 -0.5869
17234TIP3    H273118   2.662   5.205  13.260  0.6438 -0.0872 -0.8326
17235TIP3   OH273119   2.704   0.973   5.556  0.2899  0.2809 -0.0918
17235TIP3    H173120   2.665   0.900   5.508  0.5687 -0.0899  0.2408
17235TIP3    H273121   2.644   0.990   5.628  2.1692 -2.2092  2.1408
17236TIP3   OH273122   1.915   4.064  13.333  0.5930  0.1061  0.6336
17236TIP3    H173123   1.940   4.140  13.281  0.2695 -0.5607 -0.5432
17236TIP3    H273124   1.973   4.065  13.409  0.6654  1.4440  0.5548
17237TIP3   OH273125   0.882   1.636   0.646  0.4304  0.6570  0.2831
17237TIP3    H173126   0.804   1.650   0.699 -0.2955  0.3217 -0.6998
17237TIP3    H273127   0.858   1.664   0.558  0.5557 -1.9167 -0.6115
17238TIP3   OH273128   1.923   2.210  17.047  0.6922  0.7996  0.6536
17238TIP3    H173129   1.937   2.196  17.141  0.1732 -1.6068  0.4045
17238TIP3    H273130   1.940   2.303  17.034  1.2733  1.0636  3.0449
17239TIP3   OH273131   0.415   3.793   5.082 -0.6212  0.1361 -0.6494
17239TIP3    H173132   0.363   3.717   5.109 -0.5792  1.0860  2.2203
17239TIP3    H273133   0.354   3.850   5.037 -0.8566 -1.1455 -2.0062
17240TIP3   OH273134   5.167   2.278   1.939 -0.1991 -0.2746 -0.7312
17240TIP3    H173135   5.083   2.235   1.927  0.0341 -0.3221 -2.2980
17240TIP3    H273136   5.146   2.370   1.953 -0.6428 -0.6862  1.6606
17241TIP3   OH273137   1.572   0.497   0.987  0.1523 -0.5513  0.3189
17241TIP3    H173138   1.561   0.455   1.072  0.9149 -2.2650 -0.4130
17241TIP3    H273139   1.557   0.428   0.923  0.9276  0.4013 -0.9219
17242TIP3   OH273140   0.336   1.232  11.234 -0.7660 -0.3294  0.3485
17242TIP3    H173141   0.243   1.226  11.257 -0.4187  1.0704  2.1909
17242TIP3    H273142   0.342   1.313  11.182 -0.1716  0.9978  2.4311
17243TIP3   OH273143   2.178   0.662   1.353  0.2884 -0.2608  0.0257
17243TIP3    H173144   2.248   0.600   1.372  1.8238  1.7239  1.0487
17243TIP3    H273145   2.120   0.657   1.429  1.0282  0.3649  0.6442
17244TIP3   OH273146   3.461   0.403   0.336 -0.0266 -0.5829  0.2176
17244TIP3    H173147   3.505   0.392   0.252  0.7437 -0.5800  0.6227
17244TIP3    H273148   3.371   0.425   0.313  0.0574 -1.0822 -0.6079
17245TIP3   OH273149   4.696   2.233   0.605  0.1494 -0.3244  0.2103
17245TIP3    H173150   4.652   2.163   0.556 -1.6227  1.0167 -0.1557
17245TIP3    H273151   4.702   2.305   0.542  3.5066 -0.6783  0.0339
17246TIP3   OH273152   2.721   6.589  13.502 -0.3684 -0.4330  0.1610
17246TIP3    H173153   2.657   6.634  13.557 -0.2183  0.9337 -0.7550
17246TIP3    H273154   2.687   6.499  13.494 -1.8494  0.1092  0.1970
17247TIP3   OH273155   3.093   1.934  14.554  0.0060 -0.8325 -0.3823
17247TIP3    H173156   3.014   1.900  14.597  0.0104  1.8612  1.9466
17247TIP3    H273157   3.061   1.975  14.474 -0.6738 -1.6655 -0.5426
17248TIP3   OH273158   3.423   2.409   4.483  0.2543  0.4476 -0.1542
17248TIP3    H173159   3.417   2.498   4.449  3.3757  0.1262 -1.7760
17248TIP3    H273160   3.403   2.353   4.408  1.7105 -0.2105 -0.0762
17249TIP3   OH273161   5.641   5.409  15.148  0.6882 -0.2685  0.5308
17249TIP3    H173162   5.644   5.472  15.221  1.2704 -0.2869  0.5230
17249TIP3    H273163   5.714   5.349  15.165 -0.3810 -1.4549  1.0005
17250TIP3   OH273164   1.519   6.786   2.049 -0.5187  0.4099  0.0164
17250TIP3    H173165   1.593   6.833   2.088  0.6393 -2.5836  1.6185
17250TIP3    H273166   1.476   6.851   1.994  0.7119  3.4727  2.4804
17251TIP3   OH273167   3.884   5.525   1.767 -0.1820  0.1901 -0.3544
17251TIP3    H173168   3.821   5.453   1.763  0.8317 -0.7607  0.6159
17251TIP3    H273169   3.848   5.591   1.707 -2.2519 -0.2034  0.4154
17252TIP3   OH273170   2.320   2.719   5.433  0.0713 -0.0154 -0.1072
17252TIP3    H173171   2.290   2.797   5.480 -1.1027 -0.3709 -0.2446
17252TIP3    H273172   2.244   2.661   5.432  1.1247 -1.4281  0.5472
17253TIP3   OH273173   4.562   2.986  11.672  0.3366  0.1245  0.1599
17253TIP3    H173174   4.567   2.993  11.577 -0.9374 -2.0068 -0.0806
17253TIP3    H273175   4.644   3.024  11.704  1.5888 -0.8733 -1.8599
17254TIP3   OH273176   4.762   5.838   3.071 -0.9511 -0.2270 -0.5332
17254TIP3    H173177   4.843   5.853   3.021 -1.2379  0.7791 -0.7019
17254TIP3    H273178   4.709   5.916   3.054 -0.8148  0.4204  1.8023
17255TIP3   OH273179   3.341   5.259   4.485  0.0439  0.3478 -0.0731
17255TIP3    H173180   3.416   5.228   4.537  1.1088  1.2506 -1.0364
17255TIP3    H273181   3.304   5.331   4.535 -1.0427 -0.9776  1.0721
17256TIP3   OH273182   2.407   4.131  15.209  0.5115 -0.0512 -0.4709
17256TIP3    H173183   2.359   4.134  15.292  1.2046 -0.8120 -0.0335
17256TIP3    H273184   2.450   4.217  15.204  0.9995 -0.2455  0.2877
17257TIP3   OH273185   4.660   2.078   3.740  0.4120  0.1327 -0.7223
17257TIP3    H173186   4.580   2.026   3.732  2.0992 -2.8597  0.9759
17257TIP3    H273187   4.709   2.059   3.661 -0.4810  1.9827 -1.7719
17258TIP3   OH273188   0.378   6.762  14.229  0.6431  0.4120 -0.2338
17258TIP3    H173189   0.346   6.694  14.288 -0.3327 -0.2609 -1.5105
17258TIP3    H273190   0.332   6.841  14.255  0.6562  0.2510  0.2809
17259TIP3   OH273191   6.787   6.617   4.745 -0.3101 -0.3967  0.1603
17259TIP3    H173192   6.874   6.640   4.714  0.7814 -1.9098  1.9905
17259TIP3    H273193   6.729   6.683   4.706  1.1421 -1.3451 -3.7604
17260TIP3   OH273194   2.263   5.318  15.236 -0.8000  0.4615  0.3786
17260TIP3    H173195   2.335   5.313  15.173 -0.5028  0.2010  0.7274
17260TIP3    H273196   2.184   5.315  15.183 -0.5580 -0.5881  0.0612
17261TIP3   OH273197   3.688   4.873  15.228 -0.1655 -0.2612  0.5497
17261TIP3    H173198   3.700   4.805  15.295 -0.7414 -1.1649 -0.2491
17261TIP3    H273199   3.619   4.839  15.171 -1.5809  1.7176  1.0418
17262TIP3   OH273200   0.019   4.003  14.179  0.0840  0.1061 -0.3606
17262TIP3    H173201  -0.034   4.051  14.243  1.4888  2.3604 -0.8373
17262TIP3    H273202   0.068   4.071  14.132  0.6900 -1.6698 -2.3747
17263TIP3   OH273203   2.274   1.467  12.355  0.1778  0.0282  0.2740
17263TIP3    H173204   2.183   1.481  12.326  0.1718  0.1345  0.3424
17263TIP3    H273205   2.284   1.372  12.355 -0.5429 -0.0741  2.1254
17264TIP3   OH273206   2.255   1.502   0.680 -0.4111 -0.1399  0.4488
17264TIP3    H173207   2.322   1.492   0.612 -0.1289 -0.8287  0.8224
17264TIP3    H273208   2.303   1.535   0.755 -0.5883 -0.1031  0.5440
17265TIP3   OH273209   0.270   0.363  17.200 -0.5003 -0.2776  0.3002
17265TIP3    H173210   0.192   0.418  17.201 -1.0783 -1.0750 -0.2463
17265TIP3    H273211   0.343   0.425  17.209 -1.2270  0.3633  2.0846
17266TIP3   OH273212   6.670   3.326  14.229  0.0408 -0.3115  0.3014
17266TIP3    H173213   6.764   3.343  14.229  0.1330 -0.6419 -1.6781
17266TIP3    H273214   6.641   3.348  14.317  2.1821 -1.3227  1.2992
17267TIP3   OH273215   3.187   0.599   5.161  0.0429  0.2915  0.5626
17267TIP3    H173216   3.280   0.608   5.141  0.1055  0.5159  0.9532
17267TIP3    H273217   3.156   0.533   5.100  0.2640  0.8674 -0.1776
17268TIP3   OH273218   0.731   2.793  10.769 -0.4824  0.0912 -0.2172
17268TIP3    H173219   0.732   2.879  10.811 -1.0671 -0.3978  0.8398
17268TIP3    H273220   0.778   2.805  10.687  1.1522  0.9575  0.8158
17269TIP3   OH273221   3.675   4.578  12.485 -0.6660  0.1719 -0.2141
17269TIP3    H173222   3.683   4.637  12.560  2.0772 -0.0438 -0.2666
17269TIP3    H273223   3.713   4.627  12.412  0.8881 -1.2884 -0.4321
17270TIP3   OH273224   1.956   3.599   0.812 -0.0474  0.1059  0.0309
17270TIP3    H173225   2.048   3.620   0.800  0.1740  0.0311  1.4658
17270TIP3    H273226   1.916   3.681   0.841 -0.4209  0.1134 -0.4848
17271TIP3   OH273227   2.634   2.539   1.900 -0.0174 -0.4084  0.3483
17271TIP3    H173228   2.685   2.575   1.827  2.0516  0.7064  2.2831
17271TIP3    H273229   2.599   2.616   1.945 -0.0612 -1.0347  1.4027
17272TIP3   OH273230   3.609   5.741  11.849 -0.0105 -0.0254 -0.5287
17272TIP3    H173231   3.532   5.798  11.852  0.6397  0.7790  2.8915
17272TIP3    H273232   3.590   5.672  11.912  0.9450 -1.3564 -1.6641
17273TIP3   OH273233   5.335   5.619  10.667  0.0694 -0.1595 -0.7148
17273TIP3    H173234   5.397   5.644  10.735  1.4269 -0.9929 -1.6244
17273TIP3    H273235   5.286   5.545  10.705  1.6940 -1.4601 -1.0901
17274TIP3   OH273236   2.105   4.947   4.951 -0.2254 -0.4405  0.1173
17274TIP3    H173237   2.100   4.926   5.044  0.0414 -1.0794 -0.0107
17274TIP3    H273238   2.049   5.024   4.941  1.0350  0.6261  1.0935
17275TIP3   OH273239   3.764   1.401  13.050  0.1180  0.4265 -0.4061
17275TIP3    H173240   3.857   1.411  13.068  0.9434 -2.1690 -2.8177
17275TIP3    H273241   3.744   1.470  12.987  0.4260  0.8830 -0.0113
17276TIP3   OH273242   3.507   1.922  13.329  0.2283 -0.9807 -0.2433
17276TIP3    H173243   3.457   1.867  13.269 -1.8806 -1.9195  2.2953
17276TIP3    H273244   3.565   1.861  13.374  1.6141 -0.3189 -1.0999
17277TIP3   OH273245   2.477   1.072   1.977  0.3434 -0.3343 -0.0641
17277TIP3    H173246   2.427   1.004   2.021  0.8155 -0.9893 -0.5128
17277TIP3    H273247   2.464   1.151   2.030 -0.3306 -0.7399  0.3756
17278TIP3   OH273248   0.394   0.470   2.309 -0.2390 -0.0353  0.1452
17278TIP3    H173249   0.311   0.433   2.279 -1.3157  1.9150  0.6068
17278TIP3    H273250   0.421   0.529   2.239 -1.9108  3.2508  2.1211
17279TIP3   OH273251   0.725   1.124  15.491 -0.2140  0.4529 -0.3686
17279TIP3    H173252   0.794   1.115  15.557  0.0708 -2.0579 -0.9469
17279TIP3    H273253   0.766   1.096  15.409 -1.5568  0.1145 -0.9452
17280TIP3   OH273254   4.871   1.978   1.466 -0.4872 -0.5958  0.1154
17280TIP3    H173255   4.783   2.003   1.436  0.1745 -0.0533 -1.4034
17280TIP3    H273256   4.922   2.058   1.460  1.0036 -1.6809 -2.3972
17281TIP3   OH273257   3.748   5.190   4.405 -0.5104  0.2686 -0.7846
17281TIP3    H173258   3.686   5.152   4.467 -0.7329  1.6141 -0.1677
17281TIP3    H273259   3.826   5.137   4.413 -0.6827  0.1786  0.3622
17282TIP3   OH273260   2.241   6.186   5.555  0.5728  0.1553  0.0973
17282TIP3    H173261   2.305   6.256   5.544  2.5773 -1.6635 -0.2702
17282TIP3    H273262   2.218   6.160   5.465  0.6368 -0.3535  0.2245
17283TIP3   OH273263   6.747   2.905   4.520 -0.2484 -0.1768  0.0518
17283TIP3    H173264   6.695   2.883   4.598  0.4576  0.8304  0.8259
17283TIP3    H273265   6.811   2.834   4.513 -0.5070 -0.4251  0.2234
17284TIP3   OH273266   5.510   2.376  16.072 -0.0818 -0.3375 -0.3381
17284TIP3    H173267   5.516   2.281  16.078  0.2254 -0.5279 -3.2521
17284TIP3    H273268   5.453   2.401  16.145  1.3872 -2.5334  1.6306
17285TIP3   OH273269   4.711   2.379  11.961  0.0541  0.2393 -0.0606
17285TIP3    H173270   4.691   2.299  12.009 -3.0691  0.8739 -0.1825
17285TIP3    H273271   4.744   2.349  11.877  0.1468 -0.9175  0.3808
17286TIP3   OH273272   4.272   0.532  10.639  0.3573 -0.0982 -0.5119
17286TIP3    H173273   4.212   0.587  10.587  2.6351  4.1386  1.0408
17286TIP3    H273274   4.215   0.493  10.706 -1.5836 -0.7488 -2.4862
17287TIP3   OH273275   3.548   2.462  10.948 -0.0852 -0.0649 -0.1609
17287TIP3    H173276   3.610   2.443  10.878 -1.8810  0.1729 -1.8785
17287TIP3    H273277   3.529   2.376  10.987 -0.1666 -0.4180 -0.9523
17288TIP3   OH273278   2.535   1.563   4.275 -0.1458 -0.6178  0.2847
17288TIP3    H173279   2.589   1.486   4.257  0.3225  0.1788 -1.8944
17288TIP3    H273280   2.593   1.623   4.321  0.3056 -0.4865 -0.4503
17289TIP3   OH273281   0.389   4.022   5.253  0.1744  0.2916  0.2344
17289TIP3    H173282   0.365   3.947   5.199  0.2108  1.0375 -0.8256
17289TIP3    H273283   0.373   4.098   5.197  0.2413  1.0725  1.2602
17290TIP3   OH273284   0.723   3.875  11.869  0.0783 -0.4641 -0.3495
17290TIP3    H173285   0.798   3.858  11.926 -0.1001  0.4413  0.1592
17290TIP3    H273286   0.704   3.790  11.828 -0.3197 -1.3281  1.5705
17291TIP3   OH273287   2.943   4.817   4.815  0.4090 -0.3159  0.0689
17291TIP3    H173288   2.848   4.801   4.818  0.7066 -2.3401 -0.2061
17291TIP3    H273289   2.960   4.841   4.725  0.0517  0.8885  0.3105
17292TIP3   OH273290   4.480   4.610   1.113  0.2253  0.2926 -0.0804
17292TIP3    H173291   4.457   4.525   1.151 -2.0441  0.1144 -1.7918
17292TIP3    H273292   4.506   4.664   1.188 -1.8785 -0.7702  1.4604
17293TIP3   OH273293   2.520   1.390   1.397  0.2845  0.0015  0.7199
17293TIP3    H173294   2.542   1.366   1.487  0.0841  1.2416  1.0983
17293TIP3    H273295   2.553   1.479   1.387  0.9219 -0.3658 -0.6536
17294TIP3   OH273296   1.722   1.700   3.285  0.1034 -0.2628  0.3731
17294TIP3    H173297   1.667   1.754   3.228  1.1234  0.6451  0.2382
17294TIP3    H273298   1.714   1.611   3.250 -0.6218  0.0020 -0.1438
17295TIP3   OH273299   6.754   1.681  11.680  0.1718  0.1217 -0.4782
17295TIP3    H173300   6.672   1.660  11.635 -0.5566  0.5642  0.6405
17295TIP3    H273301   6.778   1.768  11.646 -0.7094  0.7363  0.4252
17296TIP3   OH273302   5.840   2.120  14.557 -0.5659 -0.0317  0.1377
17296TIP3    H173303   5.908   2.069  14.514  0.5150 -0.1254  1.9363
17296TIP3    H273304   5.802   2.060  14.621 -0.0431  1.0452  1.4916
17297TIP3   OH273305   4.828   1.440   3.814  0.1844  0.1573  0.0099
17297TIP3    H173306   4.827   1.369   3.749  1.0223 -0.5182  0.7374
17297TIP3    H273307   4.832   1.395   3.898  5.0432  1.0687  0.3917
17298TIP3   OH273308   5.523   5.849  14.913 -0.1290  0.3193  0.1478
17298TIP3    H173309   5.461   5.818  14.978  1.0941  0.8938  1.6185
17298TIP3    H273310   5.516   5.945  14.915  1.1027  0.4059  0.6370
17299TIP3   OH273311   0.063   0.747   2.834  0.3392 -0.4646  0.1489
17299TIP3    H173312   0.120   0.815   2.869 -0.1309  0.3739 -0.7078
17299TIP3    H273313   0.107   0.717   2.754 -0.5943  0.4511 -0.7226
17300TIP3   OH273314   5.645   6.464   1.711  0.9361 -0.1980  0.2340
17300TIP3    H173315   5.629   6.476   1.805  0.3726  1.8294 -0.1173
17300TIP3    H273316   5.701   6.538   1.687 -1.6412  1.1588 -1.7234
17301TIP3   OH273317   2.763   0.768  11.665 -0.2585 -0.0123  0.2740
17301TIP3    H173318   2.688   0.813  11.625 -0.5627 -0.6248  0.1431
17301TIP3    H273319   2.829   0.836  11.675 -0.7594  0.4918  0.1973
17302TIP3   OH273320   3.458   4.805  15.404 -0.4028 -0.1673 -0.2389
17302TIP3    H173321   3.461   4.716  15.369 -1.4456  0.1933 -1.2912
17302TIP3    H273322   3.432   4.859  15.330  0.9555  1.1361  0.2031
17303TIP3   OH273323   0.127   3.988   3.331 -0.5579 -0.7198  0.0337
17303TIP3    H173324   0.222   3.981   3.319 -0.6943  1.2125 -2.7183
17303TIP3    H273325   0.091   3.965   3.246 -2.3884  1.3549  0.1957
17304TIP3   OH273326   5.107   1.907  12.743  0.1213  0.2190  0.1859
17304TIP3    H173327   5.188   1.955  12.725  1.1475 -1.7742 -0.6027
17304TIP3    H273328   5.041   1.951  12.689  1.2646  0.0792 -1.3492
17305TIP3   OH273329   4.532   1.665  12.079  0.0092  0.5936 -0.1830
17305TIP3    H173330   4.560   1.649  11.989 -0.3012  1.4902 -0.4405
17305TIP3    H273331   4.610   1.649  12.132  0.2813  0.4130 -0.6395
17306TIP3   OH273332   0.829   3.130  15.844  0.4579 -0.5363  0.6519
17306TIP3    H173333   0.744   3.099  15.877 -0.3514 -0.0889 -0.9481
17306TIP3    H273334   0.834   3.221  15.871 -0.6341  0.1046 -1.2334
17307TIP3   OH273335   4.664   1.845  14.644  0.0442  0.3031 -0.7643
17307TIP3    H173336   4.664   1.865  14.551  0.7439 -0.9418 -1.0469
17307TIP3    H273337   4.680   1.750  14.648 -1.8879  0.0078  0.5473
17308TIP3   OH273338   0.758   0.625   4.590  0.1359 -0.3020  0.4085
17308TIP3    H173339   0.742   0.561   4.520 -1.9842  0.3967  0.2243
17308TIP3    H273340   0.760   0.709   4.545  1.0888 -0.0580  0.8991
17309TIP3   OH273341   1.932   0.962  12.552  0.6261  0.6889  0.1033
17309TIP3    H173342   1.899   0.881  12.513 -0.1934  1.2287 -0.3230
17309TIP3    H273343   1.998   0.993  12.490 -0.2029  1.1969 -0.5164
17310TIP3   OH273344   2.967   5.914   2.541 -0.6800 -0.3469  0.3585
17310TIP3    H173345   2.881   5.946   2.570 -0.5620  0.3225 -0.0039
17310TIP3    H273346   2.949   5.875   2.455 -0.3413  1.3211 -0.4904
17311TIP3   OH273347   5.250   0.758  14.050  0.2387 -0.5270 -0.0087
17311TIP3    H173348   5.271   0.779  13.959  1.2331  0.4963  0.4460
17311TIP3    H273349   5.169   0.807  14.069  0.5866  0.0590 -0.0381
17312TIP3   OH273350   1.523   6.186  11.774  0.7031  0.2167 -0.2814
17312TIP3    H173351   1.436   6.146  11.779  0.8914 -0.1149  0.4447
17312TIP3    H273352   1.510   6.276  11.804  0.9084 -0.3260  1.5129
17313TIP3   OH273353   0.670   0.077   4.228  0.1540  0.3772 -0.3091
17313TIP3    H173354   0.719   0.049   4.305  0.1669  0.7207 -0.1935
17313TIP3    H273355   0.737   0.095   4.162  0.2407  1.7032  0.1261
17314TIP3   OH273356   1.413   1.210   2.870  0.1129 -0.4005  0.1859
17314TIP3    H173357   1.488   1.215   2.928  0.0130 -0.6838  0.3396
17314TIP3    H273358   1.399   1.300   2.841 -0.4834 -0.0910  1.4214
17315TIP3   OH273359   4.765   4.116   4.017 -0.0339  0.5640  0.1193
17315TIP3    H173360   4.678   4.103   3.982  0.1549  0.0557 -0.1560
17315TIP3    H273361   4.750   4.141   4.109 -0.4225 -0.9727  0.4977
17316TIP3   OH273362   2.102   5.372   6.035  0.8141 -0.0452 -0.1353
17316TIP3    H173363   2.118   5.327   5.953  2.9898 -0.4221  0.4795
17316TIP3    H273364   2.166   5.442   6.037 -0.9085  1.5669  0.0787
17317TIP3   OH273365   3.615   0.977  15.922 -0.0468 -0.0408  0.4081
17317TIP3    H173366   3.571   0.912  15.976  1.6589 -2.0708 -0.5573
17317TIP3    H273367   3.544   1.031  15.887 -1.4038 -0.6526  2.1532
17318TIP3   OH273368   4.130   3.640   3.646  0.1761 -0.1157  0.5714
17318TIP3    H173369   4.087   3.660   3.729  0.0042 -2.5739  1.1200
17318TIP3    H273370   4.065   3.663   3.579 -0.2861  0.3875  1.1872
17319TIP3   OH273371   5.416   1.964  13.460 -0.3278 -0.2659 -0.4614
17319TIP3    H173372   5.434   1.962  13.366 -2.1724 -2.6996 -0.8169
17319TIP3    H273373   5.421   1.872  13.488  1.3646  0.5286  2.0855
17320TIP3   OH273374   1.252   0.049  13.502 -0.4638 -0.3857  0.3452
17320TIP3    H173375   1.200  -0.007  13.560 -0.8948 -1.8143 -1.3781
17320TIP3    H273376   1.340   0.047  13.540 -1.5496  1.8171  3.1161
17321TIP3   OH273377   2.547   2.376   5.703 -0.2507 -0.6764  0.0049
17321TIP3    H173378   2.604   2.382   5.627  0.8159  3.7194  1.0253
17321TIP3    H273379   2.466   2.420   5.676 -1.5384 -2.8486  0.1023
17322TIP3   OH273380   0.715   3.448  11.507  0.2928 -0.7826  0.8512
17322TIP3    H173381   0.781   3.503  11.548 -0.3952  0.3743  0.4488
17322TIP3    H273382   0.632   3.494  11.524 -0.5415 -2.7782  2.3028
17323TIP3   OH273383   4.518   3.925   4.124 -0.2222 -0.2148 -0.3822
17323TIP3    H173384   4.553   3.903   4.211  0.6680  1.5457 -0.2563
17323TIP3    H273385   4.423   3.930   4.137 -0.1727 -0.9183  0.2675
17324TIP3   OH273386   4.750   4.765   4.629 -0.0450  0.0798  0.1710
17324TIP3    H173387   4.824   4.811   4.668  0.3299  1.0247 -1.6146
17324TIP3    H273388   4.759   4.675   4.661  1.3746  0.3749  0.6519
17325TIP3   OH273389   1.723   5.347   5.583 -0.1467  0.1112 -0.5172
17325TIP3    H173390   1.729   5.436   5.618  0.6357  0.0842 -0.5700
17325TIP3    H273391   1.637   5.316   5.611  0.0285  0.4811  0.4488
17326TIP3   OH273392   2.066   5.860  15.139 -0.4717 -0.1001 -0.3608
17326TIP3    H173393   2.102   5.794  15.079 -0.0267 -1.2839  1.1670
17326TIP3    H273394   2.124   5.936  15.129 -0.7963 -0.0419 -1.8922
17327TIP3   OH273395   2.568   4.627  11.871  0.5689  0.1127 -0.0262
17327TIP3    H173396   2.562   4.707  11.924 -2.2359 -0.4508  0.5784
17327TIP3    H273397   2.662   4.610  11.865  1.1685  2.8632  0.7192
17328TIP3   OH273398   1.077   3.559   0.667  0.2729  0.1550  0.2240
17328TIP3    H173399   1.168   3.574   0.642  0.7566 -1.0062  1.1843
17328TIP3    H273400   1.042   3.503   0.597  1.1107 -1.6450  1.1923
17329TIP3   OH273401   3.819   3.394   4.702 -0.0768 -0.1518 -0.0943
17329TIP3    H173402   3.791   3.318   4.754 -0.9586  1.5294  1.9656
17329TIP3    H273403   3.801   3.368   4.612 -2.2484 -1.6436  0.7039
17330TIP3   OH273404   0.688   3.125  11.952  0.0599  0.2856 -0.0772
17330TIP3    H173405   0.753   3.145  12.019 -0.1507 -0.0894  0.2361
17330TIP3    H273406   0.655   3.211  11.925  0.8591  0.4972 -0.4136
17331TIP3   OH273407   2.046   2.015  12.073 -0.3716  0.0074 -0.0588
17331TIP3    H173408   1.966   2.051  12.035 -0.1594 -0.8336 -1.3233
17331TIP3    H273409   2.030   1.921  12.076  1.5928 -0.4786 -2.8661
17332TIP3   OH273410   1.292   6.353   3.737 -0.7268 -0.2873  0.3745
17332TIP3    H173411   1.203   6.389   3.744 -0.7770 -0.1871 -0.7557
17332TIP3    H273412   1.313   6.325   3.827 -2.0697 -0.7244  0.5683
17333TIP3   OH273413   6.167   5.803  11.482  0.1311 -0.5114  0.6514
17333TIP3    H173414   6.204   5.795  11.394  0.9669  0.8654  0.8535
17333TIP3    H273415   6.192   5.722  11.527 -2.0082 -2.1335 -0.9653
17334TIP3   OH273416   2.909   2.832  11.621  0.3743  0.0795 -0.1286
17334TIP3    H173417   2.897   2.787  11.537  0.2179  0.4380 -0.3011
17334TIP3    H273418   2.822   2.862  11.645  0.2842 -0.7046  0.5598
17335TIP3   OH273419   5.351   3.293   3.702 -0.4046  0.1769 -0.2542
17335TIP3    H173420   5.274   3.260   3.656 -0.1621 -2.8710  1.3970
17335TIP3    H273421   5.424   3.276   3.642 -0.7330  1.2756 -0.9925
17336TIP3   OH273422   4.847   5.283  13.406 -0.0514 -0.4260 -0.4426
17336TIP3    H173423   4.785   5.209  13.402  1.7352 -1.9912 -0.0338
17336TIP3    H273424   4.906   5.268  13.333 -0.2801  1.1881 -0.9666
17337TIP3   OH273425   1.889   3.712  15.411 -0.2582 -0.4808  0.4431
17337TIP3    H173426   1.831   3.740  15.340 -0.2911 -1.9909 -0.1432
17337TIP3    H273427   1.975   3.748  15.388 -0.7976  1.2104  0.9785
17338TIP3   OH273428   6.305   1.990   4.317 -0.9726  0.1509  0.1563
17338TIP3    H173429   6.363   2.034   4.255 -0.0203 -2.0117 -0.5286
17338TIP3    H273430   6.302   2.048   4.393 -0.0340  1.5450 -0.8515
17339TIP3   OH273431   2.781   5.529  15.049  0.3761 -0.2483  0.2659
17339TIP3    H173432   2.783   5.601  15.112 -1.0087  0.5493 -0.5820
17339TIP3    H273433   2.873   5.503  15.041  0.6146 -0.1609  2.3554
17340TIP3   OH273434   3.705   4.738  15.913 -0.2081 -0.3247 -0.3253
17340TIP3    H173435   3.672   4.752  16.002  1.9949  1.8902  0.2058
17340TIP3    H273436   3.661   4.805  15.860  1.2439  0.7905 -0.1540
17341TIP3   OH273437   2.103   1.918   4.806  0.7174  0.4000  0.1903
17341TIP3    H173438   2.070   2.008   4.807  2.2828  0.9854  1.2169
17341TIP3    H273439   2.058   1.875   4.879 -0.3153  0.2350 -0.5347
17342TIP3   OH273440   0.613   0.819  16.210 -0.0901 -0.2394 -0.6899
17342TIP3    H173441   0.618   0.913  16.194  0.2481 -0.4426 -1.7787
17342TIP3    H273442   0.582   0.812  16.300 -1.6368  0.9054 -1.1240
17343TIP3   OH273443   3.627   2.704   6.319 -0.7443 -0.1663 -0.2882
17343TIP3    H173444   3.566   2.639   6.286 -3.2703  2.0127 -0.0663
17343TIP3    H273445   3.592   2.788   6.289  2.0969  1.1628 -0.0887
17344TIP3   OH273446   2.411   1.195   6.547  0.0474 -0.5860 -0.0359
17344TIP3    H173447   2.391   1.272   6.601  0.8844  0.0870 -0.6621
17344TIP3    H273448   2.328   1.173   6.505 -0.3350 -0.3876  0.6032
17345TIP3   OH273449   1.322   4.357   5.596 -0.0745 -0.3591 -0.0983
17345TIP3    H173450   1.413   4.328   5.596  0.0254 -0.0481 -0.2407
17345TIP3    H273451   1.287   4.327   5.511  0.4321  1.1834 -0.8614
17346TIP3   OH273452   1.807   3.259   0.910 -0.2754 -0.0556 -0.1464
17346TIP3    H173453   1.773   3.199   0.975  0.6509  0.9535  1.3132
17346TIP3    H273454   1.774   3.345   0.937  0.2299  0.3924 -0.9248
17347TIP3   OH273455   0.534   0.897  14.319  0.5579  0.8977 -0.3145
17347TIP3    H173456   0.521   0.925  14.410  1.1956  0.0786  0.0346
17347TIP3    H273457   0.499   0.808  14.316  2.4990  0.1186 -0.3337
17348TIP3   OH273458   6.371   6.359  10.492  0.1043 -0.0018  0.2098
17348TIP3    H173459   6.292   6.311  10.517 -0.3947  1.1312  0.8381
17348TIP3    H273460   6.440   6.320  10.546 -0.2593 -0.1333  0.5879
17349TIP3   OH273461   5.757   0.648  14.355 -0.1929 -0.5176  0.0619
17349TIP3    H173462   5.764   0.628  14.262  1.4723  0.4281 -0.0241
17349TIP3    H273463   5.676   0.698  14.362  0.5575  0.8963 -1.1482
17350TIP3   OH273464   4.019   5.183   4.639 -0.3805  0.1937  0.0770
17350TIP3    H173465   4.008   5.165   4.546 -0.1900  2.5077 -0.4220
17350TIP3    H273466   3.977   5.268   4.652  1.1696  0.7360  1.7430
17351TIP3   OH273467   5.075   4.760  13.384  0.2507  0.1501 -0.5734
17351TIP3    H173468   5.031   4.828  13.333  0.1983 -1.0924 -2.2195
17351TIP3    H273469   5.116   4.808  13.456  0.4421  1.9745 -1.8487
17352TIP3   OH273470   0.278   5.886  15.992  0.2670 -0.1343  0.2426
17352TIP3    H173471   0.328   5.813  16.030  0.3369  0.5019  1.3901
17352TIP3    H273472   0.215   5.843  15.934  0.3639 -1.1126  0.8425
17353TIP3   OH273473   4.894   2.206   5.210  0.1903 -0.5560 -0.1338
17353TIP3    H173474   4.873   2.170   5.296  0.1891  0.0193  0.1097
17353TIP3    H273475   4.820   2.263   5.189  0.9952  0.6364  0.2463
17354TIP3   OH273476   3.194   4.181   0.739  0.0317  0.1634 -0.4560
17354TIP3    H173477   3.269   4.193   0.797 -1.6155  3.1499  1.1895
17354TIP3    H273478   3.195   4.259   0.682 -0.3849 -1.0141 -2.1160
17355TIP3   OH273479   0.869   3.689  13.248  0.2152  0.4878  0.1511
17355TIP3    H173480   0.957   3.690  13.286  0.5013 -2.1821 -0.3554
17355TIP3    H273481   0.829   3.770  13.279  2.1941  0.8278  1.9482
17356TIP3   OH273482   4.069   2.952  14.403 -0.3306 -1.1465 -0.2730
17356TIP3    H173483   3.998   3.010  14.428  0.6277  0.4674 -1.2017
17356TIP3    H273484   4.029   2.865  14.397 -1.8488 -0.5307  0.7772
17357TIP3   OH273485   4.573   3.404   4.754 -0.1965  0.0304  0.3369
17357TIP3    H173486   4.503   3.361   4.804 -0.4748  0.6792  0.5052
17357TIP3    H273487   4.643   3.339   4.751  0.3453  0.4828  2.7221
17358TIP3   OH273488   5.435   2.782  11.331 -0.2332 -0.0933  0.3940
17358TIP3    H173489   5.468   2.693  11.347 -0.5228  0.1316  2.4368
17358TIP3    H273490   5.345   2.768  11.300  0.3547 -0.5674 -1.1262
17359TIP3   OH273491   3.115   5.275  14.207 -0.1327  0.7894 -0.2034
17359TIP3    H173492   3.077   5.260  14.293  1.3274 -0.9486  0.1757
17359TIP3    H273493   3.158   5.361  14.215 -0.0524  0.6675  0.7806
17360TIP3   OH273494   6.524   3.997  14.992  0.1782 -0.5395  0.1925
17360TIP3    H173495   6.511   4.038  15.078 -0.3931 -0.8883  0.2760
17360TIP3    H273496   6.439   4.005  14.949  0.8970  1.0724 -0.9792
17361TIP3   OH273497   1.433   5.686  15.503  0.2387 -0.2637 -0.3864
17361TIP3    H173498   1.435   5.765  15.557  1.9027 -0.8765  0.4720
17361TIP3    H273499   1.360   5.635  15.539  0.3019  0.0701  0.2235
17362TIP3   OH273500   1.337   1.496   4.100  0.3049  0.4044  0.1945
17362TIP3    H173501   1.347   1.406   4.133 -0.9264 -0.6108 -2.1348
17362TIP3    H273502   1.307   1.486   4.010  0.5780  3.1731 -0.2542
17363TIP3   OH273503   3.130   1.384   5.041 -0.1049  0.1207  0.7299
17363TIP3    H173504   3.148   1.431   5.123  1.0112 -0.5918  0.9005
17363TIP3    H273505   3.154   1.294   5.060 -1.9508 -0.4763  0.3003
17364TIP3   OH273506   4.935   5.511   0.175 -0.1181 -0.3842 -0.2497
17364TIP3    H173507   5.008   5.484   0.119  0.4732 -0.2396  0.4471
17364TIP3    H273508   4.858   5.473   0.134  0.6381 -2.6932  0.4351
17365TIP3   OH273509   1.544   0.634   2.585 -0.1149  0.3868 -0.1461
17365TIP3    H173510   1.478   0.643   2.653  0.7751  0.0870  0.7611
17365TIP3    H273511   1.570   0.724   2.564 -0.8391  0.5060 -0.5369
17366TIP3   OH273512   4.156   2.203  12.405  0.0351 -0.3819 -0.0008
17366TIP3    H173513   4.205   2.280  12.434 -0.2521 -0.1231 -0.2077
17366TIP3    H273514   4.207   2.167  12.332  0.1762 -0.3983  0.1064
17367TIP3   OH273515   1.303   0.595  15.079 -0.0472 -0.0672 -0.1915
17367TIP3    H173516   1.360   0.667  15.050  0.5439 -1.1704 -1.7814
17367TIP3    H273517   1.361   0.520  15.089 -1.3247 -1.4127 -2.5658
17368TIP3   OH273518   0.646   6.273  14.097  0.1698  0.3431 -0.1872
17368TIP3    H173519   0.729   6.284  14.144 -0.5149 -0.3759  1.1983
17368TIP3    H273520   0.661   6.201  14.037  0.2479 -0.4370  0.7649
17369TIP3   OH273521   5.729   1.156  16.118  0.3788  0.3313 -0.4294
17369TIP3    H173522   5.793   1.204  16.066  0.6523  0.8573  0.3784
17369TIP3    H273523   5.647   1.163  16.068  0.5427  1.1876 -0.5808
17370TIP3   OH273524   5.703   5.972   2.144  0.2688  0.2802 -0.1368
17370TIP3    H173525   5.652   5.892   2.159  0.8271  0.2245  1.5738
17370TIP3    H273526   5.793   5.946   2.163  0.9012  0.4893 -2.7304
17371TIP3   OH273527   6.001   4.646   0.241  0.4368 -0.0116  0.1594
17371TIP3    H173528   5.951   4.724   0.265  1.3824  0.4027  0.8087
17371TIP3    H273529   6.057   4.673   0.169 -0.2184 -0.4598 -0.5266
17372TIP3   OH273530   1.445   4.299   0.602  0.9898  0.6364  0.1331
17372TIP3    H173531   1.352   4.292   0.578  1.1180  1.1885 -0.5660
17372TIP3    H273532   1.458   4.231   0.668  0.5553 -0.8009 -1.2209
17373TIP3   OH273533   1.178   3.158   2.089 -0.3407 -0.0561  0.3327
17373TIP3    H173534   1.222   3.126   2.010  0.1084  0.2195  0.4665
17373TIP3    H273535   1.124   3.085   2.117 -1.2181  0.1633 -0.7441
17374TIP3   OH273536   0.776   4.844   1.048 -0.3137  0.2067 -0.0387
17374TIP3    H173537   0.777   4.887   1.134  1.3130 -1.4655  0.7883
17374TIP3    H273538   0.759   4.916   0.986  2.3680  2.0980  1.3076
17375TIP3   OH273539   6.476   6.228   5.531  0.7513  0.3376  0.1103
17375TIP3    H173540   6.463   6.316   5.565 -2.8796  0.5814 -1.7065
17375TIP3    H273541   6.518   6.241   5.447  0.0504  0.3598 -0.2399
17376TIP3   OH273542   6.474   4.794  13.735 -0.0750  0.5621  0.1088
17376TIP3    H173543   6.506   4.839  13.657  0.8736 -1.5342 -0.7604
17376TIP3    H273544   6.521   4.836  13.808  0.6577  1.1041 -0.6695
17377TIP3   OH273545   5.298   1.483   0.969  0.0617 -0.1251  0.0559
17377TIP3    H173546   5.387   1.506   0.939  0.0926 -0.3311 -0.0107
17377TIP3    H273547   5.276   1.552   1.032  1.0261 -1.1136  1.5082
17378TIP3   OH273548   5.357   0.138   0.546  0.5223 -0.0705 -0.1484
17378TIP3    H173549   5.337   0.220   0.591  0.3858 -0.6869  0.9560
17378TIP3    H273550   5.420   0.162   0.478  0.1677  1.0078 -0.1059
17379TIP3   OH273551   3.358   4.151   1.200 -0.1180  0.2811  0.1598
17379TIP3    H173552   3.431   4.199   1.162 -0.2590  0.2035 -0.2130
17379TIP3    H273553   3.280   4.188   1.159 -0.1211 -1.4401 -1.4451
17380TIP3   OH273554   6.301   3.251  12.284 -0.1520  0.2923  0.2415
17380TIP3    H173555   6.274   3.305  12.359  0.8396  1.1027  0.0202
17380TIP3    H273556   6.343   3.312  12.224  0.9253 -0.7063 -0.0452
17381TIP3   OH273557   4.293   0.561  13.634  0.7385 -0.3378  0.3890
17381TIP3    H173558   4.310   0.490  13.696  0.8038  0.2561  1.0587
17381TIP3    H273559   4.338   0.636  13.671 -0.2133  0.3143  0.2315
17382TIP3   OH273560   5.931   3.036  15.794  0.0333  0.1278 -0.4143
17382TIP3    H173561   5.979   2.961  15.760 -2.3436 -0.6001 -2.2774
17382TIP3    H273562   5.881   3.069  15.719 -2.6107  0.6504  1.4912
17383TIP3   OH273563   5.158   1.616  15.544 -0.0161 -0.8041 -0.1033
17383TIP3    H173564   5.109   1.665  15.478 -1.5390 -1.2499  0.6643
17383TIP3    H273565   5.170   1.678  15.616  3.6576  0.4189 -1.6555
17384TIP3   OH273566   6.500   5.367  12.018 -0.1376  0.2099 -0.7052
17384TIP3    H173567   6.407   5.388  12.008 -0.2057 -0.2075 -0.9687
17384TIP3    H273568   6.501   5.291  12.077  0.1522  1.4431  0.9370
17385TIP3   OH273569   2.762   5.281   1.205 -0.0978 -0.4117 -0.3950
17385TIP3    H173570   2.792   5.191   1.212 -0.5541 -0.6413 -1.2945
17385TIP3    H273571   2.784   5.307   1.115  0.0613  0.3837 -0.1357
17386TIP3   OH273572   1.387   3.105   0.874 -0.9229  0.4312 -0.1713
17386TIP3    H173573   1.349   3.031   0.827 -0.8172 -0.1042  0.5852
17386TIP3    H273574   1.423   3.161   0.805  2.4220 -2.0929 -0.6267
17387TIP3   OH273575   5.476   4.321  14.465 -0.3008  0.5186 -0.1592
17387TIP3    H173576   5.474   4.383  14.393  0.8045  0.5479 -0.1767
17387TIP3    H273577   5.388   4.283  14.467 -0.8899  1.8456 -0.3492
17388TIP3   OH273578   0.495   4.842  12.145  0.3835 -0.1714 -0.1324
17388TIP3    H173579   0.455   4.869  12.062  1.3502 -0.1470 -0.5972
17388TIP3    H273580   0.524   4.752  12.129 -3.3122 -1.8159  1.5746
17389TIP3   OH273581   4.290   5.171  15.504 -0.4779  0.3159 -0.8154
17389TIP3    H173582   4.298   5.252  15.453  0.2815  0.5454 -0.3364
17389TIP3    H273583   4.336   5.105  15.452  0.7397  0.6597 -0.2077
17390TIP3   OH273584   6.706   0.696  16.087  0.0487  0.3248  0.1409
17390TIP3    H173585   6.726   0.689  16.181  0.1500  0.6957  0.1479
17390TIP3    H273586   6.640   0.628  16.072  0.7953 -0.4206  0.2610
17391TIP3   OH273587   0.876   0.967   3.450 -0.2314  0.1906 -0.2035
17391TIP3    H173588   0.817   0.894   3.432 -0.0388 -0.2175  0.7563
17391TIP3    H273589   0.830   1.044   3.418 -1.2235 -0.1493  0.3755
17392TIP3   OH273590   4.771   5.017   1.869 -0.1627 -0.2857  0.5566
17392TIP3    H173591   4.799   5.108   1.885 -1.3671  0.3686 -0.9834
17392TIP3    H273592   4.833   4.984   1.805 -1.4138  0.3920 -1.0406
17393TIP3   OH273593   5.209   4.041   2.921  0.0167 -0.4678 -0.5332
17393TIP3    H173594   5.126   4.079   2.949 -0.5932  0.0313 -2.9176
17393TIP3    H273595   5.269   4.115   2.916  0.5673 -0.8038  1.0275
17394TIP3   OH273596   0.266   4.165  13.464  0.0029  0.1642 -0.2781
17394TIP3    H173597   0.195   4.226  13.442 -0.0899 -0.2039 -1.0216
17394TIP3    H273598   0.260   4.154  13.559 -1.2741 -0.2710 -0.4017
17395TIP3   OH273599   0.785   5.125  16.149 -0.1156  0.1352 -0.3645
17395TIP3    H173600   0.844   5.059  16.185  1.1027  0.4397 -1.7444
17395TIP3    H273601   0.763   5.181  16.223  0.9046 -0.3014  0.2720
17396TIP3   OH273602   6.303   5.618  16.739  0.1641 -0.4022  0.1948
17396TIP3    H173603   6.374   5.601  16.676 -1.5237 -2.0836 -1.2965
17396TIP3    H273604   6.348   5.650  16.817  2.6574 -2.2687 -0.4167
17397TIP3   OH273605   3.708   4.231  11.718  0.3022  0.0359  0.2487
17397TIP3    H173606   3.743   4.280  11.644  1.3149  0.0944  0.7591
17397TIP3    H273607   3.689   4.298  11.784  1.8397 -0.2526  1.0081
17398TIP3   OH273608   6.600   0.897  16.711 -0.1566  0.2795  0.3846
17398TIP3    H173609   6.583   0.802  16.715 -0.7146  0.3614 -0.0112
17398TIP3    H273610   6.516   0.935  16.684  0.2066  0.8430  0.0485
17399TIP3   OH273611   6.509   4.287  10.971 -0.1042  0.5300  0.5405
17399TIP3    H173612   6.519   4.382  10.970 -1.6327  0.7080 -1.2437
17399TIP3    H273613   6.486   4.265  10.880  0.2518 -1.5476  0.9267
17400TIP3   OH273614   1.726   1.988  16.979 -0.4996  0.1381  0.2492
17400TIP3    H173615   1.789   2.054  17.009  0.5673 -0.4763 -0.6492
17400TIP3    H273616   1.744   1.977  16.886 -1.3937 -0.6506  0.1632
17401TIP3   OH273617   5.787   6.532   4.003  0.3156 -0.4739 -0.7442
17401TIP3    H173618   5.852   6.474   3.965 -1.4573 -2.6437 -0.5473
17401TIP3    H273619   5.772   6.497   4.091  0.3074  1.1869 -0.0644
17402TIP3   OH273620   3.553   3.110   5.021 -0.1427 -0.3307  0.1843
17402TIP3    H173621   3.500   3.061   5.084 -1.2898  0.9789  0.2691
17402TIP3    H273622   3.517   3.087   4.935 -0.6807  0.3583  0.2242
17403TIP3   OH273623   6.634   0.098   2.410  0.3209  0.3083 -0.1307
17403TIP3    H173624   6.558   0.090   2.353  0.5377  0.2101 -0.4102
17403TIP3    H273625   6.599   0.098   2.499 -0.0228  0.5208 -0.2676
17404TIP3   OH273626   5.752   2.515  16.131  0.4759 -0.2550 -0.3855
17404TIP3    H173627   5.729   2.496  16.222  1.6413  0.1522  0.0069
17404TIP3    H273628   5.683   2.472  16.079  0.5539 -1.6661  0.6390
17405TIP3   OH273629   6.012   2.690   4.995 -0.0087 -0.0771 -0.2399
17405TIP3    H173630   5.939   2.750   5.011 -0.8186 -1.0679 -0.1210
17405TIP3    H273631   6.030   2.650   5.080 -0.3617 -0.9756 -0.5797
17406TIP3   OH273632   6.152   5.285  14.234  0.3189  0.3055 -0.6186
17406TIP3    H173633   6.146   5.309  14.327  1.9959  1.0364 -0.6812
17406TIP3    H273634   6.197   5.359  14.193  0.0765 -0.2550 -1.9208
17407TIP3   OH273635   4.288   6.098   4.790  0.5046  0.0793  0.2889
17407TIP3    H173636   4.290   6.123   4.883  1.8984  3.7038 -0.6238
17407TIP3    H273637   4.195   6.097   4.768  0.2368  0.8427  1.3146
17408TIP3   OH273638   5.771   5.039  14.801  0.0428  0.1126  0.1592
17408TIP3    H173639   5.748   5.039  14.894  2.4379  2.3363  0.8179
17408TIP3    H273640   5.708   5.098  14.760 -1.1407 -1.0240  0.2942
17409TIP3   OH273641   3.397   4.681   2.246  0.0233 -0.3069 -0.5556
17409TIP3    H173642   3.322   4.623   2.255  1.4133 -2.0800 -0.1000
17409TIP3    H273643   3.465   4.641   2.300  1.4714  0.9944 -1.3588
17410TIP3   OH273644   6.449   4.230  16.172  0.2138 -0.3644 -0.1062
17410TIP3    H173645   6.430   4.227  16.078  0.3665 -0.8387 -0.1253
17410TIP3    H273646   6.376   4.279  16.209  0.4679  0.3674 -0.5499
17411TIP3   OH273647   3.381   5.949   3.767 -1.0024  0.1481  0.2864
17411TIP3    H173648   3.318   5.929   3.698 -0.6211  2.4110 -0.8015
17411TIP3    H273649   3.329   5.988   3.837 -1.2360 -1.0609  0.7917
17412TIP3   OH273650   0.271   6.083  12.066  0.2735 -0.2924 -0.4234
17412TIP3    H173651   0.300   6.028  11.993  0.0187 -1.7304  0.5366
17412TIP3    H273652   0.352   6.117  12.105  0.4768 -0.8102 -0.3940
17413TIP3   OH273653   2.417   2.518  10.897 -0.9148  0.3528  0.5717
17413TIP3    H173654   2.336   2.568  10.886 -0.0031  1.3630 -1.8403
17413TIP3    H273655   2.394   2.430  10.867 -1.2782  0.4561  0.5395
17414TIP3   OH273656   2.517   4.402   5.385 -0.1003 -0.0662  0.4278
17414TIP3    H173657   2.592   4.345   5.372  0.0479  0.2239 -0.0123
17414TIP3    H273658   2.452   4.347   5.429 -0.4049 -0.9302 -1.0581
17415TIP3   OH273659   3.972   5.638   1.276  0.6263 -0.3138 -0.0223
17415TIP3    H173660   4.048   5.604   1.324  0.8079 -0.7427 -0.6147
17415TIP3    H273661   3.930   5.699   1.338  0.4080 -1.4567  0.9693
17416TIP3   OH273662   1.435   1.504   0.190  0.3173  0.1877 -0.9978
17416TIP3    H173663   1.357   1.458   0.158  1.1915 -1.5909 -0.6327
17416TIP3    H273664   1.413   1.527   0.281  0.6264 -1.2522 -0.5597
17417TIP3   OH273665   3.113   1.983   1.931 -0.1668  0.4717  0.5484
17417TIP3    H173666   3.028   1.972   1.974  0.0214  1.3701  1.1661
17417TIP3    H273667   3.124   2.078   1.925  0.5391  0.3523 -0.0438
17418TIP3   OH273668   1.278   3.261   4.209  0.0279 -0.4486  0.7886
17418TIP3    H173669   1.239   3.341   4.244  0.0725  0.1308 -0.4684
17418TIP3    H273670   1.372   3.276   4.212  0.0505 -0.6023  0.8821
17419TIP3   OH273671   0.120   3.337   2.308 -0.1877  0.1370 -0.0756
17419TIP3    H173672   0.108   3.420   2.263 -1.3800  0.0879  0.1224
17419TIP3    H273673   0.034   3.295   2.303 -0.2657 -0.0025  1.9645
17420TIP3   OH273674   2.045   0.658   1.661 -0.0621  0.2073  0.3367
17420TIP3    H173675   2.019   0.628   1.748  1.0009 -1.0946  0.2377
17420TIP3    H273676   2.129   0.701   1.674  0.6057 -0.8978 -0.1621
17421TIP3   OH273677   0.103   3.203   3.067  0.2079 -0.0072 -0.4253
17421TIP3    H173678   0.013   3.188   3.039  0.4041  1.0251 -1.6994
17421TIP3    H273679   0.154   3.137   3.021  0.0672 -0.8536  0.6124
17422TIP3   OH273680   1.269   6.666   5.328  0.0937 -0.3493 -0.1459
17422TIP3    H173681   1.351   6.693   5.287 -0.2522 -1.8143 -1.8710
17422TIP3    H273682   1.280   6.572   5.343 -1.2887 -0.5573 -0.4143
17423TIP3   OH273683   4.002   3.941   0.261  0.2700 -0.0062 -0.4066
17423TIP3    H173684   3.987   3.946   0.356 -0.0052 -1.6904 -0.3460
17423TIP3    H273685   4.085   3.986   0.248  1.3219 -1.4764  0.9199
17424TIP3   OH273686   4.498   6.309  13.820 -0.3512  0.0892 -0.2194
17424TIP3    H173687   4.405   6.294  13.840  0.0970 -2.9218 -0.2313
17424TIP3    H273688   4.543   6.294  13.903  0.4008 -1.2569 -0.8705
17425TIP3   OH273689   4.632   2.307   3.939 -0.3043  0.0411  0.3998
17425TIP3    H173690   4.711   2.346   3.904 -1.0622  0.3218 -1.0245
17425TIP3    H273691   4.632   2.217   3.906 -0.4679 -0.0306  0.5894
17426TIP3   OH273692   0.698   1.996   4.861 -0.4650  0.3234 -0.1663
17426TIP3    H173693   0.712   1.932   4.791 -2.2412 -0.6016  0.3038
17426TIP3    H273694   0.784   2.006   4.902 -0.1048 -1.5148 -0.4442
17427TIP3   OH273695   5.565   5.477   3.363  0.5736  0.4603  0.1799
17427TIP3    H173696   5.519   5.474   3.447  1.3849 -0.1068  0.6010
17427TIP3    H273697   5.578   5.386   3.339 -1.3306  0.5837 -1.4980
17428TIP3   OH273698   5.521   3.527   4.923 -0.0562  0.4517  0.2112
17428TIP3    H173699   5.432   3.512   4.891 -1.0627  2.2019  2.1156
17428TIP3    H273700   5.522   3.488   5.011  1.2346 -0.0031  0.0206
17429TIP3   OH273701   5.113   0.852  13.813 -0.4207  0.4402 -0.3272
17429TIP3    H173702   5.047   0.784  13.828 -0.3013  0.4430  0.2289
17429TIP3    H273703   5.065   0.923  13.770 -0.0395 -0.9529 -3.1332
17430TIP3   OH273704   1.129   4.421   3.316 -0.0961  0.6394 -0.3193
17430TIP3    H173705   1.188   4.495   3.307  0.7482  0.0808  0.5297
17430TIP3    H273706   1.093   4.408   3.228  0.8551  1.1482 -0.7935
17431TIP3   OH273707   2.069   0.805  16.335  0.0039 -0.3729 -0.1628
17431TIP3    H173708   2.096   0.851  16.414 -0.1202 -1.6913  0.6658
17431TIP3    H273709   2.056   0.714  16.363 -1.1126 -0.6366 -1.4606
17432TIP3   OH273710   6.079   3.855   0.196 -0.0005 -0.3120 -0.0444
17432TIP3    H173711   6.012   3.867   0.264  1.0865  1.1859  0.8119
17432TIP3    H273712   6.077   3.937   0.146 -0.3916 -1.1828 -1.4673
17433TIP3   OH273713   3.047   6.541   2.011  0.1051  0.9250  0.4205
17433TIP3    H173714   3.073   6.508   1.925  1.0780  1.4377  0.5115
17433TIP3    H273715   3.063   6.635   2.006 -0.8958  1.1220  0.7906
17434TIP3   OH273716   0.284   3.964  14.389 -0.0024  0.3280 -0.1817
17434TIP3    H173717   0.260   3.876  14.420  2.3931 -0.8925 -1.6147
17434TIP3    H273718   0.243   3.971  14.303 -1.0607  1.0366  0.3781
17435TIP3   OH273719   4.539   2.679   4.446  0.1552 -0.1080  0.2302
17435TIP3    H173720   4.451   2.717   4.438  0.1971  0.1060  0.7629
17435TIP3    H273721   4.564   2.694   4.537  0.0861 -1.6341  0.5129
17436TIP3   OH273722   4.643   0.033   1.071 -0.0723 -0.1890  0.2446
17436TIP3    H173723   4.728   0.011   1.108  0.3455  0.9428 -0.0426
17436TIP3    H273724   4.592   0.064   1.146 -0.8245 -2.4974  0.7468
17437TIP3   OH273725   1.534   2.742  16.421  0.1675 -0.7020 -0.2368
17437TIP3    H173726   1.488   2.777  16.497  0.3095 -1.0785  0.0188
17437TIP3    H273727   1.469   2.746  16.350  0.9735  2.6291 -0.9012
17438TIP3   OH273728   4.555   6.745   2.049  0.3281  0.5954  0.4049
17438TIP3    H173729   4.586   6.666   2.092 -0.0111 -0.2080 -0.7928
17438TIP3    H273730   4.634   6.799   2.039  1.1340 -0.8545 -1.3941
17439TIP3   OH273731   1.782   2.754   4.126  0.0157  0.2215  0.2004
17439TIP3    H173732   1.786   2.768   4.032  0.4874  2.3270  0.5070
17439TIP3    H273733   1.866   2.714   4.148  0.8598  1.8294  0.0238
17440TIP3   OH273734   2.352   0.907   3.837 -0.5552 -0.5128  0.1280
17440TIP3    H173735   2.279   0.849   3.812 -1.9255  0.8680  0.8472
17440TIP3    H273736   2.323   0.994   3.812 -0.6437  0.5300  3.5657
17441TIP3   OH273737   5.234   1.066  15.320 -0.3478  0.3287  0.3319
17441TIP3    H173738   5.306   1.129  15.314  0.2196 -0.3563 -0.1084
17441TIP3    H273739   5.272   0.991  15.368 -0.5776 -0.2891 -0.4384
17442TIP3   OH273740   3.104   1.962   5.296 -0.1931  0.2763 -0.0933
17442TIP3    H173741   3.104   1.870   5.272 -0.9540 -0.0221  1.0255
17442TIP3    H273742   3.140   1.964   5.385 -0.5764  1.0072  0.0497
17443TIP3   OH273743   0.640   6.549   2.400  0.1947 -0.3069 -0.3855
17443TIP3    H173744   0.567   6.533   2.461 -0.2208  1.7764 -0.2957
17443TIP3    H273745   0.640   6.473   2.343 -2.6130  0.0359 -0.9117
17444TIP3   OH273746   0.831   1.084   3.999  0.4025  0.8264 -0.2366
17444TIP3    H173747   0.917   1.127   3.988  0.9842 -0.4039 -0.5644
17444TIP3    H273748   0.770   1.157   4.010  1.4875  1.7303  0.0139
17445TIP3   OH273749   0.989   3.154  14.167  0.6439 -0.6026 -0.3694
17445TIP3    H173750   0.896   3.172  14.156  1.0578  1.0916 -1.3186
17445TIP3    H273751   1.016   3.208  14.241  0.8981 -1.0350 -0.1412
17446TIP3   OH273752   6.676   2.203   4.880 -0.3376  0.0602  0.2904
17446TIP3    H173753   6.760   2.180   4.919  0.3611 -0.2219 -1.3570
17446TIP3    H273754   6.626   2.122   4.881  1.4428 -1.2481 -3.7768
17447TIP3   OH273755   1.400   2.161  11.187 -0.1293  0.4498 -0.0582
17447TIP3    H173756   1.372   2.085  11.136  0.0854  0.7181 -0.5711
17447TIP3    H273757   1.365   2.237  11.141  1.9758  0.8261 -1.0738
17448TIP3   OH273758   1.356   2.026  16.348  0.4554 -0.4519 -0.3142
17448TIP3    H173759   1.310   2.049  16.429 -1.3682 -0.2586 -1.3718
17448TIP3    H273760   1.298   1.963  16.304  1.8890 -1.3134 -0.9983
17449TIP3   OH273761   1.432   3.585   1.564 -0.7916  0.2491  0.6664
17449TIP3    H173762   1.459   3.542   1.483 -0.2138  0.7083  0.6112
17449TIP3    H273763   1.356   3.637   1.540  0.1888  1.4620  0.0979
17450TIP3   OH273764   5.992   4.975   4.040 -0.0534  0.0497 -0.0851
17450TIP3    H173765   5.937   4.979   4.118  0.3714 -0.7857  0.2686
17450TIP3    H273766   5.931   4.971   3.967 -0.4542  0.0640  0.2512
17451TIP3   OH273767   4.089   3.809  10.849 -0.4135  0.1177  0.1202
17451TIP3    H173768   4.107   3.755  10.926 -0.8889  1.0247  0.8842
17451TIP3    H273769   4.170   3.809  10.799  0.1917  0.2615  1.0960
17452TIP3   OH273770   5.309   4.245   0.906 -0.2423 -0.4823  0.2127
17452TIP3    H173771   5.244   4.205   0.848  0.3620  0.2827 -1.0070
17452TIP3    H273772   5.278   4.334   0.920  0.5500 -0.0970 -0.4087
17453TIP3   OH273773   6.666   0.945   0.593 -0.6241 -0.4082 -0.4423
17453TIP3    H173774   6.699   0.900   0.671  1.4215 -0.4582 -1.3235
17453TIP3    H273775   6.597   0.888   0.560 -1.1774 -0.6283  1.0294
17454TIP3   OH273776   3.786   5.946  15.162  0.2500  0.1591  0.6867
17454TIP3    H173777   3.869   5.899  15.176 -0.8704 -1.7561  1.0369
17454TIP3    H273778   3.780   5.955  15.067 -0.5993 -2.4262  0.4685
17455TIP3   OH273779   0.116   0.032  13.068 -0.1483  0.1194 -0.4405
17455TIP3    H173780   0.189   0.010  13.010  1.3723 -0.7706  1.7564
17455TIP3    H273781   0.096   0.124  13.048  0.3944 -0.1492 -2.2858
17456TIP3   OH273782   1.599   2.202   4.666  0.2480 -0.0103  0.3457
17456TIP3    H173783   1.631   2.124   4.712 -0.4372  0.1654  1.1297
17456TIP3    H273784   1.552   2.167   4.591 -2.6563 -0.4920  2.3335
17457TIP3   OH273785   1.819   3.205  12.914  0.1406 -0.4351 -0.0334
17457TIP3    H173786   1.777   3.162  12.839  0.0808 -0.3296 -0.0597
17457TIP3    H273787   1.913   3.202  12.894  0.0887  0.0434 -0.3485
17458TIP3   OH273788   4.955   0.073  12.410  0.4593  0.1588  0.0932
17458TIP3    H173789   4.924   0.143  12.352 -0.3254  1.3765  1.9407
17458TIP3    H273790   4.953   0.112  12.498  1.0786 -1.8293  1.0094
17459TIP3   OH273791   5.681   4.813   2.464  0.3863  0.0576 -0.1027
17459TIP3    H173792   5.620   4.785   2.396 -0.6289  0.2002  0.7480
17459TIP3    H273793   5.658   4.761   2.540 -0.9083  2.5230  1.2234
17460TIP3   OH273794   5.751   1.882   2.381  0.4074 -0.1118 -0.1074
17460TIP3    H173795   5.730   1.936   2.305 -0.3883 -1.1648 -0.6616
17460TIP3    H273796   5.790   1.802   2.344 -0.4424 -0.8420  0.5319
17461TIP3   OH273797   6.608   2.292   6.032 -0.6122 -0.2067  0.0394
17461TIP3    H173798   6.572   2.244   6.106  0.4514  0.4774  1.0331
17461TIP3    H273799   6.625   2.226   5.965 -0.1552 -1.0565  0.9878
17462TIP3   OH273800   2.950   6.060  14.805  0.0419  0.1421  0.1250
17462TIP3    H173801   2.929   5.992  14.869  0.3100  0.3331  0.4187
17462TIP3    H273802   2.993   6.014  14.733  0.4858  0.0361  0.4543
17463TIP3   OH273803   5.153   6.143   3.343 -0.3336 -0.0484 -0.6068
17463TIP3    H173804   5.199   6.079   3.287  0.0091 -0.1091 -0.2543
17463TIP3    H273805   5.103   6.196   3.281 -1.1070 -1.0452 -0.8654
17464TIP3   OH273806   0.554   5.783  12.135 -0.1380 -0.3936 -0.3982
17464TIP3    H173807   0.492   5.718  12.100 -0.4619 -0.0287 -0.5104
17464TIP3    H273808   0.624   5.731  12.174 -1.1865 -0.8293  0.9546
17465TIP3   OH273809   1.207   4.555  12.928  0.1096  0.3210 -0.0432
17465TIP3    H173810   1.256   4.525  12.852  0.5549 -2.9982  1.4552
17465TIP3    H273811   1.115   4.537  12.906 -0.0071  1.7065 -0.7586
17466TIP3   OH273812   2.185   4.958  15.986 -0.1021  0.3910 -0.2884
17466TIP3    H173813   2.126   5.027  15.955  0.7345  1.8958  1.3690
17466TIP3    H273814   2.224   4.923  15.906 -0.6214  1.7761 -1.1795
17467TIP3   OH273815   5.666   6.008  12.807 -0.7424  0.2965  0.2130
17467TIP3    H173816   5.656   5.919  12.774 -1.7229  1.1905 -1.9937
17467TIP3    H273817   5.758   6.014  12.832 -0.1590 -0.6852 -1.6190
17468TIP3   OH273818   2.906   3.525  15.523  0.1859 -0.0358 -0.1225
17468TIP3    H173819   2.961   3.514  15.600  0.5287 -0.1602 -0.3825
17468TIP3    H273820   2.931   3.453  15.465 -1.6268 -1.2770  0.5591
17469TIP3   OH273821   1.610   5.553   5.754 -0.1075 -0.5982 -0.2733
17469TIP3    H173822   1.555   5.492   5.802 -0.6337  0.4858  0.5028
17469TIP3    H273823   1.616   5.631   5.810 -1.4453  1.0363 -2.3212
17470TIP3   OH273824   2.911   0.973   4.630  1.3541  0.1960  0.3484
17470TIP3    H173825   2.943   0.944   4.715  0.0879 -0.1246  0.7264
17470TIP3    H273826   2.953   1.058   4.616  1.7995  0.1153  1.1450
17471TIP3   OH273827   2.482   0.907   2.981  0.2375 -0.7053 -0.1527
17471TIP3    H173828   2.533   0.927   2.903 -1.4387  2.8667 -0.4155
17471TIP3    H273829   2.421   0.838   2.953  2.2950 -2.2962 -0.8360
17472TIP3   OH273830   0.092   1.244  14.426 -0.0364  0.1868  0.3756
17472TIP3    H173831   0.108   1.325  14.475  0.0004  0.9494 -0.8652
17472TIP3    H273832  -0.002   1.246  14.408  0.6166  2.0959 -3.2753
17473TIP3   OH273833   0.947   2.863  14.807 -0.2779 -0.4690 -0.0120
17473TIP3    H173834   1.035   2.871  14.844  0.1664  0.0184 -1.1536
17473TIP3    H273835   0.958   2.809  14.729 -0.3119  2.6515 -2.2855
17474TIP3   OH273836   0.278   5.902   5.073 -0.6817 -0.3556  0.2013
17474TIP3    H173837   0.242   5.874   5.157  0.4473  4.1402  2.3520
17474TIP3    H273838   0.369   5.927   5.093 -0.3702  0.7555 -2.3231
17475TIP3   OH273839   1.429   1.161  13.892 -0.8012 -0.0336 -0.0550
17475TIP3    H173840   1.466   1.247  13.911  0.4890 -0.7555  0.6912
17475TIP3    H273841   1.406   1.166  13.799  1.0818  0.4460 -0.5062
17476TIP3   OH273842   3.595   3.794  13.789 -0.1046 -0.1063  0.3738
17476TIP3    H173843   3.582   3.715  13.841  1.5283 -0.0440  0.9148
17476TIP3    H273844   3.688   3.816  13.802 -0.3843  1.5251 -0.2824
17477TIP3   OH273845   4.576   2.492  13.849 -0.5693 -0.0586  0.0889
17477TIP3    H173846   4.485   2.480  13.823 -0.6049  1.4058 -0.4770
17477TIP3    H273847   4.595   2.584  13.830  1.2948 -0.5669 -0.6531
17478TIP3   OH273848   6.715   4.902  12.492  0.5800  0.7159 -0.1046
17478TIP3    H173849   6.779   4.899  12.563 -0.3537  0.9728  0.7541
17478TIP3    H273850   6.653   4.832  12.512 -0.3229  1.5188 -0.0489
17479TIP3   OH273851   4.061   2.531   5.286  0.5011 -0.0421  0.5474
17479TIP3    H173852   4.031   2.553   5.198 -0.2725 -0.4988  0.6895
17479TIP3    H273853   4.050   2.436   5.292 -0.1728  0.0782  1.3921
17480TIP3   OH273854   6.654   0.171  13.690  0.7638 -0.0661 -0.0030
17480TIP3    H173855   6.609   0.161  13.774 -0.3805  0.7031 -0.4981
17480TIP3    H273856   6.588   0.211  13.633  1.6195 -0.3123 -1.1824
17481TIP3   OH273857   2.168   0.432   0.847  1.0276 -0.6952 -0.4946
17481TIP3    H173858   2.174   0.483   0.766  0.2671  1.1991  0.5955
17481TIP3    H273859   2.191   0.494   0.916 -3.4405 -0.7317  1.2364
17482TIP3   OH273860   6.540   3.140  16.921 -0.1044 -0.1111  0.0518
17482TIP3    H173861   6.491   3.075  16.971  0.8821  1.7103  3.5149
17482TIP3    H273862   6.604   3.088  16.871 -0.3222 -1.9240  1.5867
17483TIP3   OH273863   3.105   2.763   4.707  0.6669  1.0989 -0.1423
17483TIP3    H173864   3.154   2.822   4.649  2.6583  0.9448  1.3327
17483TIP3    H273865   3.154   2.681   4.704 -0.4117  0.4477  0.1339
17484TIP3   OH273866   3.840   0.999  14.598 -0.3424 -0.1785  0.0452
17484TIP3    H173867   3.812   0.978  14.688  1.0101  1.1184  0.7781
17484TIP3    H273868   3.903   0.930  14.577 -1.7853 -1.3685 -0.4977
17485TIP3   OH273869   5.638   6.667  11.496  0.0367 -0.3817  0.3139
17485TIP3    H173870   5.584   6.598  11.533 -1.1140  0.1756 -0.2983
17485TIP3    H273871   5.605   6.679  11.407 -0.9174  2.1091  0.9559
17486TIP3   OH273872   0.988   3.088   5.270 -0.0502  0.5106  0.0575
17486TIP3    H173873   0.990   3.182   5.254  2.1970  0.2735 -1.3939
17486TIP3    H273874   1.069   3.056   5.230 -0.5260 -1.9630  0.9983
17487TIP3   OH273875   5.491   6.443   2.276  0.2009  0.7743 -0.0817
17487TIP3    H173876   5.530   6.359   2.300 -0.6792  0.2495 -0.4472
17487TIP3    H273877   5.515   6.502   2.347 -1.7922 -0.5764  1.7906
17488TIP3   OH273878   0.926   1.785  11.529 -0.3146 -0.7308 -0.4770
17488TIP3    H173879   0.891   1.833  11.604 -0.9868 -1.5680 -0.2579
17488TIP3    H273880   0.981   1.849  11.484 -0.3956 -0.0456  0.3849
17489TIP3   OH273881   5.645   2.093   4.617 -0.2248  0.2177 -0.0405
17489TIP3    H173882   5.725   2.052   4.583 -0.8325 -0.5697 -0.5464
17489TIP3    H273883   5.579   2.073   4.551 -0.6082  1.7505 -0.1309
17490TIP3   OH273884   2.219   3.190  11.850  0.1618 -0.4983  0.2334
17490TIP3    H173885   2.290   3.252  11.833  0.4017 -0.5117  1.1465
17490TIP3    H273886   2.161   3.198  11.775  0.0032  1.0846  0.5053
17491TIP3   OH273887   6.053   4.547  11.496  0.7419  0.1563 -0.5758
17491TIP3    H173888   6.144   4.545  11.526  0.3874 -0.5369  0.4862
17491TIP3    H273889   6.038   4.461  11.457  0.0801 -0.2994  0.6699
17492TIP3   OH273890   4.507   6.016   5.119  0.3388 -0.3464 -0.6078
17492TIP3    H173891   4.456   6.042   5.042  0.0237 -0.5512 -0.4718
17492TIP3    H273892   4.530   6.099   5.161  0.2863 -0.2448 -0.7761
17493TIP3   OH273893   4.327   5.318  13.309  0.4592 -0.8693 -0.0208
17493TIP3    H173894   4.382   5.311  13.387  2.4010 -1.5387 -1.4001
17493TIP3    H273895   4.369   5.387  13.257  0.4225 -1.8470 -1.3927
17494TIP3   OH273896   3.248   3.896   4.521 -0.0807 -0.0971 -0.3451
17494TIP3    H173897   3.168   3.947   4.509 -1.5996 -1.7849  2.0262
17494TIP3    H273898   3.313   3.961   4.548 -1.3204  0.9408  0.2383
17495TIP3   OH273899   1.538   2.321   4.385  0.2755  0.6154 -0.2450
17495TIP3    H173900   1.538   2.380   4.460 -0.9221  1.5842 -0.9809
17495TIP3    H273901   1.494   2.242   4.416 -0.3434  1.0715  0.0388
17496TIP3   OH273902   4.813   2.830   6.173 -0.6328  0.4844  0.2936
17496TIP3    H173903   4.778   2.808   6.260  0.3326 -1.0501  0.3138
17496TIP3    H273904   4.735   2.845   6.119 -1.2472  2.5311  1.6588
17497TIP3   OH273905   6.428   0.351  16.871  0.4045  0.3046 -0.1118
17497TIP3    H173906   6.360   0.290  16.842 -0.0719  1.1742 -0.8725
17497TIP3    H273907   6.415   0.358  16.965 -0.2312  0.0651 -0.1756
17498TIP3   OH273908   0.696   6.161  12.487  0.5200  0.2531  0.3337
17498TIP3    H173909   0.701   6.068  12.465 -1.2423  0.0440  0.7281
17498TIP3    H273910   0.745   6.169  12.569  0.5781 -0.3402  0.3625
17499TIP3   OH273911   5.977   4.303  11.376  0.0184  0.3750  0.3110
17499TIP3    H173912   6.020   4.283  11.293 -2.0155  0.3977 -0.7808
17499TIP3    H273913   5.993   4.225  11.431  0.1914 -0.2286 -0.5905
17500TIP3   OH273914   3.912   3.175   1.299  0.1623  0.4993 -0.5095
17500TIP3    H173915   4.006   3.174   1.282  0.1975  1.7958 -0.4240
17500TIP3    H273916   3.885   3.265   1.279 -0.9227  0.3335  0.1815
17501TIP3   OH273917   0.068   3.165  15.141 -0.0047  0.4184 -0.2896
17501TIP3    H173918   0.046   3.213  15.221  1.1955  0.5258 -0.0098
17501TIP3    H273919   0.084   3.233  15.076  1.4586  0.4166  0.0427
17502TIP3   OH273920   2.420   0.933  12.122 -0.3183 -0.0477  0.5650
17502TIP3    H173921   2.474   0.862  12.157  1.1633  0.8959  0.2400
17502TIP3    H273922   2.409   0.994  12.196  0.5451  0.6173  0.1564
17503TIP3   OH273923   0.675   1.231   0.427 -0.3833  0.2659  0.4779
17503TIP3    H173924   0.749   1.209   0.483 -1.0688  0.1387  1.3315
17503TIP3    H273925   0.709   1.299   0.368  0.6687 -0.4300  0.2644
17504TIP3   OH273926   4.329   2.439   2.598 -0.6825  0.0853  0.0475
17504TIP3    H173927   4.263   2.485   2.650 -0.9382  0.4757 -0.6169
17504TIP3    H273928   4.290   2.433   2.510 -1.0599 -2.1760  0.3237
17505TIP3   OH273929   4.190   1.843  17.198 -0.4568  0.6320  0.0769
17505TIP3    H173930   4.225   1.822  17.284  1.6507  3.2120 -0.0942
17505TIP3    H273931   4.179   1.758  17.155  4.2423 -0.3926  0.6865
17506TIP3   OH273932   2.372   4.914  13.669  0.6357 -0.1708  0.1937
17506TIP3    H173933   2.440   4.869  13.620  1.8200  1.8041 -0.0087
17506TIP3    H273934   2.352   4.992  13.618 -2.3449 -1.0849 -0.1428
17507TIP3   OH273935   4.963   5.101  13.795  0.1492 -0.1894 -0.9546
17507TIP3    H173936   4.984   5.112  13.702 -0.5842  1.4770 -0.9404
17507TIP3    H273937   4.951   5.007  13.806  2.2265 -0.6330 -2.1037
17508TIP3   OH273938   6.179   1.494   3.161  0.3108 -0.4113  0.0565
17508TIP3    H173939   6.188   1.477   3.255  0.7097  0.9442  0.2858
17508TIP3    H273940   6.156   1.587   3.156  0.5559 -0.4084 -1.2082
17509TIP3   OH273941   1.206   2.121   2.703  0.3057  0.6094  0.1682
17509TIP3    H173942   1.259   2.185   2.751  0.4038 -1.2109  2.5778
17509TIP3    H273943   1.271   2.068   2.656  0.3842  0.6650  0.2118
17510TIP3   OH273944   4.712   4.143   1.449 -0.7989 -0.0145  0.0574
17510TIP3    H173945   4.622   4.173   1.462 -1.4802 -1.3779 -1.4267
17510TIP3    H273946   4.713   4.053   1.480  0.0897  0.0210  0.1551
17511TIP3   OH273947   0.910   0.888  16.650  0.1308  0.2003 -0.4553
17511TIP3    H173948   0.851   0.916  16.719 -0.8665  0.4896 -1.4059
17511TIP3    H273949   0.885   0.940  16.574  0.9831 -0.3519 -1.1362
17512TIP3   OH273950   0.843   2.333   3.591 -0.2313 -0.0865 -0.5768
17512TIP3    H173951   0.795   2.347   3.673 -0.7355 -3.3913 -0.2195
17512TIP3    H273952   0.775   2.331   3.524 -0.3624 -1.9789 -0.4274
17513TIP3   OH273953   6.559   5.404  14.005 -0.0071  0.2070  0.7121
17513TIP3    H173954   6.636   5.350  13.987 -0.2353 -0.3782  1.4752
17513TIP3    H273955   6.508   5.400  13.924  0.3624 -0.0769  0.4899
17514TIP3   OH273956   2.968   0.615   2.050 -0.0595  0.4963 -0.1469
17514TIP3    H173957   3.050   0.572   2.025 -0.2396 -0.9818  1.6560
17514TIP3    H273958   2.939   0.566   2.127 -1.2370  2.7326  0.8634
17515TIP3   OH273959   1.059   6.145  16.614  0.0238  0.0091 -0.0511
17515TIP3    H173960   0.994   6.138  16.684 -1.4516  0.4161 -1.3589
17515TIP3    H273961   1.128   6.201  16.651  0.2401 -1.4196  1.7800
17516TIP3   OH273962   2.673   6.626  12.506  0.2626 -0.0717 -0.0740
17516TIP3    H173963   2.736   6.686  12.547  1.4939 -0.6541 -1.0790
17516TIP3    H273964   2.721   6.587  12.433 -1.1270 -0.8795 -0.5785
17517TIP3   OH273965   2.961   3.930   2.694 -0.2841 -0.3915 -0.1072
17517TIP3    H173966   2.985   3.914   2.785  1.0372 -1.9152 -0.7003
17517TIP3    H273967   2.914   3.851   2.667 -2.3777  0.8388 -0.2127
17518TIP3   OH273968   2.974   2.035  12.032  0.8751 -0.1380  0.2861
17518TIP3    H173969   3.006   2.122  12.054 -0.9673  1.1062 -1.7276
17518TIP3    H273970   3.039   2.000  11.971  0.7147  0.5733 -0.3020
17519TIP3   OH273971   1.708   0.341  14.688  0.5250  0.6138 -0.5611
17519TIP3    H173972   1.764   0.269  14.658  1.0127  0.8250 -0.1612
17519TIP3    H273973   1.753   0.420  14.658  0.7987  0.8109  0.3526
17520TIP3   OH273974   4.321   3.645   1.805  0.3803 -0.4374 -0.2792
17520TIP3    H173975   4.381   3.719   1.796 -0.8489  0.9988  2.7153
17520TIP3    H273976   4.258   3.657   1.734  1.1942  0.3819 -0.8865
17521TIP3   OH273977   2.908   1.928   1.533 -0.1511  0.3934  0.2370
17521TIP3    H173978   2.995   1.930   1.493 -0.4534  0.6619 -0.4199
17521TIP3    H273979   2.916   1.983   1.611  0.4095 -0.0322  0.4790
17522TIP3   OH273980   6.074   2.116   0.506  0.0949  0.0131  0.1392
17522TIP3    H173981   6.093   2.078   0.592 -1.1059  0.9782  0.8491
17522TIP3    H273982   6.115   2.203   0.509  0.0201  0.0615 -0.2552
17523TIP3   OH273983   2.584   2.086   5.510  0.0606  0.2179 -0.6033
17523TIP3    H173984   2.626   2.084   5.596  1.8815  1.3881 -1.4269
17523TIP3    H273985   2.546   1.999   5.499  0.7790 -0.3011  0.9221
17524TIP3   OH273986   4.645   1.653   0.063  0.0782 -0.0122  0.3366
17524TIP3    H173987   4.635   1.577   0.121 -0.7296  0.1505  0.4157
17524TIP3    H273988   4.580   1.640  -0.005 -0.5494  0.9684  0.7453
17525TIP3   OH273989   5.939   0.250   3.030 -0.4170 -0.4925 -0.1155
17525TIP3    H173990   5.923   0.169   2.983  1.2775  0.5227 -2.5551
17525TIP3    H273991   6.034   0.254   3.039 -0.5903  0.4340  1.4225
17526TIP3   OH273992   5.524   5.505  10.825 -0.3708  0.2338  0.4782
17526TIP3    H173993   5.546   5.434  10.766 -3.3498 -1.3320  1.1356
17526TIP3    H273994   5.544   5.471  10.913  0.0064  0.9388  0.6696
17527TIP3   OH273995   1.183   1.103  11.630 -0.3471 -1.0359 -0.0950
17527TIP3    H173996   1.212   1.013  11.644  0.7556 -0.5585  0.8271
17527TIP3    H273997   1.200   1.120  11.537 -0.0362 -1.6034 -0.1426
17528TIP3   OH273998   5.863   1.209   1.479  0.3622 -0.3684 -0.1089
17528TIP3    H173999   5.808   1.139   1.443 -0.1467  0.6589 -1.3582
17528TIP3    H274000   5.826   1.289   1.443  1.2295  0.5164  0.9464
17529TIP3   OH274001   5.005   2.567  15.568 -0.0834 -0.3655 -0.0778
17529TIP3    H174002   5.001   2.521  15.485 -0.0281 -0.3841 -0.0696
17529TIP3    H274003   4.939   2.636  15.561  1.4594  1.0798 -1.0142
17530TIP3   OH274004   3.961   2.462  16.929  0.3814  0.9708  0.0145
17530TIP3    H174005   3.878   2.506  16.911  0.0433  0.7578  0.9805
17530TIP3    H274006   3.942   2.407  17.006  0.5538 -1.4534 -1.6117
17531TIP3   OH274007   5.176   0.112  14.070  0.0766 -0.4016 -0.2951
17531TIP3    H174008   5.200   0.173  14.000 -0.8372  0.7571  0.3881
17531TIP3    H274009   5.138   0.037  14.024 -0.0041  0.1034 -1.0663
17532TIP3   OH274010   3.431   3.698   3.869 -0.2329 -0.0240 -0.3066
17532TIP3    H174011   3.455   3.696   3.777  1.0931 -2.9726  0.0439
17532TIP3    H274012   3.510   3.732   3.913 -0.3826  0.1157 -0.1469
17533TIP3   OH274013   3.139   6.784  12.262  0.3522  0.1683 -0.1163
17533TIP3    H174014   3.103   6.758  12.347  2.4170 -0.7256  0.5226
17533TIP3    H274015   3.230   6.808  12.281  0.0985  2.5554 -1.6475
17534TIP3   OH274016   2.918   5.645  16.628 -0.8094 -1.1643 -0.2432
17534TIP3    H174017   2.886   5.675  16.713 -1.0252  1.0986 -1.0965
17534TIP3    H274018   3.011   5.627  16.643 -0.1236  2.0978 -0.2080
17535TIP3   OH274019   5.658   3.830  14.510  0.0658  0.1216  0.1736
17535TIP3    H174020   5.674   3.923  14.528  0.3823  0.0226  0.4123
17535TIP3    H274021   5.699   3.816  14.424 -0.8422  0.4315 -0.3158
17536TIP3   OH274022   1.181   4.410   1.291 -0.3591 -0.0022  0.1503
17536TIP3    H174023   1.135   4.396   1.208  0.5854 -1.8737 -0.0851
17536TIP3    H274024   1.274   4.403   1.268 -0.0209  1.6451  0.9960
17537TIP3   OH274025   4.691   4.482   1.316 -0.1807 -0.1089  0.1287
17537TIP3    H174026   4.612   4.448   1.273  2.0438 -0.8167 -3.6561
17537TIP3    H274027   4.703   4.425   1.392 -2.5570 -0.8530 -0.0079
17538TIP3   OH274028   1.623   1.825   5.010  0.3314  0.4938  0.2780
17538TIP3    H174029   1.651   1.799   5.098 -1.9876  0.1011  0.9312
17538TIP3    H274030   1.576   1.749   4.976  1.4943  0.5223 -1.4505
17539TIP3   OH274031   6.320   4.177   2.083 -0.9418  0.1057  0.5508
17539TIP3    H174032   6.359   4.264   2.073  0.5549 -0.6794 -0.6917
17539TIP3    H274033   6.333   4.135   1.998 -1.9543 -1.2057  1.0320
17540TIP3   OH274034   2.295   3.692   3.592  0.8926 -0.3775  0.3172
17540TIP3    H174035   2.282   3.725   3.503 -0.1967 -1.0018  0.2352
17540TIP3    H274036   2.247   3.753   3.647 -0.9137 -1.6304  0.1879
17541TIP3   OH274037   5.592   4.027  13.300 -0.1916  0.7847  0.5913
17541TIP3    H174038   5.630   3.951  13.256 -0.2649  0.6736  0.7227
17541TIP3    H274039   5.667   4.085  13.316 -0.0920  0.6040  0.7700
17542TIP3   OH274040   1.079   5.047  13.963 -0.6358 -0.5630  0.2626
17542TIP3    H174041   1.070   4.958  13.998 -1.3515 -0.9368 -0.8625
17542TIP3    H274042   1.161   5.079  14.001  1.6441 -3.0941 -2.3007
17543TIP3   OH274043   2.222   4.048   0.603  0.1082  0.6650  0.0888
17543TIP3    H174044   2.165   4.119   0.576 -0.4664  0.1484 -0.0686
17543TIP3    H274045   2.256   4.012   0.522 -0.8947 -0.2921  0.0820
17544TIP3   OH274046   0.283   6.086  16.182  0.3195  0.3057  0.2178
17544TIP3    H174047   0.278   6.014  16.119  0.4214  0.0945  0.4506
17544TIP3    H274048   0.371   6.120  16.173  0.7470 -0.5385  1.1362
17545TIP3   OH274049   1.504   5.007  13.872 -0.3927 -0.0249 -0.4445
17545TIP3    H174050   1.580   4.960  13.908 -1.9571 -2.4440 -0.2000
17545TIP3    H274051   1.441   5.008  13.944 -0.9335  1.2362 -0.9281
17546TIP3   OH274052   1.041   4.360  11.566 -0.2129 -0.1299  0.5758
17546TIP3    H174053   1.129   4.376  11.598  0.0180  2.8574 -1.3876
17546TIP3    H274054   1.043   4.269  11.535  1.7070 -0.5712  1.8895
17547TIP3   OH274055   1.424   6.661   5.672  0.5823  0.3651  0.1733
17547TIP3    H174056   1.426   6.623   5.760 -0.5664 -0.4814 -0.1557
17547TIP3    H274057   1.331   6.672   5.653  0.7245 -1.6763 -1.8881
17548TIP3   OH274058   2.593   4.932   0.840 -0.3416 -0.2539  0.2077
17548TIP3    H174059   2.559   4.843   0.853  0.2404 -0.8328 -1.9460
17548TIP3    H274060   2.648   4.948   0.916  0.4492 -2.1972  0.0723
17549TIP3   OH274061   6.137   6.030  16.847 -0.0033  0.2613 -0.1991
17549TIP3    H174062   6.135   6.025  16.751 -1.4655  0.8917 -0.2186
17549TIP3    H274063   6.066   5.974  16.876 -0.7934  1.5602  0.4411
17550TIP3   OH274064   2.750   4.723   4.310 -0.4891  0.2692  0.3902
17550TIP3    H174065   2.661   4.724   4.275 -0.8481 -1.9198  1.1871
17550TIP3    H274066   2.741   4.684   4.397  1.2102  0.2594  0.5750
17551TIP3   OH274067   0.260   4.470   5.504 -0.1340  0.6995  0.1325
17551TIP3    H174068   0.194   4.412   5.541  0.1628  1.2217  1.5086
17551TIP3    H274069   0.325   4.482   5.574 -0.4469  3.0680  0.0790
17552TIP3   OH274070   4.068   1.157  14.082  0.3025  0.7239 -0.1198
17552TIP3    H174071   3.981   1.175  14.117  0.3616  2.5727 -0.8479
17552TIP3    H274072   4.092   1.072  14.119 -1.8905  0.0922 -0.0945
17553TIP3   OH274073   3.066   2.592   5.766 -0.3739  0.0468  0.2561
17553TIP3    H174074   3.060   2.629   5.855  2.2283  0.4901  0.2769
17553TIP3    H274075   3.037   2.663   5.709  1.8504  1.1993  0.5042
17554TIP3   OH274076   4.616   0.282   3.595 -0.0714  0.2581  0.1340
17554TIP3    H174077   4.622   0.350   3.527  2.6653 -0.5075 -0.4302
17554TIP3    H274078   4.576   0.327   3.669  0.3340  2.0972 -0.7298
17555TIP3   OH274079   6.641   2.377   1.657  0.8647  0.1065  0.1385
17555TIP3    H174080   6.625   2.400   1.565  0.8719 -0.4186  0.0037
17555TIP3    H274081   6.583   2.435   1.707  0.5116  0.0673 -0.2204
17556TIP3   OH274082   6.057   2.339  15.138 -0.3617 -0.3788  0.7018
17556TIP3    H174083   6.009   2.356  15.057 -1.4593  0.8719  1.5784
17556TIP3    H274084   5.996   2.365  15.207  0.3659 -1.8945  1.9545
17557TIP3   OH274085   2.050   6.028   4.590 -0.7525  0.4684  0.1336
17557TIP3    H174086   2.105   5.969   4.540 -0.5656 -1.1695  2.2489
17557TIP3    H274087   2.111   6.085   4.636 -0.8065 -0.9130  1.9525
17558TIP3   OH274088   0.226   2.325   1.447 -0.4386  0.1216 -0.1084
17558TIP3    H174089   0.146   2.375   1.457  0.0716  0.7670  0.7923
17558TIP3    H274090   0.272   2.335   1.530  0.9201  0.3734 -0.8609
17559TIP3   OH274091   6.384   6.613  12.961 -0.2973 -0.1270  0.3845
17559TIP3    H174092   6.357   6.603  13.053 -2.2125  0.7456 -0.0484
17559TIP3    H274093   6.456   6.552  12.951  0.0763 -0.1041  2.5287
17560TIP3   OH274094   2.555   5.435  16.370 -0.2641 -0.2345  0.1152
17560TIP3    H174095   2.585   5.436  16.461 -0.5726  1.5864  0.2063
17560TIP3    H274096   2.611   5.498  16.325  0.5463 -1.8580 -1.1894
17561TIP3   OH274097   1.251   1.628  15.412 -0.0816  0.1850  0.3718
17561TIP3    H174098   1.263   1.711  15.367 -1.0255  1.2769  2.0533
17561TIP3    H274099   1.319   1.571  15.377  1.8199  2.2672  0.6016
17562TIP3   OH274100   4.437   6.066   3.498  0.6271 -0.0251  0.1398
17562TIP3    H174101   4.433   5.994   3.435 -2.0996 -1.2671  1.6477
17562TIP3    H274102   4.384   6.135   3.459  1.2118  0.2557 -0.1689
17563TIP3   OH274103   1.916   3.171   2.803 -0.3954 -0.5447  0.0779
17563TIP3    H174104   1.833   3.194   2.843 -0.9549  0.1960 -1.4509
17563TIP3    H274105   1.897   3.092   2.753 -0.5991  0.5189 -1.5618
17564TIP3   OH274106   5.002   1.132  14.396 -0.1108 -0.4081 -0.0753
17564TIP3    H174107   5.047   1.137  14.480 -0.7429 -1.2678  0.3189
17564TIP3    H274108   5.028   1.047  14.361 -1.5587 -0.9749  0.2224
17565TIP3   OH274109   3.383   5.154  13.711 -0.1576 -1.0551 -0.1337
17565TIP3    H174110   3.388   5.250  13.708 -1.7069 -0.9530 -0.3249
17565TIP3    H274111   3.361   5.134  13.802 -0.4730 -1.1852 -0.2380
17566TIP3   OH274112   4.324   1.896   2.615  0.0179  0.1500 -0.3259
17566TIP3    H174113   4.316   1.802   2.600  1.8057 -0.4825  2.4725
17566TIP3    H274114   4.403   1.922   2.567  0.6924 -0.1739  0.6054
17567TIP3   OH274115   5.806   1.782  14.535 -0.0881  0.2363 -0.8452
17567TIP3    H174116   5.825   1.834  14.614 -1.8382  0.8440 -0.7905
17567TIP3    H274117   5.755   1.708  14.567  0.9381 -0.6111 -1.1544
17568TIP3   OH274118   6.614   1.992   0.435  0.0036 -0.2444 -0.0209
17568TIP3    H174119   6.542   1.992   0.498  0.0559 -0.2491  0.0390
17568TIP3    H274120   6.574   1.964   0.353  0.3027 -1.9863  0.4134
17569TIP3   OH274121   2.953   6.335  12.735  0.2028  0.3607 -0.3330
17569TIP3    H174122   2.930   6.411  12.787  0.2983 -0.6257  1.1954
17569TIP3    H274123   2.871   6.286  12.727  0.8877 -1.2530  1.9129
17570TIP3   OH274124   4.309   4.450  12.906  0.3488 -0.3117  0.1919
17570TIP3    H174125   4.382   4.388  12.905 -0.6550 -1.4849 -1.1493
17570TIP3    H274126   4.236   4.400  12.943 -0.4832  0.0655 -0.9454
17571TIP3   OH274127   4.873   3.165   2.674 -0.6804 -0.1608  0.1860
17571TIP3    H174128   4.929   3.089   2.687  0.2507  0.3007 -0.9221
17571TIP3    H274129   4.802   3.133   2.619 -0.0259 -0.1286 -0.6928
17572TIP3   OH274130   1.008   5.926  15.750 -0.2581 -0.4383 -0.7592
17572TIP3    H174131   0.968   6.012  15.739 -1.0896 -0.6029  0.8642
17572TIP3    H274132   0.934   5.865  15.752  0.2723 -1.1021 -1.0062
17573TIP3   OH274133   5.324   4.205  14.086  0.2295 -0.4330 -0.4203
17573TIP3    H174134   5.375   4.208  14.005  0.2939 -0.2733 -0.3740
17573TIP3    H274135   5.235   4.182  14.058  0.1437  0.1018 -0.5882
17574TIP3   OH274136   2.857   3.957  16.874 -0.0016  0.1636 -0.0811
17574TIP3    H174137   2.781   3.899  16.875  0.6322 -0.6654  1.6539
17574TIP3    H274138   2.821   4.044  16.892 -0.5273 -0.2681  1.0284
17575TIP3   OH274139   2.899   0.535   1.461 -0.3390 -0.3486 -0.2304
17575TIP3    H174140   2.973   0.594   1.457  0.1924 -1.0492 -0.8245
17575TIP3    H274141   2.899   0.502   1.551 -0.1195 -0.1221 -0.1478
17576TIP3   OH274142   2.691   2.272  15.128 -0.4107 -0.3524  0.1836
17576TIP3    H174143   2.687   2.229  15.214 -1.6117  0.4615  0.5570
17576TIP3    H274144   2.633   2.348  15.138  0.2517  0.3128 -1.0348
17577TIP3   OH274145   3.702   0.828   1.945  0.3936  0.0954  0.5147
17577TIP3    H174146   3.730   0.744   1.982  0.0260 -0.6275 -0.7959
17577TIP3    H274147   3.643   0.864   2.011  0.0184 -0.9975  0.7970
17578TIP3   OH274148   1.925   5.603  10.719  0.2634 -0.3597 -0.0012
17578TIP3    H174149   1.989   5.539  10.749  0.1244 -0.0361  0.9751
17578TIP3    H274150   1.971   5.654  10.652  0.1957 -1.8495 -1.2284
17579TIP3   OH274151   4.759   4.109  14.326  0.6605 -0.5228 -0.2474
17579TIP3    H174152   4.666   4.130  14.323  0.7286 -0.3745 -1.6511
17579TIP3    H274153   4.776   4.087  14.417 -0.5555  0.3387  0.1976
17580TIP3   OH274154   0.019   5.372   0.043 -0.5225 -0.1224 -0.2186
17580TIP3    H174155  -0.063   5.393  -0.002  0.4427  0.3595 -1.7690
17580TIP3    H274156   0.061   5.305  -0.011  1.1036  1.1490 -0.5735
17581TIP3   OH274157   6.200   0.135   4.313  0.2640 -0.2445 -0.0340
17581TIP3    H174158   6.243   0.055   4.284  1.2938  0.6645 -1.0509
17581TIP3    H274159   6.159   0.170   4.234 -0.4331  0.0909  0.4687
17582TIP3   OH274160   6.051   4.064  10.588  0.3464  0.5413 -0.2028
17582TIP3    H174161   6.101   3.995  10.545  0.1116  1.5187 -2.1102
17582TIP3    H274162   6.116   4.121  10.628  0.5070 -1.4199  2.4805
17583TIP3   OH274163   2.274   0.468  10.486 -0.9770 -0.0105 -0.0767
17583TIP3    H174164   2.365   0.443  10.475 -0.7929  1.6192 -2.8338
17583TIP3    H274165   2.227   0.385  10.496  0.7242 -0.8857  0.8732
17584TIP3   OH274166   4.237   3.393  14.655 -0.6887 -0.3306  0.1542
17584TIP3    H174167   4.188   3.336  14.596  0.4101 -1.1607  0.0326
17584TIP3    H274168   4.236   3.349  14.739 -0.9496  0.1068  0.3802
17585TIP3   OH274169   2.685   2.934  11.745 -0.2181  0.1184 -0.0295
17585TIP3    H174170   2.703   2.890  11.828 -0.4140  2.2115  1.1663
17585TIP3    H274171   2.589   2.940  11.741 -0.1519  1.5799  0.4447
17586TIP3   OH274172   0.454   6.349   5.090  0.7641  0.2246 -1.0751
17586TIP3    H174173   0.536   6.398   5.103  0.8730 -0.1357 -0.4004
17586TIP3    H274174   0.430   6.318   5.178  0.2137 -0.1674 -1.3610
17587TIP3   OH274175   4.870   3.033  15.372  0.1840  0.6435  0.2307
17587TIP3    H174176   4.963   3.054  15.371  0.4553 -0.4094  1.4225
17587TIP3    H274177   4.843   3.052  15.462 -0.5114 -0.0326  0.1689
17588TIP3   OH274178   1.400   6.111  15.365  0.3113  0.6131 -0.4933
17588TIP3    H174179   1.317   6.080  15.400  0.7930  1.9785  1.9851
17588TIP3    H274180   1.380   6.139  15.276 -1.5655 -0.3686 -0.3913
17589TIP3   OH274181   4.446   4.888  16.058 -0.0067 -0.4861 -0.4697
17589TIP3    H174182   4.466   4.857  15.970  0.0445 -1.3241 -0.1657
17589TIP3    H274183   4.369   4.944  16.046  0.2882 -0.2128 -1.1143
17590TIP3   OH274184   6.199   1.246  12.147 -0.4437 -0.4067  0.3492
17590TIP3    H174185   6.126   1.186  12.129 -0.7844  0.0994  0.0122
17590TIP3    H274186   6.175   1.289  12.229 -0.5884 -0.1508  0.1752
17591TIP3   OH274187   5.595   5.882   5.204 -0.0353  0.6555  0.2216
17591TIP3    H174188   5.544   5.958   5.178  1.2662  0.7480 -2.1878
17591TIP3    H274189   5.680   5.917   5.229  0.4378  0.0373 -0.5041
17592TIP3   OH274190   0.983   3.197  13.733 -0.5081  0.3755 -0.3157
17592TIP3    H174191   1.033   3.239  13.804  0.4454  0.4192 -0.9896
17592TIP3    H274192   1.041   3.204  13.657 -0.6905 -1.4386 -0.6380
17593TIP3   OH274193   4.743   5.628  14.404  0.3506 -0.0184  0.1455
17593TIP3    H174194   4.770   5.614  14.494  1.8503 -0.7401 -0.3954
17593TIP3    H274195   4.677   5.562  14.387 -0.0143  0.1931  0.7463
17594TIP3   OH274196   4.214   2.592   6.825 -0.0734  0.2347  0.2748
17594TIP3    H174197   4.213   2.683   6.855  2.5010  1.6857 -3.6401
17594TIP3    H274198   4.122   2.569   6.814 -0.7164  3.3467 -1.2996
17595TIP3   OH274199   1.423   6.672  12.422 -0.0917 -0.1971  0.1296
17595TIP3    H174200   1.362   6.727  12.471  0.1666  0.4445 -0.2658
17595TIP3    H274201   1.454   6.608  12.486 -1.6225 -0.9017  0.2028
17596TIP3   OH274202   6.682   1.933   1.360  0.1752  0.6896 -0.0927
17596TIP3    H174203   6.658   1.990   1.433  1.0498  0.9585 -0.0110
17596TIP3    H274204   6.678   1.845   1.397  0.7269  0.8331  0.3188
17597TIP3   OH274205   1.017   5.579  15.118  0.2471  0.2153 -0.0698
17597TIP3    H174206   1.111   5.598  15.120  0.3840 -0.4722 -0.0185
17597TIP3    H274207   1.005   5.506  15.178  0.0859 -1.4697 -2.0737
17598TIP3   OH274208   5.240   6.710   3.633 -0.1666  0.0569  0.0307
17598TIP3    H174209   5.275   6.651   3.567  0.7925  0.4535  0.1711
17598TIP3    H274210   5.154   6.675   3.654 -0.1577 -0.5113 -0.8654
17599TIP3   OH274211   2.930   0.249  16.048  0.0520  0.0375  0.4309
17599TIP3    H174212   2.881   0.331  16.048  1.4365  0.8850  0.7093
17599TIP3    H274213   2.892   0.198  16.119 -0.2213  0.8096  0.8512
17600TIP3   OH274214   6.030   4.408  13.535  0.8171  0.2250 -0.4171
17600TIP3    H174215   6.001   4.425  13.446  1.9609  1.8199 -0.5110
17600TIP3    H274216   6.070   4.321  13.532  0.7021  0.2100 -1.4141
17601TIP3   OH274217   1.619   0.327   2.806 -0.0118  0.6943  0.1062
17601TIP3    H174218   1.683   0.325   2.877 -0.3986 -4.2411  0.4922
17601TIP3    H274219   1.671   0.315   2.726 -0.0896  0.6451  0.0621
17602TIP3   OH274220   5.739   1.455  12.873 -0.0441 -0.9813 -0.3620
17602TIP3    H174221   5.658   1.436  12.826  0.4366 -1.0192 -1.1881
17602TIP3    H274222   5.790   1.374  12.868  1.3753 -0.0084 -2.5955
17603TIP3   OH274223   2.713   4.642  10.528  0.3617 -0.1827  0.2079
17603TIP3    H174224   2.694   4.655  10.621 -0.6805 -0.0149 -0.0231
17603TIP3    H274225   2.728   4.548  10.519  0.6000 -0.1795  0.5687
17604TIP3   OH274226   3.080   3.685   1.127 -0.5410 -0.1702 -0.2834
17604TIP3    H174227   3.019   3.614   1.151 -0.4668 -0.3717 -0.6932
17604TIP3    H274228   3.074   3.690   1.032 -0.6934  0.5100 -0.2411
17605TIP3   OH274229   3.050   5.020  16.882  0.2401  0.3560  0.3632
17605TIP3    H174230   3.115   4.989  16.945 -0.0200  1.2896  1.1155
17605TIP3    H274231   3.003   4.942  16.855  0.4715 -0.0762  1.2035
17606TIP3   OH274232   4.823   4.917   0.102 -0.3427  0.1442 -0.3568
17606TIP3    H174233   4.758   4.966   0.052 -1.0372 -0.3298  0.0678
17606TIP3    H274234   4.771   4.861   0.160  0.4463  1.5984  1.7903
17607TIP3   OH274235   3.176   0.502  15.129 -0.0361 -0.0910  0.0582
17607TIP3    H174236   3.168   0.432  15.194  1.5150  1.3941  1.9041
17607TIP3    H274237   3.131   0.468  15.051 -1.4666 -2.1228  1.7178
17608TIP3   OH274238   4.522   4.489   0.341 -0.3822 -0.7593  0.3297
17608TIP3    H174239   4.520   4.548   0.416 -0.8985 -0.7037  0.2679
17608TIP3    H274240   4.446   4.513   0.288 -0.2310 -1.0478 -0.0238
17609TIP3   OH274241   3.183   5.022  15.877 -0.4161 -0.3604  0.7666
17609TIP3    H174242   3.179   5.041  15.783  1.7682 -1.5371  0.4256
17609TIP3    H274243   3.098   5.052  15.910 -0.2214  2.5512 -1.1095
17610TIP3   OH274244   1.286   0.053  14.613 -0.2842 -0.0429 -0.0964
17610TIP3    H174245   1.278   0.140  14.652  0.5826 -0.7105  1.5877
17610TIP3    H274246   1.222   0.053  14.541  1.7778  3.0387 -2.0630
17611TIP3   OH274247   3.227   3.081   5.626 -0.1825 -0.0605  0.1950
17611TIP3    H174248   3.204   3.172   5.610  0.8676  0.2259  0.3038
17611TIP3    H274249   3.217   3.070   5.721  1.9806  0.5942  0.5194
17612TIP3   OH274250   2.027   1.132  13.369 -0.2250 -0.1075 -0.1648
17612TIP3    H174251   1.933   1.139  13.350  0.0307 -0.2198 -1.4655
17612TIP3    H274252   2.070   1.185  13.302  0.7197 -1.1127 -0.3836
17613TIP3   OH274253   3.513   2.217  11.075 -0.5003 -0.0938  0.2037
17613TIP3    H174254   3.528   2.157  11.002  1.5323 -0.3266  0.7783
17613TIP3    H274255   3.418   2.216  11.088 -0.4453 -3.9061  0.8406
17614TIP3   OH274256   6.253   3.815  13.622 -0.2430  1.0691 -0.1506
17614TIP3    H174257   6.294   3.850  13.702  1.2281 -1.4320  0.2358
17614TIP3    H274258   6.212   3.733  13.650 -0.8743  0.8385 -1.7112
17615TIP3   OH274259   5.018   1.223  15.256  0.2702 -0.3619 -0.1335
17615TIP3    H174260   5.101   1.178  15.266  0.3597  0.1652  1.5694
17615TIP3    H274261   5.014   1.284  15.330 -1.3215  0.0861 -0.5686
17616TIP3   OH274262   3.943   1.823   5.609  0.3119 -0.6343 -0.0149
17616TIP3    H174263   3.928   1.761   5.537  2.4085 -0.9219 -0.2400
17616TIP3    H274264   3.947   1.768   5.687 -2.0216 -0.3162  0.3753
17617TIP3   OH274265   2.037   2.128  15.158  0.3252 -0.3516 -0.1071
17617TIP3    H174266   2.016   2.042  15.195 -1.5861  0.7484  1.4764
17617TIP3    H274267   1.981   2.134  15.081 -0.9124  0.1997  0.8197
17618TIP3   OH274268   4.527   1.839   0.409 -0.1051 -0.3136  0.6844
17618TIP3    H174269   4.558   1.749   0.402 -0.6079 -0.3956 -0.5565
17618TIP3    H274270   4.458   1.835   0.475  1.6885 -0.3381  2.6013
17619TIP3   OH274271   2.015   5.911  14.086  0.4322  0.0851  0.0568
17619TIP3    H174272   2.090   5.970  14.092  0.9760 -0.6662  0.5756
17619TIP3    H274273   1.948   5.952  14.141  0.0139  1.4195 -1.4122
17620TIP3   OH274274   0.647   6.099   1.263  0.3914  0.2498 -0.5519
17620TIP3    H174275   0.645   6.101   1.167  0.2739 -1.1266 -0.5847
17620TIP3    H274276   0.578   6.161   1.289  1.0631  1.3446 -1.3360
17621TIP3   OH274277   0.537   4.837  10.967  0.4696  0.8797 -0.3095
17621TIP3    H174278   0.585   4.919  10.956  1.9553  0.3238  1.7017
17621TIP3    H274279   0.499   4.820  10.881  1.4597  2.8510 -1.1754
17622TIP3   OH274280   1.481   6.433  11.278  0.2985  0.0576 -0.2636
17622TIP3    H174281   1.535   6.355  11.263 -1.1953 -1.4206  1.7334
17622TIP3    H274282   1.410   6.426  11.214  1.4221  1.0049 -1.6243
17623TIP3   OH274283   5.949   1.640   1.468  0.1336  0.2794 -0.1127
17623TIP3    H174284   5.911   1.657   1.382  0.0767  1.2920  0.1115
17623TIP3    H274285   6.033   1.686   1.467  0.4002 -0.1955  0.1626
17624TIP3   OH274286   0.770   2.281  10.751 -0.1748 -0.0386 -0.1456
17624TIP3    H174287   0.722   2.310  10.673  0.3065  1.0172 -0.0539
17624TIP3    H274288   0.714   2.213  10.789 -1.9139  1.5787  0.2893
17625TIP3   OH274289   4.472   1.405  16.681 -0.0252 -0.0887  0.0916
17625TIP3    H174290   4.499   1.410  16.589  1.1245 -1.6448  0.3208
17625TIP3    H274291   4.409   1.333  16.683 -1.0979  0.8467  0.2927
17626TIP3   OH274292   2.655   5.674  13.352 -0.2323  0.3004 -0.6852
17626TIP3    H174293   2.742   5.708  13.331 -0.5685  1.0380 -0.9478
17626TIP3    H274294   2.614   5.744  13.403 -0.8118  0.1401 -0.9187
17627TIP3   OH274295   6.249   2.518   3.373  0.3330 -0.0715 -0.1130
17627TIP3    H174296   6.205   2.598   3.347  0.7918  0.2041 -0.0532
17627TIP3    H274297   6.343   2.538   3.364  0.5717  0.5008  3.1006
17628TIP3   OH274298   2.694   0.325   3.255  0.2391  0.0564 -0.5893
17628TIP3    H174299   2.698   0.419   3.238 -0.9510  0.2188  0.0051
17628TIP3    H274300   2.783   0.301   3.280  0.6615  0.9244 -1.2269
17629TIP3   OH274301   6.700   3.919  10.944 -0.5285  0.1293 -0.3991
17629TIP3    H174302   6.750   3.846  10.909 -1.4689 -0.2427 -0.9752
17629TIP3    H274303   6.717   3.991  10.882 -2.0083 -0.4635 -1.5360
17630TIP3   OH274304   6.761   2.820  12.168  0.1893 -0.2558 -0.0183
17630TIP3    H174305   6.855   2.813  12.149  0.0327 -0.1290 -0.8915
17630TIP3    H274306   6.756   2.874  12.247  0.8283  0.2010 -0.2829
17631TIP3   OH274307   5.787   6.601  15.193  0.4860 -0.1596 -0.3123
17631TIP3    H174308   5.879   6.598  15.221  1.0190 -2.7551 -2.1482
17631TIP3    H274309   5.742   6.542  15.254  0.4278 -0.4711 -0.6503
17632TIP3   OH274310   0.743   1.232   2.977 -0.1523 -0.4069  0.0056
17632TIP3    H174311   0.811   1.276   2.926 -0.2588 -0.2079  0.0354
17632TIP3    H274312   0.722   1.154   2.926 -1.5986  0.7570 -1.2202
17633TIP3   OH274313   1.102   0.306  13.634  0.4292  0.3925 -0.1007
17633TIP3    H174314   1.050   0.225  13.634  0.0956  0.6034 -0.1870
17633TIP3    H274315   1.138   0.311  13.722  0.6697  0.0108 -0.1765
17634TIP3   OH274316   3.272   0.127  14.485  0.7913 -0.0371  0.1952
17634TIP3    H174317   3.227   0.120  14.569 -0.5113  1.0692 -0.4085
17634TIP3    H274318   3.203   0.137  14.421  1.7338 -1.8282 -1.1496
17635TIP3   OH274319   5.621   4.062   0.294 -0.1283  0.2544  0.1643
17635TIP3    H174320   5.586   4.045   0.381  2.0785  1.1012  1.2336
17635TIP3    H274321   5.591   4.151   0.274  0.5494  0.5936  0.6500
17636TIP3   OH274322   1.718   4.027   0.310  0.3043  0.3893  0.6645
17636TIP3    H174323   1.637   4.024   0.260  0.6337  1.1221  0.0617
17636TIP3    H274324   1.741   4.120   0.312  0.9837  0.2167  1.0609
17637TIP3   OH274325   0.443   4.488   1.328 -0.1004 -0.3427  0.8689
17637TIP3    H174326   0.521   4.469   1.276  0.4836  0.6893  1.3555
17637TIP3    H274327   0.426   4.408   1.377  0.6070 -0.6016  0.6870
17638TIP3   OH274328   1.993   2.927   0.597  0.3916 -0.7015  0.4463
17638TIP3    H174329   1.977   2.892   0.510 -1.3551 -0.4413  0.6522
17638TIP3    H274330   2.063   2.991   0.585  0.5638 -1.0939 -0.6645
17639TIP3   OH274331   6.459   5.756  14.834  0.5537 -0.1983 -0.2393
17639TIP3    H174332   6.512   5.835  14.844 -0.8849  0.5623  1.6694
17639TIP3    H274333   6.520   5.683  14.848  1.5493  0.6047 -0.3804
17640TIP3   OH274334   1.644   3.712  12.224 -0.5156  0.2691 -0.2129
17640TIP3    H174335   1.589   3.634  12.236  3.8811 -2.7016  2.1065
17640TIP3    H274336   1.681   3.730  12.310  1.2543  2.8050 -1.4241
17641TIP3   OH274337   3.221   2.172   2.225 -0.2893 -0.2446 -0.5085
17641TIP3    H174338   3.246   2.238   2.160  0.3733 -0.5580 -0.5738
17641TIP3    H274339   3.289   2.105   2.220 -0.0822 -0.1418  0.7050
17642TIP3   OH274340   4.822   3.190   3.393 -0.5074  0.0949 -0.0310
17642TIP3    H174341   4.789   3.278   3.410 -1.2203 -0.0598 -0.5812
17642TIP3    H274342   4.881   3.172   3.466 -0.5112  0.9508  0.1891
17643TIP3   OH274343   2.405   2.384   1.830 -0.1226  0.4103  0.1408
17643TIP3    H174344   2.402   2.401   1.736  0.1697 -0.7778 -0.0941
17643TIP3    H274345   2.464   2.450   1.865  1.9589 -0.8410 -0.9146
17644TIP3   OH274346   6.103   1.802   6.437  0.1656 -0.3326 -0.6122
17644TIP3    H174347   6.194   1.774   6.424  0.3965  0.3043 -0.3830
17644TIP3    H274348   6.092   1.804   6.532 -0.0661 -0.3514 -0.6399
17645TIP3   OH274349   1.078   2.920   1.700  0.3590 -0.0231 -0.5281
17645TIP3    H174350   1.054   2.923   1.607 -0.1989 -1.2160 -0.4387
17645TIP3    H274351   1.142   2.990   1.711  0.0265  0.4706 -1.7009
17646TIP3   OH274352   1.709   2.357  16.339 -0.2065 -0.1027 -0.0940
17646TIP3    H174353   1.783   2.324  16.289 -0.1178 -1.1336  0.7065
17646TIP3    H274354   1.632   2.321  16.295 -0.0774 -2.1962  1.3344
17647TIP3   OH274355   5.267   5.677  16.286 -0.0176  0.6795 -0.3271
17647TIP3    H174356   5.280   5.582  16.282 -1.4199  0.5136 -1.2613
17647TIP3    H274357   5.174   5.688  16.306  0.0446  1.8509 -0.6321
17648TIP3   OH274358   4.584   4.873   6.238 -0.3400  0.1433 -1.0734
17648TIP3    H174359   4.627   4.912   6.314 -0.5370 -1.9480  0.1633
17648TIP3    H274360   4.655   4.830   6.190 -0.7719 -2.0820  0.1989
17649TIP3   OH274361   5.762   0.725   5.753 -0.2866 -0.5462  0.2800
17649TIP3    H174362   5.715   0.651   5.792 -0.7801  0.9717  2.7237
17649TIP3    H274363   5.693   0.788   5.731 -0.0492 -1.5180 -3.5336
17650TIP3   OH274364   4.070   4.343  11.672 -0.4527 -0.2912 -0.6738
17650TIP3    H174365   4.164   4.343  11.654 -0.3618  0.8565 -0.2474
17650TIP3    H274366   4.033   4.398  11.603 -0.7045 -0.0259 -0.3255
17651TIP3   OH274367   6.337   2.908   4.520  0.1931  0.1962  0.4888
17651TIP3    H174368   6.269   2.935   4.459 -1.8215 -0.6767  2.2621
17651TIP3    H274369   6.325   2.965   4.596  0.4554 -0.9382  1.4057
17652TIP3   OH274370   2.682   5.267   3.845 -0.0316 -0.6263  0.8694
17652TIP3    H174371   2.759   5.212   3.855  0.3150 -0.2383  0.3737
17652TIP3    H274372   2.657   5.290   3.935  0.4855 -0.6740  1.0254
17653TIP3   OH274373   0.210   5.572   2.348  0.2791  0.4306 -0.2096
17653TIP3    H174374   0.222   5.545   2.257  0.7390 -0.1246  0.0164
17653TIP3    H274375   0.160   5.654   2.342  0.4031  0.4558 -0.9638
17654TIP3   OH274376   1.230   1.632   1.355  0.3927 -0.0283 -0.5340
17654TIP3    H174377   1.303   1.575   1.380  1.0794  0.3375 -1.6578
17654TIP3    H274378   1.198   1.594   1.273  0.1930  0.6020 -0.7496
17655TIP3   OH274379   2.531   0.208  15.356 -0.0362 -0.4697  0.4176
17655TIP3    H174380   2.448   0.227  15.401 -0.3390 -1.3303  0.2265
17655TIP3    H274381   2.516   0.235  15.266  0.8727  2.1112  0.9957
17656TIP3   OH274382   1.776   0.011   0.116 -0.1258  0.6524  0.0762
17656TIP3    H174383   1.808   0.016   0.207  0.3211  1.5130 -0.1143
17656TIP3    H274384   1.846   0.052   0.065  1.3128 -3.1373 -1.1251
17657TIP3   OH274385   0.259   2.191  17.158 -0.2662  0.7745 -0.2886
17657TIP3    H174386   0.320   2.226  17.093  0.5407 -0.0802 -0.0176
17657TIP3    H274387   0.172   2.202  17.119  0.0879  1.7371 -0.8086
17658TIP3   OH274388   6.453   5.844  15.843 -0.4705  0.0391 -0.0942
17658TIP3    H174389   6.435   5.866  15.934 -1.2523 -0.9541  0.0024
17658TIP3    H274390   6.408   5.761  15.829  0.3885 -0.2654 -1.1373
17659TIP3   OH274391   5.225   6.198  16.153 -0.3816  0.1935  0.3991
17659TIP3    H174392   5.190   6.232  16.071  0.9704  0.5509 -0.0553
17659TIP3    H274393   5.208   6.104  16.150 -1.8719  0.4604  0.4974
17660TIP3   OH274394   4.698   2.603  14.858 -0.1082 -0.2956 -0.2069
17660TIP3    H174395   4.789   2.575  14.852 -1.2688 -3.7121 -2.8528
17660TIP3    H274396   4.685   2.663  14.784  0.3084  1.2899  0.9729
17661TIP3   OH274397   4.196   3.133  13.323  0.0256  0.3659  0.3419
17661TIP3    H174398   4.195   3.127  13.227  0.7485 -0.8537  0.4031
17661TIP3    H274399   4.270   3.189  13.344 -1.4033  2.3932  0.1173
17662TIP3   OH274400   1.186   4.396  16.831 -0.8098 -0.1062  0.2264
17662TIP3    H174401   1.107   4.437  16.868 -0.2905  1.8179 -0.7145
17662TIP3    H274402   1.193   4.433  16.743  1.4745  0.2115  0.5312
17663TIP3   OH274403   4.138   1.950  16.441  0.0495 -0.0907  0.0017
17663TIP3    H174404   4.187   2.000  16.506 -1.2508  0.7988  0.3174
17663TIP3    H274405   4.139   1.860  16.473 -1.1480  0.4490  1.6236
17664TIP3   OH274406   2.683   2.517  13.338  0.8671  0.4667 -0.7770
17664TIP3    H174407   2.694   2.611  13.331  2.8924  0.2246 -1.1655
17664TIP3    H274408   2.598   2.499  13.296  0.3889  2.1055 -0.5313
17665TIP3   OH274409   0.078   2.314   2.117  0.0576 -0.4443 -0.1289
17665TIP3    H174410   0.089   2.380   2.049 -0.2317  1.3710  1.5274
17665TIP3    H274411   0.114   2.355   2.196 -1.9812 -1.4691  1.3730
17666TIP3   OH274412   1.582   3.294  11.900 -0.3095  0.1216 -0.1038
17666TIP3    H174413   1.651   3.239  11.865  0.7252  0.3373  1.5710
17666TIP3    H274414   1.562   3.355  11.828 -0.0002 -1.0463 -1.2072
17667TIP3   OH274415   0.428   3.946  14.101 -0.3209  0.2665 -0.0367
17667TIP3    H174416   0.445   4.041  14.095  0.9552  0.0935  0.5527
17667TIP3    H274417   0.360   3.930  14.036 -0.3724  1.5528 -0.3278
17668TIP3   OH274418   5.863   0.905   2.311  0.0922 -0.3463 -0.2371
17668TIP3    H174419   5.940   0.949   2.276 -0.0286 -1.1951 -1.5929
17668TIP3    H274420   5.846   0.949   2.395  1.6615  0.2553 -0.2271
17669TIP3   OH274421   5.650   2.171   1.737  0.0064 -0.5519 -0.1154
17669TIP3    H174422   5.622   2.247   1.687  0.5707 -1.2785 -1.5691
17669TIP3    H274423   5.572   2.142   1.783 -0.7561 -0.4228 -1.3092
17670TIP3   OH274424   1.005   1.052   1.724 -0.3198  0.4747  0.5632
17670TIP3    H174425   1.043   1.097   1.648  1.3084 -0.5903  0.7378
17670TIP3    H274426   0.962   0.975   1.686 -1.0985  0.9181  0.5295
17671TIP3   OH274427   3.764   0.489  12.252  0.2202 -0.1310  0.3269
17671TIP3    H174428   3.760   0.472  12.158 -1.6420  2.7813 -0.1769
17671TIP3    H274429   3.711   0.568  12.264 -1.3298 -1.6389  4.1094
17672TIP3   OH274430   4.406   0.442   5.953 -0.2655 -0.2417 -0.4381
17672TIP3    H174431   4.443   0.387   6.021 -0.2008  0.4282  0.0808
17672TIP3    H274432   4.452   0.416   5.873  1.3785  0.6060  0.2025
17673TIP3   OH274433   3.320   0.909   1.108  0.7509  0.3332  0.0615
17673TIP3    H174434   3.407   0.912   1.148  0.5330  1.7602  0.4468
17673TIP3    H274435   3.337   0.913   1.014  1.1167  0.2191  0.1219
17674TIP3   OH274436   0.250   3.176  17.188 -0.8445 -0.7563 -0.7648
17674TIP3    H174437   0.243   3.268  17.162 -0.7636 -0.2144  1.0602
17674TIP3    H274438   0.165   3.154  17.225 -0.0100 -0.5962  1.3152
17675TIP3   OH274439   4.032   1.491  13.402 -0.0828 -0.2524 -0.0042
17675TIP3    H174440   4.071   1.510  13.317 -0.4961 -0.7323 -0.3004
17675TIP3    H274441   4.029   1.396  13.408 -0.5926 -0.2229  0.2983
17676TIP3   OH274442   2.240   4.623  17.207 -0.1365 -0.0294 -0.1112
17676TIP3    H174443   2.237   4.718  17.214  1.6865  0.2532 -2.5619
17676TIP3    H274444   2.332   4.601  17.223 -0.1029 -1.1546 -1.7895
17677TIP3   OH274445   6.393   1.022  15.690 -0.1817 -0.0588 -0.0344
17677TIP3    H174446   6.470   1.058  15.646 -0.7694 -0.0839 -1.1019
17677TIP3    H274447   6.324   1.085  15.673 -1.4292 -2.0166 -2.6233
17678TIP3   OH274448   0.421   1.185  17.008  0.2020  0.0001 -0.1862
17678TIP3    H174449   0.493   1.232  17.049 -0.0510  1.0701 -0.9520
17678TIP3    H274450   0.344   1.240  17.024 -0.7366 -1.7965  1.8598
17679TIP3   OH274451   6.273   2.800   3.100 -0.6516  0.3414  0.3101
17679TIP3    H174452   6.211   2.795   3.172 -1.2489  0.8953 -0.1599
17679TIP3    H274453   6.344   2.740   3.125 -0.8052  0.5990  1.3976
17680TIP3   OH274454   4.051   5.635   0.472  0.6243 -0.5930  0.0240
17680TIP3    H174455   4.084   5.700   0.534  0.7663 -1.9316  1.3585
17680TIP3    H274456   3.988   5.684   0.419  1.2568  0.8143  0.5335
17681TIP3   OH274457   3.108   1.389  11.067 -0.3872  0.5179 -0.1095
17681TIP3    H174458   3.137   1.462  11.013 -1.8172  3.3388  2.7095
17681TIP3    H274459   3.188   1.353  11.104  0.3410  0.6990 -1.4867
17682TIP3   OH274460   5.273   6.078  11.168  0.2579  0.6213  0.7165
17682TIP3    H174461   5.352   6.025  11.178 -0.0026 -0.3650 -2.0065
17682TIP3    H274462   5.201   6.018  11.190  0.0196  0.1229 -1.3765
17683TIP3   OH274463   1.671   6.733   5.977 -0.0280  0.5847  0.6920
17683TIP3    H174464   1.706   6.655   6.021 -0.9146 -1.0900 -1.4748
17683TIP3    H274465   1.616   6.775   6.042  1.4695  0.0888  2.3000
17684TIP3   OH274466   5.441   1.958  13.740 -0.6102 -0.3906  0.5280
17684TIP3    H174467   5.444   1.958  13.645  0.9395 -0.1628  0.5567
17684TIP3    H274468   5.373   2.022  13.762  1.9432  2.7772 -0.3933
17685TIP3   OH274469   5.907   4.389  12.514 -0.3748  0.1393 -0.1098
17685TIP3    H174470   5.891   4.415  12.605  0.8501  0.7448 -0.0540
17685TIP3    H274471   5.852   4.448  12.463  0.0402  0.7814  0.1744
17686TIP3   OH274472   0.574   4.615   0.355 -0.2116 -0.2800  0.5532
17686TIP3    H174473   0.612   4.539   0.400 -0.7027 -0.3898  0.7824
17686TIP3    H274474   0.513   4.652   0.418 -0.6710 -0.2472  0.0900
17687TIP3   OH274475   6.437   5.000  17.081  0.3091  0.3325 -0.7125
17687TIP3    H174476   6.384   5.075  17.107  3.0125  1.6025  1.3945
17687TIP3    H274477   6.482   5.029  17.002  0.1264  0.3214 -0.8196
17688TIP3   OH274478   6.714   2.814   5.957 -0.2760 -0.3396 -0.0699
17688TIP3    H174479   6.714   2.909   5.964 -0.2276 -0.3808  0.4752
17688TIP3    H274480   6.695   2.797   5.864 -1.1747  0.1815  0.0088
17689TIP3   OH274481   4.417   2.469  12.914 -0.4352  0.3181 -0.2537
17689TIP3    H174482   4.421   2.384  12.869  3.1302  0.5033 -0.3781
17689TIP3    H274483   4.405   2.446  13.006  0.2513 -0.3337 -0.3176
17690TIP3   OH274484   2.847   5.304  12.342 -0.3656  0.1626 -0.0064
17690TIP3    H174485   2.798   5.300  12.424 -0.8942 -0.8419 -0.3585
17690TIP3    H274486   2.782   5.284  12.274  0.2867 -0.0754 -0.5743
17691TIP3   OH274487   6.124   0.044  12.774  0.1085  0.1046 -0.4801
17691TIP3    H174488   6.088  -0.037  12.738  1.8061  0.1126 -2.3087
17691TIP3    H274489   6.130   0.103  12.698  0.3638  1.3943  0.5267
17692TIP3   OH274490   4.970   4.542  12.197  0.2152 -0.8370 -0.4212
17692TIP3    H174491   4.906   4.471  12.189  0.8312 -1.8653  3.0497
17692TIP3    H274492   4.917   4.618  12.221  0.0851 -1.2239  0.5101
17693TIP3   OH274493   2.151   6.770   4.535 -0.2633 -0.1542  0.2328
17693TIP3    H174494   2.196   6.722   4.605 -0.0593 -1.7034 -0.9436
17693TIP3    H274495   2.168   6.862   4.556  1.8049 -0.6487  0.9360
17694TIP3   OH274496   2.211   5.085   3.555 -0.0734 -0.4541  0.1438
17694TIP3    H174497   2.302   5.116   3.551 -0.3928  0.3137 -1.8457
17694TIP3    H274498   2.217   4.998   3.596  1.2571  0.6107  2.2929
17695TIP3   OH274499   4.151   5.694   0.145  0.0017  0.2917 -0.0168
17695TIP3    H174500   4.191   5.755   0.207 -0.8764  0.3630  0.4820
17695TIP3    H274501   4.144   5.612   0.193  0.4081  0.0213 -0.4142
17696TIP3   OH274502   1.231   0.481   3.378 -0.1048 -0.2964  0.2548
17696TIP3    H174503   1.206   0.423   3.449  0.5267 -1.3184 -0.3507
17696TIP3    H274504   1.255   0.563   3.421  0.8260 -1.0889  1.2812
17697TIP3   OH274505   1.963   4.368  15.040  0.3397  0.0892 -0.1390
17697TIP3    H174506   1.987   4.404  14.954  1.2461 -3.5105 -1.4980
17697TIP3    H274507   2.039   4.387  15.095 -0.1420  2.2044 -0.1406
17698TIP3   OH274508   4.602   3.870   3.131 -0.0626 -0.0735  0.5834
17698TIP3    H174509   4.585   3.903   3.220  0.6419  0.8230  0.3924
17698TIP3    H274510   4.561   3.784   3.129  0.6413 -0.4559  2.0588
17699TIP3   OH274511   0.024   2.143   3.230 -0.1357  0.2957  0.3757
17699TIP3    H174512   0.089   2.117   3.296 -1.4702 -0.4297  1.4207
17699TIP3    H274513   0.077   2.177   3.158  1.3263  1.9909  2.1827
17700TIP3   OH274514   4.493   5.224  11.817  0.0856  0.3128 -0.7318
17700TIP3    H174515   4.465   5.171  11.742  1.3999 -1.3161 -0.1012
17700TIP3    H274516   4.427   5.294  11.823 -1.4209 -0.9735 -1.8768
17701TIP3   OH274517   0.931   1.690  16.426  0.4209  0.5637  0.3981
17701TIP3    H174518   0.867   1.725  16.365  0.5625  0.2825  0.0900
17701TIP3    H274519   0.913   1.595  16.428  1.8329  0.2603 -0.8705
17702TIP3   OH274520   4.472   2.663   1.156  0.0119 -0.4730  0.2185
17702TIP3    H174521   4.410   2.596   1.185 -2.7292  1.0344 -1.9071
17702TIP3    H274522   4.496   2.638   1.067 -1.3703  1.5325 -0.7653
17703TIP3   OH274523   6.199   2.926  12.816 -0.4869 -0.0683  0.1618
17703TIP3    H174524   6.254   2.939  12.893 -0.8270  0.5001  0.3155
17703TIP3    H274525   6.221   2.838  12.785 -0.2827 -0.2645  0.8526
17704TIP3   OH274526   1.699   2.454  16.025  0.0030  0.1425 -0.2291
17704TIP3    H174527   1.629   2.489  16.079 -1.5227  0.3066 -2.2333
17704TIP3    H274528   1.779   2.480  16.069 -1.1790  1.3112  1.2723
17705TIP3   OH274529   0.077   1.344  16.735  0.8375  0.2910 -0.3299
17705TIP3    H174530  -0.002   1.399  16.734  0.7587  0.2070  0.7868
17705TIP3    H274531   0.146   1.402  16.766  1.1188  0.2306 -0.8385
17706TIP3   OH274532   3.761   5.811   0.799  0.3826 -0.7956 -0.0345
17706TIP3    H174533   3.701   5.736   0.792 -0.0844 -0.4460  0.1906
17706TIP3    H274534   3.721   5.867   0.866  1.3279 -0.9042  0.6384
17707TIP3   OH274535   1.483   0.959   3.164  0.5662 -0.0360 -0.3447
17707TIP3    H174536   1.574   0.955   3.133 -0.0024 -0.7740 -1.9431
17707TIP3    H274537   1.456   1.049   3.148  1.4474  0.5926  1.4604
17708TIP3   OH274538   6.533   3.159  12.932  0.3264  0.3450  0.0062
17708TIP3    H174539   6.496   3.213  12.861 -1.0080  1.7541  1.7329
17708TIP3    H274540   6.462   3.098  12.953  0.9120 -0.4110 -0.1921
17709TIP3   OH274541   6.707   4.680   2.615 -0.2797  0.1433  0.1106
17709TIP3    H174542   6.617   4.652   2.629 -0.0605  0.8741  3.2022
17709TIP3    H274543   6.758   4.600   2.623 -0.5789 -0.2354 -1.4361
17710TIP3   OH274544   4.963   1.286  15.548  0.4811 -0.1837 -0.4791
17710TIP3    H174545   4.942   1.370  15.587 -0.1829 -1.3415  1.7363
17710TIP3    H274546   4.900   1.277  15.476 -1.6126 -0.1980  1.3074
17711TIP3   OH274547   1.802   6.504   2.969  0.2326  0.3511  0.1411
17711TIP3    H174548   1.802   6.442   2.895 -1.2936 -0.5238  0.8462
17711TIP3    H274549   1.894   6.519   2.987  0.6334 -0.8650 -0.7608
17712TIP3   OH274550   6.276   3.691  11.984  0.0558  0.5091  0.5103
17712TIP3    H174551   6.243   3.762  12.039 -1.4777 -0.1195  0.4313
17712TIP3    H274552   6.243   3.712  11.896  0.9961  0.5743  0.1709
17713TIP3   OH274553   3.822   0.849  16.809 -0.0309 -0.4131  0.3098
17713TIP3    H174554   3.741   0.801  16.792 -0.1709 -0.2147  0.4106
17713TIP3    H274555   3.887   0.808  16.752 -0.2879 -0.3401 -0.0323
17714TIP3   OH274556   1.636   0.813  14.680 -0.3926  0.1505  0.0155
17714TIP3    H174557   1.550   0.853  14.693 -0.5700 -0.4321  0.6696
17714TIP3    H274558   1.696   0.887  14.674 -0.8715  0.5465  0.0837
17715TIP3   OH274559   0.746   2.630   6.597 -0.8906 -0.1377 -0.2442
17715TIP3    H174560   0.714   2.547   6.633  2.1518 -1.4421 -0.4499
17715TIP3    H274561   0.777   2.678   6.674 -1.3606  0.2380 -0.2880
17716TIP3   OH274562   0.144   1.149  12.824 -0.3149  0.1213 -0.5825
17716TIP3    H174563   0.166   1.221  12.884 -0.2978 -0.4544  0.1114
17716TIP3    H274564   0.128   1.074  12.882 -1.8523 -0.0460 -1.2079
17717TIP3   OH274565   4.557   3.583   6.231  0.0799 -0.0662  0.3722
17717TIP3    H174566   4.493   3.632   6.180 -0.1068  0.5919  1.2437
17717TIP3    H274567   4.612   3.649   6.272  0.2386 -0.5869  1.0194
17718TIP3   OH274568   5.680   3.540   0.426  0.3530 -0.1448  0.3142
17718TIP3    H174569   5.609   3.565   0.485 -0.7400  0.1288 -1.0801
17718TIP3    H274570   5.647   3.462   0.381  1.2755 -0.5001  0.2356
17719TIP3   OH274571   3.793   1.504  14.063 -0.5221  0.3936 -0.4048
17719TIP3    H174572   3.875   1.456  14.055 -0.3653  0.9861 -2.5010
17719TIP3    H274573   3.783   1.518  14.157 -0.1581 -2.9860  0.2107
17720TIP3   OH274574   6.292   6.103  15.367  0.3762 -0.0947 -0.3675
17720TIP3    H174575   6.291   6.027  15.426  0.6996 -0.2700 -0.5879
17720TIP3    H274576   6.384   6.132  15.366 -0.2805  2.4063  2.4356
17721TIP3   OH274577   2.500   3.461   0.308  0.5135  0.1248 -0.4219
17721TIP3    H174578   2.450   3.533   0.346  0.4551 -0.4597  0.6443
17721TIP3    H274579   2.484   3.466   0.214  0.2508  1.2984 -0.3147
17722TIP3   OH274580   1.222   5.773  14.520 -0.3289 -0.6682  0.3500
17722TIP3    H174581   1.160   5.807  14.455 -0.1169 -0.5360  0.2143
17722TIP3    H274582   1.275   5.710  14.471  0.4150  0.0840  0.1752
17723TIP3   OH274583   5.238   1.795   6.223 -0.4624 -0.0660  0.0173
17723TIP3    H174584   5.242   1.720   6.283 -0.5485 -0.2303 -0.1794
17723TIP3    H274585   5.147   1.825   6.227 -0.0027  1.1502  1.4461
17724TIP3   OH274586   3.349   6.594  17.132 -0.2358  0.4459 -0.1469
17724TIP3    H174587   3.417   6.553  17.079  0.6007  0.4329  0.9166
17724TIP3    H274588   3.380   6.683  17.147 -0.3266  0.3693  0.5395
17725TIP3   OH274589   5.767   5.241   0.308 -0.0252  0.6156 -0.4775
17725TIP3    H174590   5.752   5.187   0.385 -2.6823  1.2820 -0.4899
17725TIP3    H274591   5.787   5.178   0.238  2.1283  0.0036  0.6581
17726TIP3   OH274592   2.366   0.628   2.977 -0.0790  0.0018 -0.1286
17726TIP3    H174593   2.399   0.631   2.887 -0.3849  2.9134 -0.1764
17726TIP3    H274594   2.272   0.615   2.967 -0.3090  1.6614 -0.3088
17727TIP3   OH274595   0.257   6.449  13.793  0.5124 -0.2284 -0.4247
17727TIP3    H174596   0.272   6.358  13.768  0.9106  0.0556 -1.2060
17727TIP3    H274597   0.338   6.476  13.836 -0.6209 -1.1139  2.3863
17728TIP3   OH274598   0.158   6.017   0.757  0.5299  0.2675 -0.1339
17728TIP3    H174599   0.155   5.986   0.848 -2.5384  1.3168  0.1944
17728TIP3    H274600   0.161   5.938   0.704  0.7017 -0.4061  0.8651
17729TIP3   OH274601   2.665   2.944   3.942  0.5760  0.0117 -0.3858
17729TIP3    H174602   2.621   3.013   3.893  0.7721 -0.0473 -0.6471
17729TIP3    H274603   2.595   2.885   3.968  0.5949 -0.4865 -1.4531
17730TIP3   OH274604   0.640   3.136  13.047  0.0528  0.4160  0.4393
17730TIP3    H174605   0.585   3.193  12.993  2.3349  0.6584 -1.6939
17730TIP3    H274606   0.610   3.048  13.025  2.0927  0.4050 -2.6424
17731TIP3   OH274607   5.414   2.364   2.707 -0.0451  0.1928  0.3131
17731TIP3    H174608   5.449   2.421   2.639 -0.0852  1.4183  1.3047
17731TIP3    H274609   5.442   2.276   2.681  1.1354  0.8055 -0.5417
17732TIP3   OH274610   6.395   5.298   5.002 -0.1607 -0.4375 -0.1492
17732TIP3    H174611   6.358   5.224   4.954  1.4362 -0.3594 -1.5264
17732TIP3    H274612   6.417   5.362   4.934  0.0854  0.5882  0.8875
17733TIP3   OH274613   3.785   6.772   4.333 -0.1523  0.1244 -0.3383
17733TIP3    H174614   3.845   6.846   4.340 -0.4140  0.4581 -1.5276
17733TIP3    H274615   3.698   6.810   4.347 -0.1200 -0.3241  1.1789
17734TIP3   OH274616   3.178   1.367   3.131  0.2301  0.3979 -0.2722
17734TIP3    H174617   3.138   1.443   3.173  0.4375  0.6251 -0.4804
17734TIP3    H274618   3.185   1.302   3.201  0.8781  0.8927  0.1341
17735TIP3   OH274619   4.339   2.569   2.079 -0.4694 -0.2563 -0.0092
17735TIP3    H174620   4.287   2.634   2.031  0.7268  0.6151 -0.1458
17735TIP3    H274621   4.379   2.515   2.011 -1.6292 -1.2824  0.1088
17736TIP3   OH274622   3.580   0.900   5.886 -0.1769 -0.0490  0.2103
17736TIP3    H174623   3.542   0.987   5.898  0.9765  0.3159  1.2205
17736TIP3    H274624   3.542   0.847   5.956 -0.3996 -0.2071 -0.0285
17737TIP3   OH274625   4.415   5.922  17.031 -0.3658 -0.2578 -0.4874
17737TIP3    H174626   4.499   5.960  17.004  0.0002 -1.3451 -0.8968
17737TIP3    H274627   4.404   5.950  17.122  0.7092 -0.5674 -0.2595
17738TIP3   OH274628   1.575   0.636  11.652 -0.4968 -0.2743 -0.3701
17738TIP3    H174629   1.662   0.630  11.691 -0.9279 -0.0328  0.6406
17738TIP3    H274630   1.591   0.636  11.558  0.5719 -0.6050 -0.1949
17739TIP3   OH274631   1.999   1.314  14.779  0.1248  0.7833 -0.1476
17739TIP3    H174632   2.003   1.246  14.712 -0.6558  0.9432 -0.3635
17739TIP3    H274633   2.079   1.365  14.767  0.4682  0.2031 -0.3099
17740TIP3   OH274634   4.632   1.429   6.116 -0.0774  0.0313 -0.4394
17740TIP3    H174635   4.664   1.498   6.174 -1.0807  0.4929 -0.4177
17740TIP3    H274636   4.635   1.349   6.170 -1.8038  0.6038  0.5490
17741TIP3   OH274637   0.194   3.488  11.258 -0.3001 -0.1783  0.6471
17741TIP3    H174638   0.125   3.502  11.193  0.2569 -3.0125 -0.6227
17741TIP3    H274639   0.267   3.541  11.226 -0.9030  0.5230  0.4095
17742TIP3   OH274640   6.693   6.478   4.166  0.7792  0.3534  0.1639
17742TIP3    H174641   6.674   6.456   4.257  1.8011 -0.0419  0.2954
17742TIP3    H274642   6.762   6.416   4.141 -0.6879 -0.6778 -1.4249
17743TIP3   OH274643   0.645   6.303   4.741 -0.0449  0.3275 -0.2498
17743TIP3    H174644   0.575   6.242   4.718  0.0623  0.8656 -2.0552
17743TIP3    H274645   0.707   6.298   4.668  1.7617 -0.0445  1.2624
17744TIP3   OH274646   3.205   5.003   3.072  0.5075  0.3138  0.5436
17744TIP3    H174647   3.290   4.964   3.092  0.8720  1.6338  1.6331
17744TIP3    H274648   3.141   4.941   3.108  1.0464  0.0879  1.1290
17745TIP3   OH274649   3.791   0.379  10.509 -0.6529 -0.1371  0.2291
17745TIP3    H174650   3.829   0.334  10.433 -1.3213 -0.9434  0.3746
17745TIP3    H274651   3.713   0.422  10.474 -0.0775  0.8292  0.1149
17746TIP3   OH274652   2.624   3.411   0.756  0.5157  0.1106 -0.2836
17746TIP3    H174653   2.626   3.394   0.850  1.3804 -0.4075 -0.3953
17746TIP3    H274654   2.653   3.329   0.715 -0.5611  0.0838 -1.0354
17747TIP3   OH274655   5.963   4.776  11.398  0.2857 -0.0640 -0.1113
17747TIP3    H174656   5.971   4.681  11.408  1.8040 -0.2368 -2.5914
17747TIP3    H274657   5.995   4.812  11.481 -0.3342 -1.7158  0.8607
17748TIP3   OH274658   1.492   6.490  16.346 -0.1896  0.0959 -0.1053
17748TIP3    H174659   1.486   6.394  16.344  3.0069 -0.1876  0.9015
17748TIP3    H274660   1.528   6.514  16.261  0.2309  0.2568  0.1148
17749TIP3   OH274661   3.229   1.973  16.148 -0.4155 -0.4109  0.3394
17749TIP3    H174662   3.292   2.016  16.091 -0.3367  1.6821  1.9330
17749TIP3    H274663   3.186   2.045  16.195 -1.2538 -2.0080  2.0886
17750TIP3   OH274664   2.747   1.788   1.743  0.0830  0.0453  0.1557
17750TIP3    H174665   2.816   1.824   1.687  0.4737  0.9582  1.2030
17750TIP3    H274666   2.783   1.794   1.831 -0.1268 -2.2844  0.4379
17751TIP3   OH274667   2.701   5.803   3.133 -0.0049  0.3266 -0.1096
17751TIP3    H174668   2.629   5.744   3.112 -0.3553 -0.3041  2.7297
17751TIP3    H274669   2.779   5.749   3.125  0.1342  0.8090 -2.4101
17752TIP3   OH274670   6.349   3.018   2.616 -0.0233 -0.2014  0.5604
17752TIP3    H174671   6.342   2.946   2.679  0.2190 -0.3410  0.4296
17752TIP3    H274672   6.261   3.030   2.583  0.1538 -1.2640 -0.3321
17753TIP3   OH274673   2.037   4.586   4.677 -0.0938  0.4777  0.1129
17753TIP3    H174674   2.034   4.521   4.607  3.4857 -0.9939  1.2122
17753TIP3    H274675   1.986   4.660   4.643 -2.9848 -2.2607 -1.7677
17754TIP3   OH274676   6.750   3.889   2.150  0.0019 -0.3995 -0.1055
17754TIP3    H174677   6.664   3.885   2.191  0.2800  0.3698  0.5771
17754TIP3    H274678   6.760   3.981   2.123  0.3225 -0.6351 -0.8108
17755TIP3   OH274679   2.029   5.455   4.730 -0.4148  0.4437 -0.3730
17755TIP3    H174680   1.985   5.470   4.646 -1.5522  1.1116  0.3273
17755TIP3    H274681   2.116   5.493   4.718 -0.8003  1.1372 -1.0371
17756TIP3   OH274682   5.917   3.575   2.066 -0.7092  0.0664  0.2294
17756TIP3    H174683   5.952   3.507   2.009 -1.1672  1.3568 -1.6623
17756TIP3    H274684   5.929   3.542   2.155  2.6890 -0.7622 -0.4836
17757TIP3   OH274685   4.269   1.244  16.699 -0.0938  0.3449 -0.3066
17757TIP3    H174686   4.262   1.210  16.788  1.7124  1.1321  0.1666
17757TIP3    H274687   4.181   1.276  16.678 -0.6423 -0.2619  1.0256
17758TIP3   OH274688   2.914   2.073   3.736 -0.5357 -0.2799  0.6295
17758TIP3    H174689   2.899   2.091   3.643  0.0065  1.3271  0.8324
17758TIP3    H274690   2.893   1.981   3.746 -0.0365 -0.6146 -1.2135
17759TIP3   OH274691   0.020   3.208  12.776  0.2363 -0.0379 -0.1595
17759TIP3    H174692  -0.027   3.282  12.813 -0.1515  0.1160 -0.9476
17759TIP3    H274693  -0.039   3.134  12.788  0.5429 -0.1882  0.4536
17760TIP3   OH274694   1.694   3.551  16.718 -0.1029 -0.0122  0.0898
17760TIP3    H174695   1.607   3.570  16.754  0.0681 -0.0964  0.5519
17760TIP3    H274696   1.751   3.545  16.795  0.4394  0.7048 -0.2560
17761TIP3   OH274697   2.717   1.506  14.499 -0.1715  1.3375 -0.4200
17761TIP3    H174698   2.707   1.588  14.450  0.1461  1.1876 -0.7392
17761TIP3    H274699   2.806   1.477  14.479  0.4242  1.9426  1.2748
17762TIP3   OH274700   5.965   6.667   3.707  0.1197 -0.0312 -0.1735
17762TIP3    H174701   5.941   6.759   3.699 -0.0403 -0.0848 -0.3197
17762TIP3    H274702   6.004   6.659   3.794 -0.8138 -0.0327  0.2490
17763TIP3   OH274703   1.245   2.876  12.047  0.0318 -0.0501  0.3329
17763TIP3    H174704   1.178   2.929  12.091 -0.2662 -0.7325  0.7047
17763TIP3    H274705   1.300   2.940  12.002 -0.9388  0.5228 -0.0631
17764TIP3   OH274706   4.662   2.727  16.113  0.4006 -0.1681 -0.1188
17764TIP3    H174707   4.719   2.655  16.085  1.6933  0.0867  1.7421
17764TIP3    H274708   4.648   2.711  16.206  2.1789  2.9072  0.7642
17765TIP3   OH274709   2.525   2.099  11.598 -0.1096  0.1332  0.0740
17765TIP3    H174710   2.504   2.019  11.550  0.4860  0.4747 -0.7708
17765TIP3    H274711   2.621   2.103  11.598 -0.1193  2.5366 -2.7927
17766TIP3   OH274712   5.622   1.527   5.644  0.6116 -0.5214  0.0158
17766TIP3    H174713   5.655   1.537   5.554 -0.1740  0.4056 -0.1888
17766TIP3    H274714   5.535   1.566   5.641 -0.1238 -2.0769  0.7719
17767TIP3   OH274715   4.782   3.091   1.133  0.1862  0.1222 -0.0986
17767TIP3    H174716   4.849   3.159   1.143  2.6663 -2.0097 -1.3870
17767TIP3    H274717   4.746   3.105   1.046  0.8698 -0.3299 -0.4602
17768TIP3   OH274718   1.825   1.176   4.936  0.0001 -0.5076 -0.0950
17768TIP3    H174719   1.745   1.211   4.899  0.7434  1.6009  0.2111
17768TIP3    H274720   1.887   1.249   4.934  1.0306 -1.2484  2.3162
17769TIP3   OH274721   0.751   5.781  14.709  0.4936 -0.5918 -0.0596
17769TIP3    H174722   0.745   5.708  14.770  1.0778 -0.4356  0.1853
17769TIP3    H274723   0.763   5.858  14.763  0.1063 -0.3415 -0.3290
17770TIP3   OH274724   0.734   5.617   6.402 -0.0211 -0.7890  0.7129
17770TIP3    H174725   0.677   5.694   6.403 -0.3718 -1.0594  2.1249
17770TIP3    H274726   0.822   5.652   6.390 -0.0342 -0.0581  2.5640
17771TIP3   OH274727   3.979   3.284   2.727  0.1089 -0.2138 -0.2653
17771TIP3    H174728   4.001   3.365   2.680 -2.7729  0.6813 -0.1913
17771TIP3    H274729   3.883   3.281   2.724  0.1707 -3.4783  0.0264
17772TIP3   OH274730   1.508   6.528  12.696 -0.5451 -0.1840 -0.7178
17772TIP3    H174731   1.506   6.606  12.752  0.6850 -1.3089  0.9298
17772TIP3    H274732   1.443   6.469  12.735  0.7962 -1.2435 -0.0127
17773TIP3   OH274733   1.573   0.731  16.188 -0.2049 -0.5140  0.1275
17773TIP3    H174734   1.530   0.774  16.114 -0.7027 -2.5845 -0.8051
17773TIP3    H274735   1.506   0.676  16.227  0.6363 -1.0503  0.8474
17774TIP3   OH274736   1.452   0.830   6.603 -0.3865  0.4262 -0.1508
17774TIP3    H174737   1.520   0.772   6.568  1.5309  2.0621  0.7971
17774TIP3    H274738   1.435   0.892   6.532  0.4468  1.1473  0.2773
17775TIP3   OH274739   0.971   3.752   0.816 -0.7704 -0.5496  0.0115
17775TIP3    H174740   1.028   3.678   0.794 -2.2245 -2.0632  1.2751
17775TIP3    H274741   1.029   3.814   0.859 -0.3352 -2.8056  2.8518
17776TIP3   OH274742   3.329   2.867   3.246 -0.1626 -0.0525  0.2815
17776TIP3    H174743   3.343   2.782   3.203 -0.3136 -0.9354  1.9229
17776TIP3    H274744   3.397   2.870   3.314  0.2276  1.4293 -0.1655
17777TIP3   OH274745   0.430   2.580  15.815  0.1674 -0.7525  0.0858
17777TIP3    H174746   0.371   2.614  15.748 -0.3981 -0.3767  0.7658
17777TIP3    H274747   0.516   2.617  15.793 -0.5415  1.5731  1.1257
17778TIP3   OH274748   3.598   4.119  15.598  0.0366  0.6267  0.1726
17778TIP3    H174749   3.577   4.207  15.568 -0.1584  0.6091  0.2551
17778TIP3    H274750   3.517   4.087  15.638  0.2778  0.6421  0.6922
17779TIP3   OH274751   3.127   1.798  17.207 -0.7566 -0.1030  0.3180
17779TIP3    H174752   3.133   1.824  17.115 -0.5363 -1.8083 -0.1709
17779TIP3    H274753   3.193   1.729  17.217 -0.1207  0.7075  1.9868
17780TIP3   OH274754   2.247   5.191  11.877  0.1169 -0.5794 -0.0656
17780TIP3    H174755   2.231   5.273  11.830 -0.1108 -0.3549  0.3994
17780TIP3    H274756   2.160   5.152  11.886  0.2207 -0.8581 -0.2517
17781TIP3   OH274757   3.928   4.603  16.844  0.0160 -0.0405 -0.0450
17781TIP3    H174758   3.904   4.639  16.758  2.2882  0.8216 -0.3621
17781TIP3    H274759   3.895   4.667  16.907 -0.0230  0.2712 -0.3832
17782TIP3   OH274760   3.312   5.568   2.086 -0.1771  0.1031 -0.3456
17782TIP3    H174761   3.219   5.566   2.106  0.2738  0.9718  2.0279
17782TIP3    H274762   3.354   5.529   2.163  1.5445  2.1602 -0.1735
17783TIP3   OH274763   0.755   2.106  12.873  0.3758 -0.0653 -0.4139
17783TIP3    H174764   0.751   2.025  12.823  1.6957 -0.7289  0.5083
17783TIP3    H274765   0.716   2.172  12.816  1.7151 -0.8137 -2.2576
17784TIP3   OH274766   1.441   2.194   5.508 -0.2994  0.3455 -0.8275
17784TIP3    H174767   1.496   2.168   5.581  0.1338 -1.3510 -1.7294
17784TIP3    H274768   1.485   2.159   5.431 -1.2393  1.3027 -1.8170
17785TIP3   OH274769   0.686   0.399   2.278 -0.3149 -0.2257  0.5117
17785TIP3    H174770   0.607   0.349   2.297  0.7477 -1.1816  2.6376
17785TIP3    H274771   0.682   0.416   2.184 -1.0141 -3.8146 -0.1967
17786TIP3   OH274772   2.569   1.683   0.621  0.0054 -0.0761 -0.3564
17786TIP3    H174773   2.639   1.620   0.603  1.0768  1.6153 -2.2792
17786TIP3    H274774   2.595   1.725   0.703 -0.3528 -1.5934  0.5601
17787TIP3   OH274775   6.090   5.161   1.796  0.2442  0.2357  0.4002
17787TIP3    H174776   6.077   5.091   1.733 -1.2698  0.0646  0.8751
17787TIP3    H274777   6.089   5.117   1.881  0.4400  0.6866  0.6384
17788TIP3   OH274778   2.242   4.872  12.796  0.0265  0.6919  0.1820
17788TIP3    H174779   2.282   4.911  12.719 -3.0281  2.5743 -0.5488
17788TIP3    H274780   2.238   4.944  12.860 -1.4557  0.3793  0.4755
17789TIP3   OH274781   1.294   1.158   1.458 -0.0608 -0.4268 -1.3977
17789TIP3    H174782   1.265   1.068   1.473 -2.1988  0.5498  0.6410
17789TIP3    H274783   1.222   1.199   1.410 -1.1505  1.3887  1.6414
17790TIP3   OH274784   1.763   2.821   3.863  0.2118 -0.4524  0.3102
17790TIP3    H174785   1.801   2.907   3.880  0.8908 -0.6970  0.0445
17790TIP3    H274786   1.812   2.788   3.788 -0.3755 -0.8703  0.1067
17791TIP3   OH274787   1.671   3.021  14.901 -0.3679  0.4445 -0.4225
17791TIP3    H174788   1.763   3.030  14.923 -0.3047 -0.1790 -0.4161
17791TIP3    H274789   1.669   2.961  14.827 -0.5859  2.4942 -2.1214
17792TIP3   OH274790   2.770   1.000  12.011  0.8763 -0.5844  0.2488
17792TIP3    H174791   2.811   1.054  11.945 -0.6695 -0.0463 -0.2893
17792TIP3    H274792   2.716   1.060  12.062  0.1844 -1.3971  0.4901
17793TIP3   OH274793   3.001   5.611  17.021 -0.1625  0.1641  0.7394
17793TIP3    H174794   3.048   5.588  16.941 -1.1753  1.1675 -0.1759
17793TIP3    H274795   3.070   5.640  17.082  0.7626 -2.0142  0.7805
17794TIP3   OH274796   4.553   6.463  10.800  0.5324 -0.2457 -0.0831
17794TIP3    H174797   4.498   6.532  10.836  0.3062  0.5737 -1.9176
17794TIP3    H274798   4.588   6.417  10.876  0.7043  1.9235  1.1738
17795TIP3   OH274799   4.319   6.255   6.231  0.1317  0.9458  0.3935
17795TIP3    H174800   4.356   6.287   6.313  0.8905  2.4382 -0.5061
17795TIP3    H274801   4.294   6.334   6.183  0.3641  0.1337 -1.1147
17796TIP3   OH274802   5.863   2.876  14.283 -0.4067 -0.2432  0.0145
17796TIP3    H174803   5.814   2.936  14.340 -0.8940  0.9316 -1.6051
17796TIP3    H274804   5.915   2.934  14.228  1.1439 -1.4226  0.2219
17797TIP3   OH274805   1.780   0.331   2.567 -1.0072 -0.1295 -0.4063
17797TIP3    H174806   1.764   0.387   2.491 -0.3223 -0.3217 -0.6917
17797TIP3    H274807   1.808   0.248   2.529 -1.3255 -0.4413  0.0412
17798TIP3   OH274808   3.004   4.547   3.255  0.0379 -0.4612  0.1479
17798TIP3    H174809   2.974   4.635   3.278  1.4573  0.4765 -1.4564
17798TIP3    H274810   2.925   4.501   3.227 -0.5238  0.7171 -0.2266
17799TIP3   OH274811   0.181   2.107  11.232 -0.2577 -0.5197  0.4877
17799TIP3    H174812   0.172   2.027  11.180  0.4571 -0.2802 -0.0154
17799TIP3    H274813   0.253   2.155  11.190 -0.2314  0.0700  1.1967
17800TIP3   OH274814   6.426   0.724  16.217  0.0024 -0.7606  0.0933
17800TIP3    H174815   6.446   0.671  16.295  0.2893 -1.0022 -0.1433
17800TIP3    H274816   6.507   0.775  16.202 -0.4480  0.1352  0.6280
17801TIP3   OH274817   5.937   4.187   1.865 -0.2900  0.0391  0.1096
17801TIP3    H174818   5.936   4.116   1.929 -1.0103 -1.0302 -1.0602
17801TIP3    H274819   5.928   4.267   1.918 -3.9133 -0.9665  1.2206
17802TIP3   OH274820   0.651   5.980   5.000  0.1368  0.0551  0.0414
17802TIP3    H174821   0.645   5.983   5.095  1.4765  2.8561  0.0824
17802TIP3    H274822   0.570   6.021   4.970 -0.0196 -0.2987 -0.0224
17803TIP3   OH274823   4.414   3.283  13.383 -0.5446 -0.2634 -0.7813
17803TIP3    H174824   4.500   3.305  13.348 -0.6160  0.5233 -0.4538
17803TIP3    H274825   4.432   3.224  13.457 -0.4019 -2.1676 -2.2830
17804TIP3   OH274826   5.103   0.314   1.100  0.4134  0.1786  0.2642
17804TIP3    H174827   5.009   0.303   1.114  0.2017 -0.3830 -1.4444
17804TIP3    H274828   5.131   0.232   1.061  0.8381  1.7572 -2.9342
17805TIP3   OH274829   0.871   1.796  15.951  0.3851 -0.5655 -0.2858
17805TIP3    H174830   0.857   1.782  15.857  0.4521 -0.3877 -0.3198
17805TIP3    H274831   0.784   1.817  15.985  1.1759  4.6916 -1.1842
17806TIP3   OH274832   1.872   2.230   0.686  0.2583 -0.1360 -0.1185
17806TIP3    H174833   1.813   2.159   0.659  1.4469 -1.7800  1.4061
17806TIP3    H274834   1.818   2.285   0.742 -0.0578 -1.1985  0.6519
17807TIP3   OH274835   4.668   0.994  16.417  0.0752  0.0525 -0.2221
17807TIP3    H174836   4.741   1.038  16.462  1.1496 -0.8038 -1.1128
17807TIP3    H274837   4.708   0.951  16.342 -1.8655  2.4255 -2.7138
17808TIP3   OH274838   6.765   4.128  16.359  0.6006 -0.5750 -0.3822
17808TIP3    H174839   6.792   4.219  16.368 -0.3048 -0.6054  3.1344
17808TIP3    H274840   6.829   4.079  16.412  1.1842 -2.0386 -2.3717
17809TIP3   OH274841   2.442   1.623   0.251  0.6417  0.1383  0.3019
17809TIP3    H174842   2.405   1.712   0.255  2.3424  0.9191 -0.9713
17809TIP3    H274843   2.536   1.636   0.241  1.0401 -1.8395  1.1889
17810TIP3   OH274844   6.055   4.391  15.791  0.2584 -0.0971 -0.3187
17810TIP3    H174845   5.995   4.344  15.733  1.0252 -1.6529  0.1225
17810TIP3    H274846   6.126   4.421  15.734  1.1550 -1.8671 -0.1889
17811TIP3   OH274847   5.153   3.009   4.266  0.3277 -0.6773 -0.1661
17811TIP3    H174848   5.182   2.928   4.309  0.9993 -0.8565 -0.9432
17811TIP3    H274849   5.061   2.994   4.247 -0.1507 -0.3580  1.7479
17812TIP3   OH274850   1.359   0.234   0.132 -0.2656 -0.0299  0.0172
17812TIP3    H174851   1.282   0.251   0.186 -1.8117 -0.2953 -2.0353
17812TIP3    H274852   1.410   0.170   0.182 -1.9142 -0.6680  0.9026
17813TIP3   OH274853   6.773   2.345  16.204 -0.6063 -0.2462  0.2163
17813TIP3    H174854   6.683   2.376  16.215 -0.6086 -0.1005 -0.2102
17813TIP3    H274855   6.826   2.425  16.209 -0.5770 -0.2240 -0.4747
17814TIP3   OH274856   0.158   1.806   4.694  0.4405 -0.0575 -0.1507
17814TIP3    H174857   0.099   1.832   4.765  0.6895 -0.2439  0.1264
17814TIP3    H274858   0.107   1.820   4.614 -0.1974 -0.8118  0.1199
17815TIP3   OH274859   4.975   1.730   5.093 -0.3546  0.3102  0.0688
17815TIP3    H174860   4.914   1.792   5.132  0.8548  1.2800  0.4491
17815TIP3    H274861   4.961   1.738   4.998 -2.6721 -1.4097  0.2346
17816TIP3   OH274862   5.574   3.792  13.124 -0.6908  0.2300 -0.3599
17816TIP3    H174863   5.634   3.810  13.052 -1.0923  1.2898 -0.4364
17816TIP3    H274864   5.498   3.752  13.081 -0.2959 -0.5725 -0.3319
17817TIP3   OH274865   1.373   2.912   3.852 -0.5247  0.2721 -0.0915
17817TIP3    H174866   1.297   2.938   3.801 -0.6471 -1.3536 -0.7644
17817TIP3    H274867   1.363   2.957   3.935 -1.8597  0.6206 -0.4347
17818TIP3   OH274868   5.253   1.723   5.872 -0.7425  0.6034  0.3495
17818TIP3    H174869   5.280   1.707   5.962 -0.9388  1.5045  0.5737
17818TIP3    H274870   5.162   1.751   5.878 -1.0419 -0.2177 -0.2125
17819TIP3   OH274871   1.159   6.423  15.027  0.1044  0.5364  0.6123
17819TIP3    H174872   1.163   6.519  15.023 -0.3212  0.5145 -0.5760
17819TIP3    H274873   1.067   6.402  15.007  0.3720 -0.1459  0.0843
17820TIP3   OH274874   1.142   0.228   4.660  0.3084  0.1096  0.0230
17820TIP3    H174875   1.060   0.259   4.623  0.5334  1.3774  0.5454
17820TIP3    H274876   1.118   0.150   4.711 -0.8287  1.3254  1.4044
17821TIP3   OH274877   4.113   6.558  12.818 -0.4007  0.2993 -0.2373
17821TIP3    H174878   4.083   6.584  12.730 -1.9029 -0.1375  0.1305
17821TIP3    H274879   4.136   6.640  12.861  0.7555  0.4826 -1.1767
17822TIP3   OH274880   1.673   6.143   0.206  0.2764  0.5142  0.6539
17822TIP3    H174881   1.763   6.156   0.176 -0.1197  1.3899 -0.1780
17822TIP3    H274882   1.642   6.068   0.156  1.1290 -0.9395  2.2645
17823TIP3   OH274883   6.636   2.829   2.902 -0.1952 -0.1675 -0.5449
17823TIP3    H174884   6.627   2.845   2.808 -1.5626  0.8404 -0.2477
17823TIP3    H274885   6.642   2.734   2.909 -0.3132 -0.2616 -1.6300
17824TIP3   OH274886   3.568   5.637  13.167 -0.2004  0.2595  0.8154
17824TIP3    H174887   3.642   5.587  13.202  1.4808  1.6803 -0.5892
17824TIP3    H274888   3.531   5.581  13.099  1.4935  0.7616 -0.5589
17825TIP3   OH274889   2.887   5.715  12.074  0.1114 -0.0192 -0.0664
17825TIP3    H174890   2.887   5.632  12.027 -0.2521  0.1540 -0.3750
17825TIP3    H274891   2.960   5.708  12.135 -2.1621 -2.0437  2.5276
17826TIP3   OH274892   3.611   5.290  15.158  0.4536  0.5069  0.2280
17826TIP3    H174893   3.704   5.277  15.175  0.3070 -0.0230  0.6500
17826TIP3    H274894   3.568   5.214  15.198 -0.3011  1.4975  1.3821
17827TIP3   OH274895   6.438   2.136   3.482 -0.1616  0.0450 -0.0545
17827TIP3    H174896   6.423   2.112   3.573 -1.9738 -1.3924 -0.6915
17827TIP3    H274897   6.520   2.092   3.458  0.2297  0.2948  0.8172
17828TIP3   OH274898   6.582   5.082  16.068 -0.1881 -0.1345 -0.1779
17828TIP3    H174899   6.569   5.159  16.124  1.2362 -0.9784  1.3672
17828TIP3    H274900   6.623   5.018  16.126 -0.6720 -1.7907 -1.6507
17829TIP3   OH274901   2.406   2.064  15.055  0.2638  0.0971  0.9608
17829TIP3    H174902   2.498   2.054  15.029 -0.8085  0.4167 -3.2688
17829TIP3    H274903   2.364   1.984  15.022 -1.4063  1.0503  0.7685
17830TIP3   OH274904   0.236   1.738   0.032 -0.4512 -0.3425  0.3122
17830TIP3    H174905   0.157   1.784   0.003 -1.2499 -1.8320  0.0449
17830TIP3    H274906   0.253   1.674  -0.037  0.9054 -0.1326  0.4432
17831TIP3   OH274907   5.533   5.620   0.594  0.2480 -0.3311 -0.1206
17831TIP3    H174908   5.575   5.538   0.569  1.1989  0.0742  0.0970
17831TIP3    H274909   5.471   5.639   0.523  2.0840  0.2213 -1.6232
17832TIP3   OH274910   5.197   1.680  13.251  0.1092 -0.0286  0.0702
17832TIP3    H174911   5.188   1.644  13.339 -1.7691  1.3967  0.5140
17832TIP3    H274912   5.109   1.714  13.230  1.4714  3.1666 -0.7746
17833TIP3   OH274913   6.411   2.169  17.020 -0.8186 -0.5725 -0.5946
17833TIP3    H174914   6.360   2.131  17.092 -0.8032 -0.9785 -0.7994
17833TIP3    H274915   6.402   2.107  16.948 -0.0196 -0.6606 -0.6303
17834TIP3   OH274916   3.546   3.794  16.694  0.0139  1.0336  0.2440
17834TIP3    H174917   3.470   3.833  16.736 -1.5713 -0.0053 -1.5847
17834TIP3    H274918   3.541   3.822  16.603  2.0091  1.1978  0.1435
17835TIP3   OH274919   5.234   5.733   1.595 -0.4703  0.0834 -0.0608
17835TIP3    H174920   5.173   5.772   1.532 -2.3294 -0.3507  1.4208
17835TIP3    H274921   5.188   5.657   1.630  1.4253 -0.9722  0.2007
17836TIP3   OH274922   4.222   2.869   2.912 -0.3377  0.4780 -0.0242
17836TIP3    H174923   4.137   2.907   2.890  0.6462  0.8825 -3.3938
17836TIP3    H274924   4.253   2.920   2.987 -1.8298  2.1847 -0.5414
17837TIP3   OH274925   3.289   3.635   1.743 -0.5235  0.2970 -0.9291
17837TIP3    H174926   3.220   3.697   1.717  0.0644  0.6804 -1.5994
17837TIP3    H274927   3.323   3.601   1.660  0.0060  0.0103 -0.5975
17838TIP3   OH274928   2.403   5.335  14.921  0.3516 -0.7979  0.0103
17838TIP3    H174929   2.437   5.276  14.854 -1.2064 -2.2964  0.5134
17838TIP3    H274930   2.474   5.341  14.985  0.2336 -2.7354  0.3409
17839TIP3   OH274931   3.353   5.823  15.202 -0.3428 -0.2452 -0.0752
17839TIP3    H174932   3.319   5.770  15.274  1.5553 -3.1714 -1.2174
17839TIP3    H274933   3.442   5.846  15.229 -0.7527  1.3794 -0.0949
17840TIP3   OH274934   4.332   2.472   6.594 -0.3487  0.5047 -0.1837
17840TIP3    H174935   4.387   2.541   6.557  1.5842 -0.0205  1.6377
17840TIP3    H274936   4.323   2.495   6.686  0.3549 -1.6791  0.4554
17841TIP3   OH274937   1.953   2.985  12.303 -0.3977  0.6864 -0.0129
17841TIP3    H174938   1.857   2.980  12.307 -0.3778  1.2062  1.2600
17841TIP3    H274939   1.980   2.900  12.270 -1.1983 -0.1215  1.3627
17842TIP3   OH274940   5.811   5.525  12.721 -0.1903  0.0973 -0.5123
17842TIP3    H174941   5.763   5.443  12.706 -0.2017  0.1246 -0.6242
17842TIP3    H274942   5.829   5.559  12.633 -1.0292  0.7067 -0.4552
17843TIP3   OH274943   5.744   0.713  16.711  0.3330 -0.4233  0.3249
17843TIP3    H174944   5.752   0.624  16.676 -1.7801 -0.0610 -1.2235
17843TIP3    H274945   5.791   0.768  16.649 -1.5830 -0.0417 -0.8462
17844TIP3   OH274946   0.812   4.593  16.009  0.3687  0.2058 -0.1108
17844TIP3    H174947   0.804   4.660  15.942  0.0207 -0.2915 -0.5631
17844TIP3    H274948   0.855   4.520  15.965  0.9388  0.2078  0.4387
17845TIP3   OH274949   2.539   0.466   4.717  0.0655 -0.2464 -0.2512
17845TIP3    H174950   2.629   0.483   4.747 -0.2626  0.3325  0.4301
17845TIP3    H274951   2.518   0.540   4.660  0.3434 -0.8521 -1.1435
17846TIP3   OH274952   3.984   6.337   5.500 -0.4156  0.4844  0.3592
17846TIP3    H174953   3.979   6.341   5.405 -0.8846  0.4588  0.3826
17846TIP3    H274954   3.928   6.264   5.525  0.6664 -0.2773  0.5796
17847TIP3   OH274955   5.187   3.182   4.484 -0.2051 -0.1142  0.2919
17847TIP3    H174956   5.159   3.108   4.430  0.3833 -0.2182  0.1253
17847TIP3    H274957   5.143   3.258   4.445 -1.9665 -0.5678  1.3497
17848TIP3   OH274958   6.610   4.973   0.780 -0.9204  0.1427 -0.4872
17848TIP3    H174959   6.619   5.064   0.751 -0.4572  1.1490  2.5420
17848TIP3    H274960   6.693   4.932   0.757 -1.0311  0.5557 -1.6460
17849TIP3   OH274961   4.308   4.663   5.047  0.0427 -0.5278 -0.1578
17849TIP3    H174962   4.297   4.571   5.073 -1.8817 -0.1004  0.6394
17849TIP3    H274963   4.345   4.705   5.124 -0.8443 -0.2745  0.1375
17850TIP3   OH274964   5.601   2.259  11.566  0.3061 -0.0532  0.0563
17850TIP3    H174965   5.567   2.204  11.496  1.1642 -1.1987  0.5249
17850TIP3    H274966   5.540   2.247  11.638 -1.0218  1.7496 -0.7462
17851TIP3   OH274967   3.184   3.801  13.290  0.1972  0.0788  0.1654
17851TIP3    H174968   3.275   3.813  13.263 -0.2430  0.6768 -1.1229
17851TIP3    H274969   3.186   3.805  13.386  1.5384 -0.0432  0.1485
17852TIP3   OH274970   0.293   2.669  12.805 -0.3630  0.0422 -0.1965
17852TIP3    H174971   0.287   2.764  12.815  2.2923  0.2803 -0.3704
17852TIP3    H274972   0.360   2.642  12.869  0.9423 -1.3009 -2.0564
17853TIP3   OH274973   1.122   5.174   3.010 -0.5061  0.1104 -0.4757
17853TIP3    H174974   1.165   5.260   3.003  0.6854 -0.5768 -2.0264
17853TIP3    H274975   1.090   5.157   2.921  0.3585 -1.5975 -0.4750
17854TIP3   OH274976   0.469   1.553  12.040  0.3745  0.1261 -0.0722
17854TIP3    H174977   0.486   1.459  12.051 -0.5773  0.0621  1.0527
17854TIP3    H274978   0.541   1.596  12.086  0.8935 -0.0612 -0.7189
17855TIP3   OH274979   1.684   3.076  15.570 -0.0395 -0.0053 -0.5315
17855TIP3    H174980   1.618   3.062  15.502 -0.8760  1.9192 -0.1624
17855TIP3    H274981   1.707   2.988  15.600 -0.2654 -0.8321 -2.7109
17856TIP3   OH274982   1.731   0.912   4.816  0.0286  0.0767 -0.0036
17856TIP3    H174983   1.766   0.961   4.742  2.2028 -0.3565  0.7063
17856TIP3    H274984   1.714   0.825   4.781 -0.1159  0.2150 -0.2843
17857TIP3   OH274985   3.959   1.871  15.715 -0.1040  0.2241  0.0483
17857TIP3    H174986   3.896   1.933  15.678  0.3075  0.2662 -0.6032
17857TIP3    H274987   3.915   1.834  15.791 -1.4019 -0.6347 -1.0857
17858TIP3   OH274988   3.367   4.080  13.261 -0.6183  0.1522 -1.0707
17858TIP3    H174989   3.416   4.161  13.248  1.9149 -1.2631 -0.5521
17858TIP3    H274990   3.301   4.081  13.192 -0.3056  2.3923 -1.4001
17859TIP3   OH274991   6.445   4.638  12.763  0.4882  0.4977  0.1925
17859TIP3    H174992   6.470   4.551  12.796 -0.8367 -0.5672 -1.5658
17859TIP3    H274993   6.353   4.647  12.785  0.2839  0.9093 -0.8035
17860TIP3   OH274994   2.486   5.912   3.521  0.0844 -0.3592  0.0647
17860TIP3    H174995   2.500   5.821   3.545 -0.9146 -0.7044 -0.6376
17860TIP3    H274996   2.423   5.944   3.585  0.1058 -0.2807  0.0461
17861TIP3   OH274997   0.765   5.744  13.441  0.3281 -0.4996  0.2397
17861TIP3    H174998   0.790   5.810  13.375 -1.1539 -0.6741 -0.5166
17861TIP3    H274999   0.831   5.675  13.431 -0.7337 -1.2465 -2.1613
17862TIP3   OH275000   3.635   1.676   0.002 -0.1664  0.1520 -0.5764
17862TIP3    H175001   3.568   1.710  -0.058 -0.4156  0.9382  0.1380
17862TIP3    H275002   3.684   1.612  -0.050 -0.5643  0.6156 -1.5259
17863TIP3   OH275003   5.913   3.503  12.623 -0.6035 -0.0841 -0.0653
17863TIP3    H175004   5.984   3.566  12.611 -1.2537  0.4753 -1.1900
17863TIP3    H275005   5.952   3.429  12.669  1.0516 -0.3989 -1.9328
17864TIP3   OH275006   3.060   2.134  16.567  0.0575 -0.0877 -0.2647
17864TIP3    H175007   3.039   2.181  16.487 -1.6217 -0.0223  0.2031
17864TIP3    H275008   3.021   2.186  16.637  0.0662 -1.0329  0.4529
17865TIP3   OH275009   5.707   2.974   0.396  0.0373 -0.2652  0.8802
17865TIP3    H175010   5.783   2.999   0.448  0.2985 -0.2121  0.4737
17865TIP3    H275011   5.687   2.885   0.423 -0.9936  0.4149  2.4568
17866TIP3   OH275012   4.350   0.509  16.506 -0.3052 -0.0946 -0.6142
17866TIP3    H175013   4.277   0.466  16.550 -0.5378  0.8214 -0.0980
17866TIP3    H275014   4.408   0.537  16.578  0.2247 -0.2339 -0.9855
17867TIP3   OH275015   3.602   2.103  15.394  0.4597 -1.1190  0.1389
17867TIP3    H175016   3.614   2.035  15.327  1.4448 -1.0863  0.2709
17867TIP3    H275017   3.529   2.156  15.361  1.1943 -0.8613 -1.1211
17868TIP3   OH275018   2.369   6.433  14.489 -0.1839 -0.3320 -0.1010
17868TIP3    H175019   2.403   6.345  14.507 -0.9495 -0.6787 -0.3152
17868TIP3    H275020   2.345   6.467  14.575  0.0954 -0.3404 -0.0203
17869TIP3   OH275021   0.611   3.971   1.145 -0.0330 -0.2982  0.0530
17869TIP3    H175022   0.671   3.904   1.177 -0.0676 -0.8907 -1.1021
17869TIP3    H275023   0.624   3.971   1.050 -2.4888 -1.0473 -0.3044
17870TIP3   OH275024   6.646   4.118   4.380  0.2716  0.1230  1.0491
17870TIP3    H175025   6.616   4.205   4.352 -0.8987 -1.1997 -1.9902
17870TIP3    H275026   6.656   4.126   4.475 -4.6803  2.1215  1.5197
17871TIP3   OH275027   3.136   5.755   1.307  0.1905 -0.3325 -0.2076
17871TIP3    H175028   3.148   5.709   1.224  1.7089 -0.0495 -0.1677
17871TIP3    H275029   3.212   5.729   1.360 -0.2795  0.2140  0.7525
17872TIP3   OH275030   6.311   6.447   5.210 -0.7984 -0.1354 -0.1625
17872TIP3    H175031   6.334   6.358   5.238  1.3147 -0.2133 -2.0393
17872TIP3    H275032   6.349   6.504   5.277  0.1740 -0.5213 -0.3917
17873TIP3   OH275033   3.937   5.321  15.973 -0.3424  0.1247 -0.2592
17873TIP3    H175034   3.931   5.278  16.058 -0.0684 -0.0412 -0.3220
17873TIP3    H275035   4.030   5.312  15.949  0.2556  2.8433  0.8205
17874TIP3   OH275036   5.990   5.817   0.878 -0.2241  0.3735  0.0575
17874TIP3    H175037   5.982   5.860   0.963  0.7315 -1.5375  1.1456
17874TIP3    H275038   5.937   5.737   0.886 -0.0756  0.1468 -1.1095
17875TIP3   OH275039   4.234   5.122  16.618  0.1325  0.0062  0.2472
17875TIP3    H175040   4.175   5.189  16.653 -1.3376  0.0671 -2.1604
17875TIP3    H275041   4.205   5.111  16.527  2.6015 -1.4092 -0.4021
17876TIP3   OH275042   3.358   2.076  10.438  0.1166  0.5219  0.2715
17876TIP3    H175043   3.331   2.151  10.386  1.0483  1.2829  0.8554
17876TIP3    H275044   3.375   2.112  10.526 -0.5200 -0.5652  0.8504
17877TIP3   OH275045   0.733   1.075  14.672 -0.3260  0.7457 -0.1007
17877TIP3    H175046   0.765   1.036  14.590 -0.8530  1.3455 -0.5948
17877TIP3    H275047   0.672   1.143  14.644  0.9058  2.2144  0.7306
17878TIP3   OH275048   0.114   6.272   0.420  0.2306 -0.1019 -0.1755
17878TIP3    H175049   0.194   6.324   0.415 -0.0626  0.2932 -0.6928
17878TIP3    H275050   0.145   6.181   0.422  0.7923  0.1104  1.7498
17879TIP3   OH275051   3.969   0.969  15.741  0.2616 -0.5141  0.0705
17879TIP3    H175052   4.034   0.902  15.723 -0.9340 -1.7969  0.4617
17879TIP3    H275053   3.971   1.026  15.664 -0.5154 -2.4551 -1.4344
17880TIP3   OH275054   4.219   2.657  12.602  0.6204  0.0355  0.0203
17880TIP3    H175055   4.288   2.719  12.628  1.6162 -0.0381 -2.3181
17880TIP3    H275056   4.137   2.704  12.620  1.2506  0.2151  2.6176
17881TIP3   OH275057   4.532   5.538  13.224  0.1378  0.3665 -0.0125
17881TIP3    H175058   4.612   5.588  13.216  0.0197  0.5838  0.1751
17881TIP3    H275059   4.543   5.465  13.162  0.3839  0.5178 -0.1469
17882TIP3   OH275060   6.349   1.584  14.300 -0.2427  0.3143 -0.1325
17882TIP3    H175061   6.293   1.637  14.356  0.8736  0.8844  0.4783
17882TIP3    H275062   6.372   1.508  14.354  0.2838  0.5278 -0.0514
17883TIP3   OH275063   2.123   2.363  10.757  0.5165  0.0174  0.8260
17883TIP3    H175064   2.060   2.293  10.774  0.3178 -0.1185 -0.4481
17883TIP3    H275065   2.208   2.319  10.753  0.7102  0.2019  2.5510
17884TIP3   OH275066   1.466   3.827  12.050 -0.3990 -0.7637  0.0055
17884TIP3    H175067   1.555   3.815  12.016 -0.3700 -0.0453 -0.1948
17884TIP3    H275068   1.476   3.816  12.145  0.1393  0.5350  0.1131
17885TIP3   OH275069   2.226   2.042  14.383  0.1891 -0.3312 -0.2768
17885TIP3    H175070   2.215   2.105  14.454  0.1228  0.2579 -0.8068
17885TIP3    H275071   2.150   1.985  14.391 -0.7785  0.8386 -0.9864
17886TIP3   OH275072   4.243   2.710  10.826  0.0409 -0.1861 -0.0068
17886TIP3    H175073   4.225   2.799  10.797  0.1028 -0.1124  0.1759
17886TIP3    H275074   4.266   2.662  10.747 -1.0771 -0.3151 -0.2607
17887TIP3   OH275075   3.063   0.600  11.294 -0.2981 -0.8130 -0.6159
17887TIP3    H175076   2.997   0.544  11.335  0.0112 -3.1741 -3.1589
17887TIP3    H275077   3.036   0.606  11.202  0.8948  1.4427 -0.8521
17888TIP3   OH275078   2.800   6.297   3.532 -0.1267 -0.0898  0.1711
17888TIP3    H175079   2.887   6.266   3.559 -0.2028 -1.2779 -0.9187
17888TIP3    H275080   2.802   6.391   3.550  1.9221  0.1757 -1.2083
17889TIP3   OH275081   1.247   5.507  14.795  0.5806 -0.0311 -0.1951
17889TIP3    H175082   1.152   5.513  14.810  0.4508 -3.0451  0.5741
17889TIP3    H275083   1.279   5.596  14.808 -1.9662  0.7755  0.9436
17890TIP3   OH275084   0.219   4.144   5.544  0.0044  0.4472  0.5532
17890TIP3    H175085   0.273   4.078   5.587 -1.0371 -0.6585  0.2218
17890TIP3    H275086   0.142   4.152   5.599 -0.6481  0.1286 -0.2937
17891TIP3   OH275087   3.727   4.660  14.858  0.1622 -0.3547 -0.5280
17891TIP3    H175088   3.768   4.742  14.831  0.4558 -0.0358  0.8323
17891TIP3    H275089   3.761   4.645  14.947 -0.9497 -1.2399 -0.2466
17892TIP3   OH275090   1.880   6.403   0.132  0.0122  0.2294 -0.4100
17892TIP3    H175091   1.788   6.392   0.108  0.1830 -1.6938 -0.2337
17892TIP3    H275092   1.879   6.421   0.226 -0.1489 -0.6944 -0.2273
17893TIP3   OH275093   2.122   2.425  13.224 -0.6600 -0.0884  0.0131
17893TIP3    H175094   2.209   2.459  13.244 -0.6389 -1.1508  1.8926
17893TIP3    H275095   2.137   2.358  13.157 -0.1242  0.1913 -0.1501
17894TIP3   OH275096   4.658   6.693  15.343  0.7558 -1.1943 -0.4566
17894TIP3    H175097   4.730   6.740  15.299 -1.9270  2.1104 -1.5342
17894TIP3    H275098   4.683   6.694  15.436  0.4547  3.2033 -0.3216
17895TIP3   OH275099   3.595   5.316   2.733  0.1066  0.4712  0.3269
17895TIP3    H175100   3.656   5.271   2.792  0.0249 -0.8795 -0.5931
17895TIP3    H275101   3.515   5.327   2.785  1.0422  2.0765  1.4788
17896TIP3   OH275102   3.551   0.578  11.034  0.6558 -0.1640 -0.5381
17896TIP3    H175103   3.594   0.652  11.076  1.6155 -1.2626  0.4713
17896TIP3    H275104   3.531   0.608  10.946  0.0029  1.6740  0.2047
17897TIP3   OH275105   4.510   6.756   2.618 -0.0294  0.6610 -0.0983
17897TIP3    H175106   4.512   6.759   2.522  1.6710 -1.5758 -0.1917
17897TIP3    H275107   4.445   6.688   2.638 -0.1299  0.8829  0.3232
17898TIP3   OH275108   6.478   0.659   2.481  0.2376 -0.1188 -0.0356
17898TIP3    H175109   6.399   0.651   2.533  0.2773  2.2282  0.4285
17898TIP3    H275110   6.453   0.629   2.393 -0.6397 -1.1492  0.5632
17899TIP3   OH275111   5.252   6.537  11.791 -0.2379  0.4410 -0.4442
17899TIP3    H175112   5.224   6.611  11.844 -0.8693 -0.0891 -0.0154
17899TIP3    H275113   5.187   6.531  11.721 -0.5051 -0.0274 -0.1657
17900TIP3   OH275114   0.073   3.970  11.220  0.2466  0.4301  0.2440
17900TIP3    H175115   0.016   3.899  11.250  0.1502  0.5699  0.3894
17900TIP3    H275116   0.013   4.037  11.187  0.3279  0.5654  0.3705
17901TIP3   OH275117   0.552   1.685  12.673  0.1663  0.1583 -0.2975
17901TIP3    H175118   0.600   1.617  12.626 -0.0714 -0.3989  0.2606
17901TIP3    H275119   0.620   1.741  12.711  0.3597  0.3623 -0.9324
17902TIP3   OH275120   5.294   5.197   3.208  0.1568 -0.3181 -0.4619
17902TIP3    H175121   5.288   5.201   3.304 -2.7714 -4.1015 -0.3694
17902TIP3    H275122   5.259   5.281   3.179 -1.0494  0.0033  1.7670
17903TIP3   OH275123   2.525   2.623   5.244 -0.1133 -0.3233 -0.0699
17903TIP3    H175124   2.471   2.680   5.299 -0.3790 -0.1946 -0.4656
17903TIP3    H275125   2.503   2.647   5.154  1.3379  0.4295 -0.2447
17904TIP3   OH275126   2.273   6.682   2.472  0.3988 -0.0928  0.1524
17904TIP3    H175127   2.355   6.709   2.430  0.3692 -0.7633 -0.3550
17904TIP3    H275128   2.255   6.595   2.435  0.6660 -0.9515  1.9729
17905TIP3   OH275129   5.493   1.527   4.246 -0.0143 -0.0778  0.1358
17905TIP3    H175130   5.540   1.444   4.258  0.1160 -0.0548 -0.2039
17905TIP3    H275131   5.529   1.585   4.312 -1.6368 -0.9407  1.8375
17906TIP3   OH275132   6.522   3.482  13.760  0.0529 -0.2468  0.1899
17906TIP3    H175133   6.528   3.499  13.854  0.4885 -0.1816  0.1537
17906TIP3    H275134   6.609   3.447  13.737 -0.7979 -2.5053  0.2636
17907TIP3   OH275135   0.744   2.155  13.184  0.0182 -0.4720  0.0793
17907TIP3    H175136   0.829   2.199  13.192 -0.5246  0.2952  1.6355
17907TIP3    H275137   0.724   2.161  13.090  1.0757  0.4656 -0.1082
17908TIP3   OH275138   2.244   4.425   2.463 -0.1498 -0.0291 -0.7439
17908TIP3    H175139   2.295   4.487   2.515  0.3379 -0.1749 -1.0392
17908TIP3    H275140   2.179   4.478   2.418 -0.8097  0.0504  0.2954
17909TIP3   OH275141   0.219   5.339   2.944 -0.3850  0.2035 -0.3259
17909TIP3    H175142   0.144   5.290   2.979 -0.2894  0.7688  0.6733
17909TIP3    H275143   0.244   5.398   3.014  1.2164 -0.2071 -0.5431
17910TIP3   OH275144   3.420   1.195  15.843  0.5534 -0.1845  0.6964
17910TIP3    H175145   3.447   1.282  15.811 -0.0686 -0.4486 -0.5475
17910TIP3    H275146   3.329   1.187  15.816  0.9075 -1.6474 -0.0726
17911TIP3   OH275147   4.145   3.686   2.037  0.4334  0.6226 -0.3110
17911TIP3    H175148   4.197   3.708   1.960  0.6146  0.5563 -0.2090
17911TIP3    H275149   4.206   3.692   2.110  0.7108 -1.0130 -0.3739
17912TIP3   OH275150   4.934   1.764  12.130 -0.2746 -0.2102 -0.7587
17912TIP3    H175151   4.859   1.744  12.186 -0.2055 -1.4370 -1.0924
17912TIP3    H275152   4.924   1.857  12.108 -1.2010 -0.1433 -0.0717
17913TIP3   OH275153   5.006   3.389  12.406  0.1609 -0.1102  0.1625
17913TIP3    H175154   5.060   3.327  12.454  1.0731  0.0651 -0.6254
17913TIP3    H275155   5.058   3.413  12.329 -0.4516  1.1311  0.1142
17914TIP3   OH275156   5.485   2.604   1.528  0.4965  0.5029 -0.4072
17914TIP3    H175157   5.459   2.517   1.559 -0.2764 -0.0237 -2.4853
17914TIP3    H275158   5.468   2.662   1.603 -0.8245 -0.8155  0.3431
17915TIP3   OH275159   1.419   4.299   5.070 -0.7213  0.2137 -0.1399
17915TIP3    H175160   1.368   4.220   5.088 -1.1178  0.0670 -1.8563
17915TIP3    H275161   1.360   4.355   5.020 -0.1551  1.2542  0.3401
17916TIP3   OH275162   4.411   5.780   2.538 -0.0936  0.7089 -0.2738
17916TIP3    H175163   4.457   5.848   2.489  1.8306 -0.3499  0.0407
17916TIP3    H275164   4.476   5.712   2.553 -1.0558  0.3055  2.4256
17917TIP3   OH275165   4.708   5.401   1.828  0.3382  0.5272  0.3133
17917TIP3    H175166   4.672   5.485   1.801  1.5635  0.1791 -2.5054
17917TIP3    H275167   4.634   5.355   1.868 -0.9862  1.8944 -0.5262
17918TIP3   OH275168   3.066   6.029  14.219  0.1597  0.0397 -0.5366
17918TIP3    H175169   3.126   5.961  14.190 -0.7426 -1.5643  1.2593
17918TIP3    H275170   3.116   6.082  14.281  1.0475  1.4365 -2.3823
17919TIP3   OH275171   3.207   3.066  14.225  0.5266 -0.1450 -0.9406
17919TIP3    H175172   3.296   3.046  14.195  0.9574  0.5429 -0.1286
17919TIP3    H275173   3.167   2.980  14.239  1.3064 -0.4630 -0.5999
17920TIP3   OH275174   1.607   0.124   4.417  0.0880  0.0441  0.1840
17920TIP3    H175175   1.556   0.166   4.487  0.3529  2.3543 -0.9792
17920TIP3    H275176   1.691   0.171   4.417  0.3929 -0.4910 -1.1540
17921TIP3   OH275177   3.474   0.062   3.396  0.5898 -0.2182 -0.6768
17921TIP3    H175178   3.490   0.142   3.446  2.1338 -0.9773  0.1230
17921TIP3    H275179   3.426   0.006   3.457  1.6094 -0.7741 -0.3600
17922TIP3   OH275180   1.453   3.967  13.777  0.5385 -0.1520 -0.4859
17922TIP3    H175181   1.390   3.924  13.834 -0.2954 -0.6775 -1.7823
17922TIP3    H275182   1.479   4.046  13.825 -1.1368  0.1067  0.0346
17923TIP3   OH275183   0.332   0.131  12.899 -0.4727  0.7627 -0.1605
17923TIP3    H175184   0.378   0.213  12.920  3.3008 -1.3856  0.4273
17923TIP3    H275185   0.298   0.146  12.811  3.8988  1.5645 -1.8682
17924TIP3   OH275186   4.158   6.677   5.778 -0.2210  0.7866  0.3447
17924TIP3    H175187   4.221   6.684   5.706  0.3924 -0.7147  0.7333
17924TIP3    H275188   4.198   6.728   5.849  0.9987 -0.9219  0.8950
17925TIP3   OH275189   5.481   4.271   3.146 -0.2802 -0.9168 -0.4642
17925TIP3    H175190   5.420   4.322   3.200  1.0776 -0.3415  0.5654
17925TIP3    H275191   5.471   4.182   3.178 -2.0154 -1.1741 -1.6611
17926TIP3   OH275192   4.106   6.012  13.605  0.6874 -0.1867 -0.6525
17926TIP3    H175193   4.108   5.988  13.512  1.0163 -1.7878 -0.2519
17926TIP3    H275194   4.134   5.933  13.650 -1.6741 -0.1703  0.9498
17927TIP3   OH275195   1.593   0.910  14.299 -0.3082 -0.3597  0.3230
17927TIP3    H175196   1.663   0.956  14.345  0.2642 -0.7528 -0.1526
17927TIP3    H275197   1.587   0.825  14.342  1.2094 -1.2811 -1.2532
17928TIP3   OH275198   1.734   2.088  15.458  0.3587 -0.1563  0.8400
17928TIP3    H175199   1.742   2.087  15.554  3.0300  1.5172  0.6778
17928TIP3    H275200   1.740   2.181  15.435  1.8172 -0.7240 -1.1265
17929TIP3   OH275201   0.252   0.385   4.496 -0.4048  0.1947  0.1921
17929TIP3    H175202   0.312   0.364   4.424 -0.4703  0.3857  0.0821
17929TIP3    H275203   0.169   0.405   4.453 -0.6675 -0.5008  0.3736
17930TIP3   OH275204   3.026   1.867  12.484 -0.3579 -0.7842 -0.4758
17930TIP3    H175205   3.045   1.833  12.396  2.6804  0.6502 -0.4252
17930TIP3    H275206   3.104   1.916  12.508 -3.0323  2.9049  1.1085
17931TIP3   OH275207   2.643   1.074   0.056  0.1831 -0.1125  0.1829
17931TIP3    H175208   2.583   1.048   0.126  1.5997 -1.8365  0.8100
17931TIP3    H275209   2.686   1.153   0.088 -0.2888 -0.0242  0.5981
17932TIP3   OH275210   4.967   2.401  15.784 -0.0587 -0.1973  0.9374
17932TIP3    H175211   5.056   2.368  15.799  0.6686  1.4729  0.4252
17932TIP3    H275212   4.962   2.417  15.690 -0.5038  0.8133  1.1219
17933TIP3   OH275213   5.793   3.875   3.058 -0.2582 -0.4013  0.5341
17933TIP3    H175214   5.736   3.802   3.032 -0.1653  0.0163 -0.9023
17933TIP3    H275215   5.780   3.940   2.990  0.1496  0.6715  1.4744
17934TIP3   OH275216   5.434   4.707   1.569 -0.0346 -0.1972  0.0980
17934TIP3    H175217   5.495   4.658   1.514  3.1534  3.8118 -0.1002
17934TIP3    H275218   5.464   4.692   1.658  1.6773  2.2554 -0.0361
17935TIP3   OH275219   5.304   3.157   2.677  0.0951 -0.0743  0.3730
17935TIP3    H175220   5.392   3.119   2.666 -0.1143 -0.4007 -0.2045
17935TIP3    H275221   5.249   3.082   2.700  0.2446  0.3654  2.2531
17936TIP3   OH275222   1.542   3.156   3.756  0.4065  0.6380 -0.0265
17936TIP3    H175223   1.472   3.162   3.821  1.6270  0.9671  1.2699
17936TIP3    H275224   1.536   3.066   3.723 -0.5359  0.6214  0.1931
17937TIP3   OH275225   6.592   2.295   4.640  0.0257 -0.0951 -0.3337
17937TIP3    H175226   6.610   2.298   4.734  0.6649 -1.5727 -0.3963
17937TIP3    H275227   6.579   2.202   4.621 -1.9399  0.3540 -1.3812
17938TIP3   OH275228   1.237   0.061  14.910  0.2160 -0.0295  0.1535
17938TIP3    H175229   1.242  -0.032  14.887 -0.5670 -0.1132  0.3266
17938TIP3    H275230   1.159   0.092  14.866 -0.1563  0.2837  1.0405
17939TIP3   OH275231   5.922   3.715   5.978  0.5155 -0.1208 -0.0143
17939TIP3    H175232   5.957   3.627   5.960 -0.6564 -0.6445  0.1932
17939TIP3    H275233   5.863   3.732   5.905  1.5621  0.9596 -0.6189
17940TIP3   OH275234   4.412   2.477  11.193  0.2204  0.1572 -0.0092
17940TIP3    H175235   4.403   2.488  11.287 -3.4952 -0.2088 -0.2229
17940TIP3    H275236   4.406   2.382  11.180  0.2661  0.2372 -0.6309
17941TIP3   OH275237   5.303   1.061   4.028  0.0766  0.0512  0.8079
17941TIP3    H175238   5.217   1.044   3.991  0.9971 -1.9536 -0.4450
17941TIP3    H275239   5.317   1.155   4.014 -1.0418 -0.0158 -0.8023
17942TIP3   OH275240   4.409   3.663   5.125  0.2828 -0.1188  0.5050
17942TIP3    H175241   4.411   3.689   5.033 -0.8825 -2.4302 -0.2327
17942TIP3    H275242   4.456   3.579   5.127  0.0140 -0.2501  1.9582
17943TIP3   OH275243   4.978   2.351  14.477  0.1020 -0.0000 -0.5482
17943TIP3    H175244   4.948   2.441  14.471  1.3596  0.5210  0.8438
17943TIP3    H275245   4.898   2.299  14.482 -0.6419  1.3831  3.3065
17944TIP3   OH275246   2.814   6.505  16.819 -0.3624  0.0143 -0.3671
17944TIP3    H175247   2.887   6.535  16.873  0.4775  0.4926 -1.7231
17944TIP3    H275248   2.779   6.429  16.865  0.1692  0.5640  0.9634
17945TIP3   OH275249   6.273   3.455  12.512 -0.3094 -0.3176  0.4682
17945TIP3    H175250   6.296   3.523  12.449  0.4185 -1.3295 -0.3869
17945TIP3    H275251   6.242   3.502  12.589 -1.4821  0.9369 -0.7451
17946TIP3   OH275252   5.526   6.368   5.412  0.5305 -0.0119  0.1729
17946TIP3    H175253   5.552   6.403   5.497 -0.4074  1.7330 -0.2414
17946TIP3    H275254   5.604   6.323   5.380  1.6610  1.3990  0.8801
17947TIP3   OH275255   3.794   1.522   1.530 -0.2980  0.5362  0.0542
17947TIP3    H175256   3.811   1.493   1.441  2.9005  1.3851  0.3034
17947TIP3    H275257   3.834   1.454   1.585 -1.4637  0.4674  0.8325
17948TIP3   OH275258   6.439   0.845  12.024  0.0226 -0.1266 -0.3210
17948TIP3    H175259   6.404   0.784  11.960 -0.6806  2.7379 -2.7736
17948TIP3    H275260   6.422   0.804  12.109 -0.7559 -3.0985 -1.8726
17949TIP3   OH275261   6.500   5.168   0.077  0.3714 -0.1293  0.3172
17949TIP3    H175262   6.572   5.190   0.136  0.6715 -0.5489  0.1079
17949TIP3    H275263   6.520   5.079   0.046  0.0038 -0.0719 -0.0942
17950TIP3   OH275264   3.304   0.980  11.144 -0.2579  0.5106  0.1781
17950TIP3    H175265   3.312   0.930  11.225  3.1939  0.7636  0.0915
17950TIP3    H275266   3.295   0.914  11.075  1.8766  0.0394  0.3065
17951TIP3   OH275267   5.824   0.451   0.484 -0.0147 -0.1533  0.5368
17951TIP3    H175268   5.768   0.379   0.455 -1.3210  0.1980  2.0840
17951TIP3    H275269   5.772   0.496   0.551  1.1792  1.6221  0.3041
17952TIP3   OH275270   6.237   1.297   2.601 -0.0541 -0.1638 -0.1258
17952TIP3    H175271   6.225   1.318   2.694  0.6691  1.0773 -0.3033
17952TIP3    H275272   6.165   1.341   2.557 -0.0901 -0.3123 -0.2187
17953TIP3   OH275273   5.299   2.915  11.096  0.1171 -0.4977 -0.1891
17953TIP3    H175274   5.243   2.991  11.113 -0.6803 -1.2545  0.6802
17953TIP3    H275275   5.243   2.854  11.048  0.9203 -0.3220 -1.3682
17954TIP3   OH275276   5.946   5.386  15.841 -0.2816  0.5054 -0.0961
17954TIP3    H175277   5.869   5.442  15.832  0.8899  1.6648 -3.9369
17954TIP3    H275278   5.918   5.301  15.806 -0.4006  0.3367  0.4066
17955TIP3   OH275279   0.748   3.149   0.079  0.6937  0.0086 -0.6595
17955TIP3    H175280   0.822   3.153   0.139 -0.0389 -0.8987  0.3185
17955TIP3    H275281   0.787   3.123  -0.005  1.4401 -0.7687 -0.0792
17956TIP3   OH275282   6.170   6.464  15.721 -0.3634  0.1162  0.6454
17956TIP3    H175283   6.262   6.441  15.708 -0.4237  0.1903  0.0878
17956TIP3    H275284   6.132   6.387  15.763 -0.0215  0.1330  0.9928
17957TIP3   OH275285   0.571   6.674   3.188  0.1788  0.0694  0.4803
17957TIP3    H175286   0.545   6.595   3.142 -0.2355 -1.0243  2.5184
17957TIP3    H275287   0.660   6.657   3.217 -0.3047 -0.1113  1.8850
17958TIP3   OH275288   4.082   3.673   4.464 -0.1006 -0.5090  0.1266
17958TIP3    H175289   4.015   3.664   4.533 -1.4119 -2.0498 -1.2865
17958TIP3    H275290   4.086   3.766   4.446 -1.1313 -0.2918  0.9582
17959TIP3   OH275291   2.988   0.898   0.796 -0.1680  0.0998 -0.0242
17959TIP3    H175292   2.893   0.910   0.789 -0.2320 -0.1555  0.3975
17959TIP3    H275293   3.005   0.901   0.890  0.4042  1.4032 -0.1662
17960TIP3   OH275294   5.602   1.859  14.100 -0.0847  0.1923  0.2875
17960TIP3    H175295   5.649   1.883  14.180 -1.0718  0.8520  0.6664
17960TIP3    H275296   5.634   1.921  14.034 -1.3937  1.4790  0.8626
17961TIP3   OH275297   3.638   1.353  15.337  0.5452 -0.1034  0.3878
17961TIP3    H175298   3.670   1.409  15.266  1.4058  0.1672  0.9781
17961TIP3    H275299   3.676   1.267  15.319 -1.2292 -0.6526 -0.8266
17962TIP3   OH275300   0.144   0.487   6.163 -0.0111 -0.4015 -0.5763
17962TIP3    H175301   0.207   0.558   6.151  0.8845 -0.9814  0.5475
17962TIP3    H275302   0.060   0.531   6.176  0.6621  0.4965  0.9142
17963TIP3   OH275303   3.315   2.981   5.371 -0.2575  0.1332  0.1069
17963TIP3    H175304   3.293   3.002   5.461  1.4134 -2.0848  1.0772
17963TIP3    H275305   3.284   2.891   5.358  1.7570 -0.4763 -0.7079
17964TIP3   OH275306   2.237   3.493   4.758  0.0124  0.5376  0.0025
17964TIP3    H175307   2.202   3.471   4.844  0.4887  1.1892  0.3656
17964TIP3    H275308   2.161   3.491   4.700  0.0344 -2.1372 -0.0123
17965TIP3   OH275309   2.322   5.014  14.319  0.3308 -0.2401 -0.1668
17965TIP3    H175310   2.278   4.957  14.256  0.6148 -0.1935 -0.4099
17965TIP3    H275311   2.279   5.099  14.308 -0.4630 -0.5442  0.5804
17966TIP3   OH275312   3.780   4.001  15.433  0.1024 -0.1193 -0.3556
17966TIP3    H175313   3.807   4.064  15.365  1.1708 -1.1780 -0.9352
17966TIP3    H275314   3.730   4.053  15.495 -1.0454  0.8595 -2.0418
17967TIP3   OH275315   0.457   5.241   1.939 -0.3903 -0.2069  0.6049
17967TIP3    H175316   0.500   5.322   1.914 -0.5561 -0.8933 -2.1197
17967TIP3    H275317   0.527   5.176   1.941 -0.6743 -0.5342  0.0775
17968TIP3   OH275318   2.273   4.735  11.636  0.0143 -0.0282 -0.0070
17968TIP3    H175319   2.305   4.819  11.670 -0.5716 -0.1407  0.8304
17968TIP3    H275320   2.180   4.734  11.660 -0.8775  0.6800 -3.1389
17969TIP3   OH275321   3.104   5.203  11.034 -0.3271 -0.5819 -0.6744
17969TIP3    H175322   3.080   5.201  11.127  2.6955 -0.2235  0.1950
17969TIP3    H275323   3.047   5.140  10.992 -1.5949 -0.9014  1.4865
17970TIP3   OH275324   4.935   6.183  16.341 -0.0301 -0.2410  0.3791
17970TIP3    H175325   4.880   6.260  16.325 -2.7163 -1.4882  3.0120
17970TIP3    H275326   5.025   6.214  16.332 -1.1031  2.6366 -0.8395
17971TIP3   OH275327   0.476   1.220   0.614 -0.0724 -0.3100 -0.5761
17971TIP3    H175328   0.543   1.289   0.612  0.9274 -1.2424  0.0585
17971TIP3    H275329   0.394   1.267   0.628  0.7230  0.6821  0.9413
17972TIP3   OH275330   2.866   0.603  12.873 -0.4749  0.7992  0.1074
17972TIP3    H175331   2.856   0.564  12.960 -1.6217 -0.3940 -0.5410
17972TIP3    H275332   2.960   0.620  12.866 -0.3342  0.7017  1.4913
17973TIP3   OH275333   1.808   2.628  11.704  0.0354 -0.5290  0.2845
17973TIP3    H175334   1.713   2.614  11.703 -0.1501  0.4669  2.1487
17973TIP3    H275335   1.844   2.548  11.744  0.0700 -1.2412 -1.1271
17974TIP3   OH275336   0.944   6.316   0.034 -0.2698  0.2069  0.3049
17974TIP3    H175337   1.031   6.348   0.060 -0.6008 -0.3302  2.1192
17974TIP3    H275338   0.904   6.390  -0.012  1.2904  0.3255 -0.9034
17975TIP3   OH275339   0.225   3.444  14.880 -0.1078 -0.0837  0.4142
17975TIP3    H175340   0.154   3.508  14.874  0.0188  0.2311  2.2211
17975TIP3    H275341   0.180   3.359  14.877 -0.4221  0.0928 -0.0491
17976TIP3   OH275342   5.964   5.221  12.920  0.2203 -0.4337 -0.1640
17976TIP3    H175343   5.972   5.315  12.904 -1.0501 -0.2212  0.3567
17976TIP3    H275344   6.050   5.185  12.899  0.9460  0.9549  0.3940
17977TIP3   OH275345   1.497   4.888   4.392  0.5707 -0.5479  0.2844
17977TIP3    H175346   1.530   4.819   4.449 -0.7164 -0.0054  1.7313
17977TIP3    H275347   1.521   4.970   4.437 -1.0546 -0.1237  0.4154
17978TIP3   OH275348   5.785   2.599  11.766  0.1411  0.7277 -0.1887
17978TIP3    H175349   5.791   2.620  11.859  0.4735 -3.1445  0.7390
17978TIP3    H275350   5.876   2.587  11.738  0.0082  1.2788 -0.8700
17979TIP3   OH275351   0.279   2.213  12.709 -0.0623  0.0449  0.3152
17979TIP3    H175352   0.327   2.152  12.653  0.6922  1.4322 -0.5691
17979TIP3    H275353   0.233   2.156  12.771 -0.4965 -1.4848 -1.3597
17980TIP3   OH275354   0.826   6.079  15.357 -0.0410  0.4294 -0.3266
17980TIP3    H175355   0.819   6.151  15.296  0.1468  1.9619  1.4090
17980TIP3    H275356   0.911   6.039  15.339 -0.4756  0.1421 -1.7982
17981TIP3   OH275357   3.569   2.401   4.134 -0.0687  0.2894 -0.1260
17981TIP3    H175358   3.501   2.372   4.074 -0.1031  0.8796 -0.3739
17981TIP3    H275359   3.555   2.350   4.214 -0.3638 -0.0950 -0.4254
17982TIP3   OH275360   4.404   1.057  15.307 -0.4487 -0.0683 -0.1377
17982TIP3    H175361   4.343   1.091  15.372 -0.4389  0.0871 -0.2092
17982TIP3    H275362   4.366   0.974  15.279  1.9121 -2.4945  3.4949
17983TIP3   OH275363   6.584   1.405  11.483 -0.5888 -0.0096 -0.1161
17983TIP3    H175364   6.556   1.410  11.574  0.4077  0.5083  0.1691
17983TIP3    H275365   6.597   1.496  11.457 -1.1358 -0.1416 -0.8620
17984TIP3   OH275366   5.906   5.962  16.486  0.6534  0.0444 -0.2365
17984TIP3    H175367   5.908   5.914  16.403  1.1178 -1.6425  0.7263
17984TIP3    H275368   5.813   5.978  16.502  0.3847 -1.5805 -0.0176
17985TIP3   OH275369   1.747   4.607   3.680 -0.6741 -0.0074  0.3923
17985TIP3    H175370   1.699   4.578   3.603 -2.3568  3.6953 -0.0328
17985TIP3    H275371   1.832   4.635   3.646 -0.2584 -1.2875  0.3533
17986TIP3   OH275372   0.936   3.363   5.260  0.0277  0.0795 -0.1093
17986TIP3    H175373   0.911   3.391   5.173  3.1216 -1.6630 -1.6457
17986TIP3    H275374   0.961   3.443   5.306 -1.3249  0.9626 -0.8938
17987TIP3   OH275375   6.616   6.538  14.962 -0.2460  0.1942 -0.4054
17987TIP3    H175376   6.553   6.495  14.904  0.8552  1.2357 -2.4057
17987TIP3    H275377   6.654   6.466  15.013 -0.2183 -0.9307 -1.9664
17988TIP3   OH275378   2.389   3.199   0.370  0.2678  0.6866 -0.3005
17988TIP3    H175379   2.388   3.169   0.279  3.4173 -0.2709 -0.0645
17988TIP3    H275380   2.411   3.292   0.363 -0.1509  0.7696 -0.5460
17989TIP3   OH275381   3.222   2.380  14.445 -0.7638 -0.4879 -0.6294
17989TIP3    H175382   3.260   2.293  14.456 -0.9495 -0.3470  1.1957
17989TIP3    H275383   3.130   2.364  14.422 -0.1065 -0.7958 -3.2407
17990TIP3   OH275384   6.518   1.182   4.793  0.2567  0.4001 -0.6085
17990TIP3    H175385   6.592   1.159   4.849 -0.8411  0.0348  0.6936
17990TIP3    H275386   6.495   1.272   4.819 -1.5862 -0.5136  1.0172
17991TIP3   OH275387   3.828   5.077   6.352 -0.1240 -0.4070  0.1249
17991TIP3    H175388   3.872   5.102   6.271 -1.8659  1.0567 -0.4194
17991TIP3    H275389   3.824   5.157   6.403 -1.2441 -0.7460  0.5828
17992TIP3   OH275390   1.653   2.911   4.588  0.6046  0.5142 -0.3363
17992TIP3    H175391   1.697   2.826   4.590  0.3820  0.3674 -1.2647
17992TIP3    H275392   1.666   2.943   4.498 -0.4343  0.8656 -0.3690
17993TIP3   OH275393   3.911   1.371   6.171  0.0240  0.6535  0.6690
17993TIP3    H175394   3.999   1.397   6.197  0.3058 -1.9003  2.4091
17993TIP3    H275395   3.902   1.281   6.202 -2.0006 -0.3162 -2.4608
17994TIP3   OH275396   0.417   5.336   2.390 -0.2446 -0.0755  0.4620
17994TIP3    H175397   0.452   5.264   2.444 -0.2639 -0.9920 -0.7349
17994TIP3    H275398   0.369   5.391   2.452  1.3842 -0.0382  1.7377
17995TIP3   OH275399   5.517   0.513   3.650 -0.0659  0.2131  0.5122
17995TIP3    H175400   5.446   0.475   3.599 -0.2785 -0.5196  1.3386
17995TIP3    H275401   5.592   0.457   3.631  0.2442  0.8618 -0.1958
17996TIP3   OH275402   5.532   1.903   5.998  0.0968 -0.1366 -0.1115
17996TIP3    H175403   5.613   1.940   5.963  0.3703 -0.9855 -0.3880
17996TIP3    H275404   5.527   1.815   5.961 -1.2584  0.1174 -0.5704
17997TIP3   OH275405   6.546   5.254   4.186 -0.0792  0.5580  0.2275
17997TIP3    H175406   6.579   5.213   4.266 -2.0869 -0.6331  0.4917
17997TIP3    H275407   6.582   5.202   4.115 -2.3576 -1.5848  0.5492
17998TIP3   OH275408   0.458   5.190   5.775  0.8758  0.2890 -0.2902
17998TIP3    H175409   0.531   5.132   5.751  1.1999  0.5434  0.0801
17998TIP3    H275410   0.382   5.151   5.732  1.4443  0.7455 -1.7479
17999TIP3   OH275411   3.032   4.177  14.394 -0.5084 -0.2011 -0.7165
17999TIP3    H175412   3.080   4.114  14.447 -0.4894  0.8524  0.5564
17999TIP3    H275413   3.091   4.199  14.322  0.0276 -0.5909 -0.3981
18000TIP3   OH275414   6.681   4.415  15.818  0.3908 -0.7606 -0.2685
18000TIP3    H175415   6.756   4.391  15.872 -0.9247  0.6497  2.2454
18000TIP3    H275416   6.607   4.418  15.878 -1.2537  0.1930 -2.2676
18001TIP3   OH275417   3.095   3.926  16.746 -0.4214 -0.5097  0.1719
18001TIP3    H175418   3.106   3.836  16.717  2.0745 -0.6420  1.3938
18001TIP3    H275419   3.026   3.922  16.813 -0.5794 -1.4457 -0.0507
18002TIP3   OH275420   0.085   0.193  13.474  0.0398  0.1243  0.5398
18002TIP3    H175421   0.045   0.142  13.404 -0.5512  2.5437 -0.9406
18002TIP3    H275422   0.024   0.185  13.547 -0.3943 -0.7020  0.0954
18003TIP3   OH275423   6.727   6.367  12.266 -0.5717  0.5545 -0.2658
18003TIP3    H175424   6.657   6.430  12.285 -1.1494 -0.1475 -0.0321
18003TIP3    H275425   6.698   6.286  12.308 -0.0670 -0.0001 -0.9732
18004TIP3   OH275426   2.008   6.197  14.816  0.3954  0.1626  0.2229
18004TIP3    H175427   1.949   6.241  14.877 -0.4307  0.3825 -0.7350
18004TIP3    H275428   2.054   6.268  14.771 -0.2517  0.0404 -0.6428
18005TIP3   OH275429   2.992   2.478   1.666 -0.4406 -0.0873  0.4117
18005TIP3    H175430   2.966   2.392   1.634  1.9518 -1.2253  1.3921
18005TIP3    H275431   3.043   2.459   1.745  2.5992  2.0332 -0.9508
18006TIP3   OH275432   3.627   1.357  16.689  0.2281  0.2073 -0.1019
18006TIP3    H175433   3.663   1.374  16.602  1.2366  0.0859  0.2800
18006TIP3    H275434   3.692   1.393  16.749 -0.6115  0.5666  0.5915
18007TIP3   OH275435   6.601   2.032  12.292 -0.4117 -0.0258 -0.6890
18007TIP3    H175436   6.642   1.948  12.314 -0.5500 -0.5221 -2.2279
18007TIP3    H275437   6.508   2.011  12.285 -0.3509  0.0684 -1.8809
18008TIP3   OH275438   4.531   3.153   3.088  0.2230 -0.2423  0.6073
18008TIP3    H175439   4.611   3.204   3.075  0.0438  0.6261  2.6980
18008TIP3    H275440   4.546   3.072   3.040  0.9701  1.3059 -1.8628
18009TIP3   OH275441   0.839   4.533   0.596  0.1100  0.4267 -0.5930
18009TIP3    H175442   0.771   4.505   0.659 -1.0745  0.9524 -1.6149
18009TIP3    H275443   0.812   4.494   0.513  1.2238  0.4148 -0.9468
18010TIP3   OH275444   1.770   1.924   3.467 -0.2687  0.5483  0.3092
18010TIP3    H175445   1.743   1.851   3.412  1.1592 -0.2785  0.6881
18010TIP3    H275446   1.716   1.916   3.546  0.0201 -0.2400  0.4376
18011TIP3   OH275447   0.992   0.354   1.189  0.4728 -0.2621 -0.2790
18011TIP3    H175448   0.973   0.269   1.150 -0.5644 -0.3945  0.4871
18011TIP3    H275449   1.075   0.343   1.235  1.1155 -0.4244 -1.4517
18012TIP3   OH275450   6.179   3.424   5.497  0.0668 -0.1321 -0.2576
18012TIP3    H175451   6.205   3.365   5.568 -0.9579 -1.3832 -0.8934
18012TIP3    H275452   6.098   3.465   5.528  0.0244 -0.1138 -0.3926
18013TIP3   OH275453   3.792   2.444   5.488 -0.4942 -0.8967 -0.0512
18013TIP3    H175454   3.722   2.467   5.426 -0.1727 -0.3701 -0.2225
18013TIP3    H275455   3.868   2.428   5.432 -0.5054 -1.5752  0.1274
18014TIP3   OH275456   4.530   2.648   4.916  0.1728  0.5213  0.5147
18014TIP3    H175457   4.473   2.685   4.983 -0.0041  0.4149  0.4236
18014TIP3    H275458   4.480   2.575   4.879 -0.8860  2.2812 -1.6586
18015TIP3   OH275459   6.037   3.261  16.985  0.0043  0.6142 -0.0727
18015TIP3    H175460   6.106   3.311  17.028 -0.3445  0.3839  0.7858
18015TIP3    H275461   6.025   3.303  16.900  2.0634 -0.1038 -0.7542
18016TIP3   OH275462   2.172   0.425   5.186 -0.2213 -0.5494 -0.4594
18016TIP3    H175463   2.095   0.410   5.131 -1.0706  1.3419  0.1725
18016TIP3    H275464   2.142   0.404   5.274 -0.1146  0.4376 -0.1771
18017TIP3   OH275465   5.894   5.813   6.600  0.0699  0.3168 -0.0999
18017TIP3    H175466   5.908   5.898   6.560  0.7010  0.7872  1.1042
18017TIP3    H275467   5.911   5.827   6.694 -0.3465 -0.9978  0.1829
18018TIP3   OH275468   1.396   2.779  12.915 -0.0943 -0.3882 -0.2699
18018TIP3    H175469   1.403   2.839  12.990  0.4310  0.7244 -1.2043
18018TIP3    H275470   1.373   2.695  12.955 -1.3369  0.5304  1.0117
18019TIP3   OH275471   0.794   5.388  16.272  0.0736 -0.0445  0.2685
18019TIP3    H175472   0.788   5.427  16.359 -0.8748  4.1454 -1.5732
18019TIP3    H275473   0.883   5.354  16.266  0.4251  0.4415  2.5405
18020TIP3   OH275474   5.042   4.373   4.710  0.4151  0.0467 -0.4030
18020TIP3    H175475   4.971   4.419   4.664  1.4069  0.3228 -1.7110
18020TIP3    H275476   5.121   4.423   4.687  0.8615  0.5296  2.1097
18021TIP3   OH275477   5.781   6.091  14.971  0.0640 -0.3628  0.4799
18021TIP3    H175478   5.803   6.141  15.050  0.3090  0.6641 -0.2270
18021TIP3    H275479   5.711   6.142  14.930 -0.8188 -1.4694  0.6036
18022TIP3   OH275480   3.035   0.530  16.211 -0.0267 -0.2922  0.0539
18022TIP3    H175481   2.964   0.519  16.274  1.8565 -0.4317  2.1947
18022TIP3    H275482   3.018   0.463  16.144 -2.2384  0.0982  0.1744
18023TIP3   OH275483   0.492   4.528  15.986  0.6376 -0.6313  0.0755
18023TIP3    H175484   0.413   4.580  15.972  0.4242 -0.5664  1.3746
18023TIP3    H275485   0.554   4.589  16.025  1.4421 -0.6134 -1.2146
18024TIP3   OH275486   4.191   2.511   1.386 -0.2011 -0.0220 -0.3332
18024TIP3    H175487   4.245   2.443   1.427 -1.0847 -0.1589  0.6286
18024TIP3    H275488   4.156   2.469   1.307 -0.6449 -0.6622  0.1910
18025TIP3   OH275489   1.074   3.047   3.287 -0.1612  0.1944 -0.2419
18025TIP3    H175490   1.121   3.131   3.292 -3.1728  2.0331 -1.2788
18025TIP3    H275491   1.102   3.009   3.203  0.8858  0.3559  0.0263
18026TIP3   OH275492   0.088   6.666   3.967 -0.0568 -0.0190 -0.0796
18026TIP3    H175493  -0.007   6.657   3.971  0.1547 -2.4814 -0.1984
18026TIP3    H275494   0.114   6.613   3.892  1.5101 -0.1519  0.5509
18027TIP3   OH275495   3.552   1.000   1.231  0.0719  0.1037 -0.0524
18027TIP3    H175496   3.645   0.982   1.226 -0.3305 -1.7118 -1.3909
18027TIP3    H275497   3.533   1.002   1.325  1.4375  0.4506  0.2263
18028TIP3   OH275498   5.773   1.392  13.848  0.4650  0.1462  0.4244
18028TIP3    H175499   5.796   1.451  13.919 -1.2431  1.0359  0.2769
18028TIP3    H275500   5.701   1.437  13.802  0.7341 -0.9580 -1.1272
18029TIP3   OH275501   3.374   1.115   5.063 -0.6338  1.0021  0.4547
18029TIP3    H175502   3.400   1.055   4.993  0.1487  0.0003  1.5767
18029TIP3    H275503   3.405   1.073   5.143 -0.7621  2.5379  1.3341
18030TIP3   OH275504   5.905   3.984   2.054  0.0810 -0.2607 -0.6668
18030TIP3    H175505   5.866   3.909   2.010 -2.2603  0.3081  0.3739
18030TIP3    H275506   5.835   4.019   2.108  1.9989  0.9042  1.1391
18031TIP3   OH275507   5.311   3.858  13.555 -0.1007  0.2151  0.2456
18031TIP3    H175508   5.369   3.934  13.547 -1.6338  1.3525 -0.4041
18031TIP3    H275509   5.241   3.888  13.612  0.2412 -1.3341  1.4866
18032TIP3   OH275510   3.465   5.767  16.098 -0.3314  1.2440  0.0263
18032TIP3    H175511   3.514   5.784  16.179 -1.6990  1.1987  0.8908
18032TIP3    H275512   3.531   5.772  16.029  1.5132 -1.9617  1.4241
18033TIP3   OH275513   1.379   1.206  14.535 -0.1552  0.4611 -0.4180
18033TIP3    H175514   1.328   1.153  14.596  0.9979  1.6836  1.6321
18033TIP3    H275515   1.339   1.292  14.538  1.1334  1.0502  0.1220
18034TIP3   OH275516   4.598   4.262  13.619  0.5509  0.4465  0.3419
18034TIP3    H175517   4.612   4.354  13.641 -1.8109  1.1447 -0.8532
18034TIP3    H275518   4.527   4.234  13.676 -0.1343 -0.0252 -0.7201
18035TIP3   OH275519   4.755   3.130   1.501 -0.6883 -0.5290  0.1107
18035TIP3    H175520   4.664   3.159   1.509 -0.4747  0.1682  0.0092
18035TIP3    H275521   4.764   3.103   1.410 -0.0831  1.8256 -0.5464
18036TIP3   OH275522   6.668   1.167  13.134  0.0109 -0.4134  0.1227
18036TIP3    H175523   6.720   1.201  13.206  2.1834 -1.6556 -0.8019
18036TIP3    H275524   6.603   1.111  13.175 -0.4501  0.9553  1.2842
18037TIP3   OH275525   4.443   0.308  11.335  0.0147  0.0549  0.1967
18037TIP3    H175526   4.460   0.321  11.242 -0.9372  0.8264  0.1308
18037TIP3    H275527   4.519   0.258  11.366  0.9063  0.8162 -0.7424
18038TIP3   OH275528   0.160   1.730   6.060  0.2048  0.2494  0.2843
18038TIP3    H175529   0.200   1.817   6.067 -1.3269  0.9400  0.4567
18038TIP3    H275530   0.076   1.738   6.105 -0.9008 -0.7424 -1.5403
18039TIP3   OH275531   3.791   2.205   2.963  0.0065  0.0645  0.0515
18039TIP3    H175532   3.854   2.277   2.960  1.3531 -1.0471  0.6752
18039TIP3    H275533   3.754   2.201   2.875 -1.0001  2.2965  0.3601
18040TIP3   OH275534   1.383   2.678   2.599 -0.6144 -1.0799 -0.5840
18040TIP3    H175535   1.344   2.609   2.545  0.3359 -1.9635 -0.1594
18040TIP3    H275536   1.355   2.759   2.557 -3.4201 -1.6708  0.0663
18041TIP3   OH275537   2.014   6.667  12.587 -0.5879 -0.4316 -0.2267
18041TIP3    H175538   1.983   6.579  12.610 -1.7169 -0.3447 -1.3289
18041TIP3    H275539   1.941   6.706  12.539 -0.3327  1.3500  0.7890
18042TIP3   OH275540   2.955   0.854  12.555  0.1362 -0.2328 -0.3604
18042TIP3    H175541   3.010   0.863  12.477  0.6941  0.5656  0.1253
18042TIP3    H275542   2.983   0.771  12.594  1.9880  0.8379  0.6456
18043TIP3   OH275543   1.431   1.467   5.064  0.1758  0.1657 -0.5035
18043TIP3    H175544   1.350   1.484   5.112 -0.7149 -3.4409 -0.5947
18043TIP3    H275545   1.489   1.428   5.129  1.2189  1.1172 -0.8612
18044TIP3   OH275546   3.786   0.824   2.244  0.2602  0.4255 -0.1463
18044TIP3    H175547   3.750   0.913   2.250 -1.8873 -0.4590  0.5779
18044TIP3    H275548   3.724   0.770   2.293  1.4364 -1.5149 -0.7556
18045TIP3   OH275549   0.098   4.510   1.868  0.2729  0.5996 -0.4128
18045TIP3    H175550   0.061   4.474   1.949  1.4524  1.9265  0.7454
18045TIP3    H275551   0.026   4.557   1.827 -0.2400  0.2202  0.0428
18046TIP3   OH275552   4.159   4.385   5.040 -0.2220  0.2697 -0.2217
18046TIP3    H175553   4.164   4.342   4.955  1.1843  1.8689 -0.9832
18046TIP3    H275554   4.082   4.442   5.033  0.0636  0.6225 -0.5435
18047TIP3   OH275555   5.067   6.389  15.222 -0.0736 -0.1128 -0.2065
18047TIP3    H175556   5.009   6.461  15.247 -0.3541 -0.1425 -0.7680
18047TIP3    H275557   5.111   6.420  15.143  1.8560  0.5468  1.1008
18048TIP3   OH275558   6.405   6.607   0.979 -0.3801  0.4435  0.2273
18048TIP3    H175559   6.483   6.554   0.995 -0.3234  0.3303 -0.4076
18048TIP3    H275560   6.350   6.592   1.055 -1.3014 -2.2091 -0.9239
18049TIP3   OH275561   1.854   0.653  15.035 -0.5904  0.3198  0.3497
18049TIP3    H175562   1.880   0.735  14.992  2.8952  1.3698  4.1167
18049TIP3    H275563   1.923   0.591  15.012 -0.4667 -0.0318  1.6333
18050TIP3   OH275564   2.523   5.068  16.503  0.3149 -0.4001 -0.1750
18050TIP3    H175565   2.521   4.973  16.515  1.4273 -0.2420  1.3084
18050TIP3    H275566   2.589   5.082  16.434  2.2018 -0.5294  1.5671
18051TIP3   OH275567   2.412   1.680  13.749 -0.0106  0.4572 -0.1906
18051TIP3    H175568   2.451   1.595  13.727 -1.2560 -0.8208  2.2394
18051TIP3    H275569   2.324   1.677  13.711 -0.7509 -0.1700  1.4972
18052TIP3   OH275570   3.787   1.654  15.835  0.2570  0.0311  0.0557
18052TIP3    H175571   3.781   1.694  15.748 -0.4378 -0.1159  0.0324
18052TIP3    H275572   3.763   1.562  15.820  3.7872 -0.9261 -0.2703
18053TIP3   OH275573   0.701   2.663  13.525 -0.1572 -0.1285  0.3469
18053TIP3    H175574   0.711   2.758  13.523  0.6767 -0.2178 -2.1562
18053TIP3    H275575   0.790   2.629  13.510 -0.9001 -1.2482 -1.7205
18054TIP3   OH275576   5.539   6.616   1.457  0.2294  0.0271 -0.2514
18054TIP3    H175577   5.595   6.620   1.534 -0.7924  0.8746  0.4609
18054TIP3    H275578   5.575   6.683   1.398 -0.0312  0.5881  0.2144
18055TIP3   OH275579   6.763   6.355  14.052 -0.5193  0.2161 -0.3306
18055TIP3    H175580   6.759   6.265  14.022 -2.1151  0.2107 -0.1908
18055TIP3    H275581   6.735   6.407  13.977 -1.7754  0.4105  0.2502
18056TIP3   OH275582   1.763   3.842   2.520 -0.3542  0.0882 -0.0863
18056TIP3    H175583   1.816   3.809   2.447 -1.1179  1.8955 -1.4784
18056TIP3    H275584   1.716   3.917   2.484  0.1509  1.7530  2.5801
18057TIP3   OH275585   5.012   2.768   6.434 -0.5007  0.0897  0.4956
18057TIP3    H175586   5.051   2.855   6.442 -1.7483  0.7669 -0.5676
18057TIP3    H275587   4.918   2.785   6.432 -0.8211 -1.4073  1.7394
18058TIP3   OH275588   3.137   4.206   4.938  0.0823 -0.7221  0.6676
18058TIP3    H175589   3.134   4.220   4.843 -2.5414 -1.6057  0.5809
18058TIP3    H275590   3.140   4.294   4.976  3.6507 -0.3572 -0.2162
18059TIP3   OH275591   0.640   6.176   2.635 -0.1387  0.5749 -0.1778
18059TIP3    H175592   0.734   6.176   2.619  0.2415 -0.3499  1.8469
18059TIP3    H275593   0.600   6.165   2.549  1.6273  0.1145 -0.9528
18060TIP3   OH275594   1.668   3.890  11.396 -0.3711 -0.1906 -0.8056
18060TIP3    H175595   1.736   3.927  11.452 -1.5718  0.3976  0.2806
18060TIP3    H275596   1.597   3.866  11.457 -0.7135 -1.7460 -1.7982
18061TIP3   OH275597   1.120   5.061  14.394 -0.0085 -0.7425  0.2645
18061TIP3    H175598   1.142   5.153  14.409 -2.9636 -0.1097  1.1626
18061TIP3    H275599   1.202   5.021  14.366  1.5895  1.9369  0.8721
18062TIP3   OH275600   4.879   0.384   2.945 -0.3393  0.5873 -0.3729
18062TIP3    H175601   4.910   0.376   2.854 -1.0276  0.5484 -0.6033
18062TIP3    H275602   4.861   0.295   2.972 -2.7808  0.8301 -1.1228
18063TIP3   OH275603   4.492   5.952  15.364 -0.2461  0.0774  0.1055
18063TIP3    H175604   4.451   5.928  15.281 -0.6488 -2.9202  1.0899
18063TIP3    H275605   4.476   6.046  15.373 -1.1417  0.2372 -2.6595
18064TIP3   OH275606   0.223   4.294  11.804 -0.0308  0.2732 -0.4954
18064TIP3    H175607   0.130   4.280  11.822 -0.0762  0.3420 -0.6683
18064TIP3    H275608   0.232   4.389  11.799  0.7685  0.4640  3.2827
18065TIP3   OH275609   1.109   1.871  16.903  0.1998  0.4523  0.2399
18065TIP3    H175610   1.177   1.937  16.915  0.5607 -0.0820  1.1956
18065TIP3    H275611   1.054   1.878  16.981 -0.3106  0.2670 -0.1022
18066TIP3   OH275612   3.199   0.521   5.450 -0.3876  0.1276  0.1264
18066TIP3    H175613   3.262   0.586   5.418  0.5744 -0.5551  0.6280
18066TIP3    H275614   3.148   0.498   5.373 -0.4712  1.1783 -0.1446
18067TIP3   OH275615   4.515   0.761  11.195  0.1945  0.4176  0.3814
18067TIP3    H175616   4.433   0.715  11.175  1.7440 -2.5646  0.6546
18067TIP3    H275617   4.543   0.798  11.111 -1.8361  2.2243  0.4525
18068TIP3   OH275618   5.056   3.491   3.531 -0.2697  0.4187  0.2095
18068TIP3    H175619   5.067   3.554   3.602 -1.2777  0.0942  0.6653
18068TIP3    H275620   5.039   3.544   3.454 -2.6985  0.6952  0.8831
18069TIP3   OH275621   3.064   5.474  10.811  0.5854  0.3969  0.2573
18069TIP3    H175622   3.053   5.486  10.905 -1.9886  0.8344 -0.0544
18069TIP3    H275623   3.153   5.503  10.793  0.3835  2.3286  2.2278
18070TIP3   OH275624   0.616   2.880  15.405  0.2580  0.5571 -0.5071
18070TIP3    H175625   0.555   2.954  15.410  0.5860  0.7836  0.1946
18070TIP3    H275626   0.695   2.911  15.450 -0.7599 -1.3540  2.7571
18071TIP3   OH275627   2.555   2.628   1.607  0.1833  0.3566  0.2691
18071TIP3    H175628   2.505   2.710   1.609 -0.4306 -0.0231  0.3402
18071TIP3    H275629   2.647   2.657   1.611  0.0184  1.1004 -0.9707
18072TIP3   OH275630   0.676   0.026  14.240 -0.3239  0.0830  0.2525
18072TIP3    H175631   0.687   0.002  14.148  0.6158 -0.4180  0.4866
18072TIP3    H275632   0.582   0.028  14.253 -0.4541 -1.1362 -0.3888
18073TIP3   OH275633   2.764   1.635  14.853  0.1179 -0.0070 -0.5851
18073TIP3    H175634   2.718   1.629  14.937  0.3684  2.1639 -0.2702
18073TIP3    H275635   2.837   1.574  14.861  0.5358  0.6961  1.0312
18074TIP3   OH275636   4.344   1.695  16.151  0.2099 -1.2615 -0.3820
18074TIP3    H175637   4.351   1.607  16.113  0.0471  0.2873 -4.3104
18074TIP3    H275638   4.429   1.735  16.132  0.0059 -0.3290  0.6837
18075TIP3   OH275639   1.081   0.127   5.761  0.6027 -0.0832  0.0741
18075TIP3    H175640   1.138   0.160   5.831  0.2997 -0.6186  0.5799
18075TIP3    H275641   1.122   0.046   5.733  0.0444 -0.5288  0.5162
18076TIP3   OH275642   4.064   2.681   3.914  0.2797 -0.1522  0.1101
18076TIP3    H175643   4.092   2.750   3.854  0.8848  0.6510  1.3119
18076TIP3    H275644   4.054   2.604   3.858  1.1445  0.5061 -0.9772
18077TIP3   OH275645   2.350   2.887   5.002 -0.2597  0.0320 -0.6770
18077TIP3    H175646   2.443   2.907   5.011 -0.1460 -0.8492  0.2305
18077TIP3    H275647   2.343   2.794   5.026 -1.8469  0.9381  2.6375
18078TIP3   OH275648   6.426   1.630   0.269 -0.3238 -0.4042  0.6873
18078TIP3    H175649   6.514   1.602   0.292 -0.5961 -0.5519  1.5875
18078TIP3    H275650   6.438   1.697   0.202  0.4785 -0.2874  0.9506
18079TIP3   OH275651   2.067   2.941  13.801  0.2465  0.4241  0.0691
18079TIP3    H175652   2.135   2.947  13.868  1.1663  1.6613 -0.9441
18079TIP3    H275653   1.992   2.986  13.840  0.5766  0.6127  0.4990
18080TIP3   OH275654   2.060   4.320  12.261  0.2121 -0.1165 -1.1514
18080TIP3    H175655   2.071   4.227  12.243  1.4576  0.1471 -1.8184
18080TIP3    H275656   2.149   4.353  12.273 -0.3286  0.6034  1.1353
18081TIP3   OH275657   1.210   3.283  12.214 -0.8139  0.2458 -1.2220
18081TIP3    H175658   1.173   3.202  12.249 -3.1326  1.8248  0.1258
18081TIP3    H275659   1.238   3.260  12.125  2.4425 -3.0789  0.5045
18082TIP3   OH275660   0.740   3.892  16.325  0.6833 -0.0779 -0.0238
18082TIP3    H175661   0.801   3.894  16.252 -2.1483 -1.0518 -2.5280
18082TIP3    H275662   0.740   3.800  16.353  1.2323  0.1539  0.7497
18083TIP3   OH275663   6.120   1.419  16.334 -0.5316 -0.0295  0.1659
18083TIP3    H175664   6.148   1.470  16.409 -1.7666 -0.6247  1.0547
18083TIP3    H275665   6.075   1.481  16.277 -0.2997  0.2635  0.3066
18084TIP3   OH275666   3.445   5.397  16.454  0.2021 -0.1994  0.4891
18084TIP3    H175667   3.417   5.483  16.424 -0.6582 -0.0652  1.6431
18084TIP3    H275668   3.422   5.338  16.382  1.4880  0.6340 -0.6195
18085TIP3   OH275669   4.146   1.649  14.066  0.0494 -0.9212  0.3971
18085TIP3    H175670   4.210   1.717  14.085  0.6980 -0.9957 -1.4242
18085TIP3    H275671   4.118   1.617  14.152  0.1817  1.2199  1.2576
18086TIP3   OH275672   1.904   2.167  13.429 -0.3308 -0.5173  0.2418
18086TIP3    H175673   1.840   2.097  13.417 -1.6617  0.5800  0.8383
18086TIP3    H275674   1.980   2.123  13.468 -1.0038 -1.6893  0.2641
18087TIP3   OH275675   3.980   4.353  12.221  0.0448 -0.5620 -0.6425
18087TIP3    H175676   4.072   4.365  12.245  0.4733 -0.3781 -2.2688
18087TIP3    H275677   3.975   4.386  12.131 -2.0159  1.0798  0.0558
18088TIP3   OH275678   0.662   5.965   3.556  0.3477 -0.2640 -0.2473
18088TIP3    H175679   0.610   5.906   3.502  0.8502 -1.4149  0.5077
18088TIP3    H275680   0.734   5.911   3.588  1.6375  1.1317 -0.7225
18089TIP3   OH275681   4.679   0.924  13.939 -0.2680 -0.2399 -0.0127
18089TIP3    H175682   4.592   0.942  13.976  0.0268  0.2903  0.4398
18089TIP3    H275683   4.728   1.006  13.953 -0.9151  0.9218 -3.8800
18090TIP3   OH275684   5.350   3.417   2.326 -0.0107 -0.2337 -0.2009
18090TIP3    H175685   5.411   3.489   2.343 -0.7177 -0.0321  1.6845
18090TIP3    H275686   5.376   3.382   2.241  1.7561  0.8296 -0.1182
18091TIP3   OH275687   6.075   2.705  16.952 -0.8884 -0.1031 -0.7796
18091TIP3    H175688   5.997   2.749  16.917 -1.4381 -0.0911  0.4697
18091TIP3    H275689   6.137   2.707  16.879 -1.5107  1.2485 -1.3014
18092TIP3   OH275690   3.998   1.167  14.821  0.6759  0.0732  0.2664
18092TIP3    H175691   4.085   1.135  14.844  0.1143 -2.5877 -1.0222
18092TIP3    H275692   3.943   1.088  14.821 -1.2653  1.3656 -1.0672
18093TIP3   OH275693   1.533   6.658   4.353  0.0535  0.2994  0.8999
18093TIP3    H175694   1.559   6.749   4.365 -1.2232  0.8412 -0.2973
18093TIP3    H275695   1.575   6.632   4.271 -0.4593  0.1327  0.6925
18094TIP3   OH275696   6.336   5.730  13.634 -0.4639 -0.1329  0.4921
18094TIP3    H175697   6.263   5.682  13.594 -0.2786  0.6980 -0.8842
18094TIP3    H275698   6.406   5.725  13.568  1.0834 -1.7422  2.1826
18095TIP3   OH275699   6.042   2.520  11.691 -0.5201  0.5538 -0.2968
18095TIP3    H175700   6.105   2.505  11.619  0.3919  1.3950  0.3060
18095TIP3    H275701   5.988   2.442  11.692  1.1079 -0.6108 -0.2605
18096TIP3   OH275702   4.854   5.626  15.131  0.3505 -0.2330  0.0553
18096TIP3    H175703   4.812   5.652  15.049  0.6992  1.5413  0.4095
18096TIP3    H275704   4.783   5.628  15.196  0.5222  0.5879  0.2238
18097TIP3   OH275705   6.023   5.946   1.137  0.2050 -0.1141 -0.3883
18097TIP3    H175706   5.935   5.958   1.172  0.5275 -0.0822  0.4280
18097TIP3    H275707   6.051   6.034   1.111 -0.1705 -0.1916 -1.0741
18098TIP3   OH275708   3.491   0.217   2.572  0.4694  0.1439  0.5550
18098TIP3    H175709   3.500   0.132   2.614 -1.8878 -0.0326  0.7588
18098TIP3    H275710   3.574   0.230   2.526  1.1748 -1.8669  1.2202
18099TIP3   OH275711   0.480   2.106  12.443  0.0176 -0.0485 -0.4973
18099TIP3    H175712   0.474   2.069  12.531  0.6027  3.0292  0.9060
18099TIP3    H275713   0.561   2.069  12.407 -1.0025 -2.5049 -0.3795
18100TIP3   OH275714   3.203   3.703  16.018 -0.5444 -0.1835 -0.5465
18100TIP3    H175715   3.161   3.780  15.978 -0.2161 -0.2228 -0.9700
18100TIP3    H275716   3.132   3.658  16.064 -0.3058  1.6258  1.6773
18101TIP3   OH275717   2.972   2.118  11.651 -0.0950 -0.1584 -0.2739
18101TIP3    H175718   2.939   2.181  11.715  0.4916  0.3178 -0.4397
18101TIP3    H275719   2.931   2.143  11.569 -1.1575 -1.0123 -0.0096
18102TIP3   OH275720   2.836   5.730   1.341 -0.3477  0.2106 -0.4400
18102TIP3    H175721   2.794   5.786   1.406  1.0593  1.8684 -0.9022
18102TIP3    H275722   2.929   5.755   1.344  0.1802 -1.5719 -1.2068
18103TIP3   OH275723   5.699   2.611   4.286 -0.2850 -0.4329 -0.3281
18103TIP3    H175724   5.691   2.541   4.221  0.5986  0.7001 -1.6929
18103TIP3    H275725   5.793   2.619   4.301 -0.2970  1.1549 -0.9818
18104TIP3   OH275726   4.220   4.228   4.403 -0.4761 -0.2903  0.5554
18104TIP3    H175727   4.167   4.148   4.407 -0.0205 -0.5617  1.1464
18104TIP3    H275728   4.171   4.291   4.456 -0.3539 -0.4566  0.8661
18105TIP3   OH275729   2.433   1.360   4.655 -0.0999  0.7791  0.4940
18105TIP3    H175730   2.520   1.382   4.689  2.0934 -1.2439 -3.4358
18105TIP3    H275731   2.408   1.281   4.702  0.2723  1.2315  1.4636
18106TIP3   OH275732   0.365   6.689   0.479  0.4175  0.1325  0.3106
18106TIP3    H175733   0.343   6.681   0.386 -1.4893  1.6945  0.5945
18106TIP3    H275734   0.294   6.742   0.516  2.0263  0.9505  2.3233
18107TIP3   OH275735   5.677   1.838  16.472  0.0253 -0.2309  0.0091
18107TIP3    H175736   5.764   1.874  16.489 -0.2193  0.6223 -0.4935
18107TIP3    H275737   5.674   1.827  16.377 -0.0518 -1.2054  0.1202
18108TIP3   OH275738   0.754   0.715   1.097 -0.3859 -0.2534 -0.2270
18108TIP3    H175739   0.686   0.764   1.050 -0.9795 -1.0378 -0.1947
18108TIP3    H275740   0.831   0.720   1.039 -0.9015 -0.6104 -0.9539
18109TIP3   OH275741   3.972   5.483  15.156  0.3172  0.5759  0.2791
18109TIP3    H175742   3.954   5.404  15.207  1.4323  0.4396  0.4859
18109TIP3    H275743   4.044   5.458  15.098 -0.3989  0.9768 -0.7851
18110TIP3   OH275744   0.716   0.029   1.848  0.3796 -0.6110  0.2355
18110TIP3    H175745   0.694   0.027   1.941  0.4323  0.8792  0.2900
18110TIP3    H275746   0.707   0.121   1.823  0.3130 -1.0039 -1.2470
18111TIP3   OH275747   0.548   4.738  11.229 -0.0190 -0.2079 -0.5854
18111TIP3    H175748   0.519   4.812  11.281 -1.4270  0.1183 -1.8035
18111TIP3    H275749   0.534   4.765  11.138  2.2787 -0.8069 -1.1581
18112TIP3   OH275750   6.086   1.288   5.139  0.2700  0.1534  0.0005
18112TIP3    H175751   6.082   1.194   5.153  0.8422 -0.2980 -2.6597
18112TIP3    H275752   6.176   1.312   5.163  0.5915 -0.2574 -0.7543
18113TIP3   OH275753   4.073   0.037  16.739  0.2192 -0.0199  0.6176
18113TIP3    H175754   4.057   0.061  16.830 -0.5183 -0.7230  0.6760
18113TIP3    H275755   4.006  -0.028  16.719  1.7038 -1.4643  0.2310
18114TIP3   OH275756   5.290   1.936  14.057  0.0536  0.4549  0.6972
18114TIP3    H175757   5.323   2.014  14.012  0.6563  1.5134  2.9174
18114TIP3    H275758   5.354   1.918  14.126 -0.6995 -1.2948  0.9826
18115TIP3   OH275759   0.504   6.247   2.859 -0.0385  0.2283  0.0554
18115TIP3    H175760   0.552   6.181   2.911 -2.2377 -0.9372  0.6830
18115TIP3    H275761   0.526   6.226   2.768  0.3377 -0.5144  0.3110
18116TIP3   OH275762   1.706   0.052  16.273 -0.5645  0.1314  0.1199
18116TIP3    H175763   1.619   0.026  16.243  0.3476 -0.2158 -2.2770
18116TIP3    H275764   1.727  -0.011  16.342 -1.3829 -0.9860 -0.6441
18117TIP3   OH275765   2.022   5.309   4.006 -0.5086  0.2841  0.2558
18117TIP3    H175766   2.061   5.275   4.086 -0.0549  2.0924  0.8244
18117TIP3    H275767   2.074   5.386   3.984  0.2874 -0.9702 -2.6105
18118TIP3   OH275768   2.732   4.163   5.399  0.1822 -0.1958 -0.3120
18118TIP3    H175769   2.785   4.194   5.325 -1.9759  1.1308 -1.3429
18118TIP3    H275770   2.779   4.195   5.477  0.6770  1.3509 -1.2179
18119TIP3   OH275771   0.384   4.622   3.528 -0.4959 -0.2947 -0.0531
18119TIP3    H175772   0.413   4.546   3.579 -2.4469 -2.2359 -1.7290
18119TIP3    H275773   0.464   4.653   3.485  0.3553 -1.3508  0.7245
18120TIP3   OH275774   1.863   6.523   5.073  0.8647 -0.2022 -0.0218
18120TIP3    H175775   1.865   6.527   4.977 -1.0522  1.7941 -0.0096
18120TIP3    H275776   1.948   6.557   5.100  2.0229 -2.1769 -0.9974
18121TIP3   OH275777   4.586   3.598   3.696  0.1293  0.2245 -0.0760
18121TIP3    H175778   4.634   3.565   3.772 -4.9002 -2.0041  2.4150
18121TIP3    H275779   4.557   3.686   3.723 -0.7335 -0.1317  0.1737
18122TIP3   OH275780   1.826   1.700   2.938 -0.1678 -0.5586 -0.0761
18122TIP3    H175781   1.818   1.618   2.987 -3.3694 -1.1160 -1.3790
18122TIP3    H275782   1.844   1.672   2.848 -0.9033  0.1719 -0.4565
18123TIP3   OH275783   1.153   1.944  12.502 -0.5014 -0.1516 -0.0215
18123TIP3    H175784   1.107   1.882  12.558  0.2359  0.5628  1.4224
18123TIP3    H275785   1.094   2.018  12.494 -1.1236 -0.7744 -1.2279
18124TIP3   OH275786   5.875   3.478   2.576  0.6103  0.0602  0.1401
18124TIP3    H175787   5.847   3.389   2.553 -2.6109  1.1770 -0.3708
18124TIP3    H275788   5.836   3.494   2.662  0.9267  1.1140  0.0937
18125TIP3   OH275789   1.607   3.455   6.591 -0.0041  0.4808 -0.1014
18125TIP3    H175790   1.576   3.461   6.501 -1.3280 -0.2952  0.2791
18125TIP3    H275791   1.542   3.504   6.642  0.5684  0.6599  0.4551
18126TIP3   OH275792   4.852   0.949  11.346 -0.1494  0.3850  0.3791
18126TIP3    H175793   4.834   0.996  11.427 -0.3625 -0.6356  0.9350
18126TIP3    H275794   4.780   0.885  11.339 -2.0283  2.6558 -2.3251
18127TIP3   OH275795   4.403   1.810  13.902 -0.2416 -0.1282 -0.3924
18127TIP3    H175796   4.359   1.864  13.836 -0.8136 -1.3893 -1.0811
18127TIP3    H275797   4.454   1.871  13.954 -0.1466  0.9526 -1.7288
18128TIP3   OH275798   0.886   4.300   1.986 -0.2882  0.1486 -0.1776
18128TIP3    H175799   0.915   4.222   2.035  0.5303  0.4923 -0.0957
18128TIP3    H275800   0.814   4.336   2.038 -0.0052  0.0117  0.3144
18129TIP3   OH275801   0.526   1.068  16.804 -1.0810  0.1160  0.5360
18129TIP3    H175802   0.456   1.068  16.740 -1.3255 -1.1513  0.7932
18129TIP3    H275803   0.484   1.091  16.887 -1.1945 -0.5462  0.6718
18130TIP3   OH275804   5.576   2.755  15.069  0.0542  0.1893  0.4414
18130TIP3    H175805   5.482   2.739  15.069 -0.0497  0.7383 -0.3651
18130TIP3    H275806   5.614   2.678  15.026 -0.0979  0.2982  0.1089
18131TIP3   OH275807   4.919   2.478  15.032 -0.0114  0.2236  0.3835
18131TIP3    H175808   4.879   2.403  14.988  1.0276 -0.7743  1.0954
18131TIP3    H275809   4.877   2.480  15.119 -1.6699  1.8589 -0.4187
18132TIP3   OH275810   0.583   4.147  12.895  0.3512 -0.0564 -0.4472
18132TIP3    H175811   0.585   4.051  12.893  0.9192 -0.0696  0.2618
18132TIP3    H275812   0.621   4.169  12.980 -2.5089  0.7372  0.6827
18133TIP3   OH275813   2.041   0.761   2.610  0.4348  0.2281 -0.2166
18133TIP3    H175814   1.968   0.705   2.639  0.7012  1.2216  2.5187
18133TIP3    H275815   2.086   0.709   2.544 -1.3352 -1.4022 -0.1877
18134TIP3   OH275816   4.523   2.366  13.207 -0.6617 -0.0251 -0.9737
18134TIP3    H175817   4.462   2.309  13.254  0.8131 -0.9005 -0.1000
18134TIP3    H275818   4.490   2.454  13.224 -0.1564 -0.3161  1.7362
18135TIP3   OH275819   1.168   4.581   6.398  0.0620 -0.6862 -0.3850
18135TIP3    H175820   1.129   4.495   6.383  2.0691 -1.9467  1.2931
18135TIP3    H275821   1.115   4.619   6.468 -0.5422 -0.7567 -0.8022
18136TIP3   OH275822   5.024   3.668  12.236 -0.1010  0.3876  0.6080
18136TIP3    H175823   5.017   3.615  12.157 -0.1615  0.2087  0.7334
18136TIP3    H275824   5.111   3.709  12.230 -0.5586  1.2684 -0.1077
18137TIP3   OH275825   5.893   3.306  13.856 -0.2947 -0.5115 -0.1546
18137TIP3    H175826   5.887   3.321  13.761 -1.1290  0.0429 -0.0169
18137TIP3    H275827   5.915   3.213  13.864 -1.2885 -0.8124 -0.8690
18138TIP3   OH275828   1.701   5.139   4.182  0.3540  0.3022 -0.2474
18138TIP3    H175829   1.746   5.075   4.237 -2.6510 -3.0522 -1.4263
18138TIP3    H275830   1.728   5.117   4.093  0.0988  1.3341 -0.5777
18139TIP3   OH275831   4.863   5.806   5.875  0.3449 -0.2827  0.3790
18139TIP3    H175832   4.768   5.812   5.882  0.6051  2.1577  2.1376
18139TIP3    H275833   4.895   5.808   5.965  2.1326  0.3676 -0.2371
18140TIP3   OH275834   2.773   3.763  12.765 -0.1417 -0.1680  0.6132
18140TIP3    H175835   2.683   3.733  12.776 -0.2970  0.3469  0.7803
18140TIP3    H275836   2.826   3.700  12.814 -0.6720  1.1891  3.0377
18141TIP3   OH275837   3.157   6.384   4.579  0.2569 -0.6306 -0.3961
18141TIP3    H175838   3.127   6.396   4.669 -1.0562 -1.1085 -0.7607
18141TIP3    H275839   3.180   6.292   4.574  1.8272 -0.2616 -0.1139
18142TIP3   OH275840   6.539   1.483   1.860 -0.0833 -0.5482 -0.2095
18142TIP3    H175841   6.496   1.560   1.823 -1.4917  0.0390  2.5422
18142TIP3    H275842   6.593   1.517   1.931  0.7493 -1.9131 -0.1561
18143TIP3   OH275843   4.803   1.484   0.701  0.5081 -0.1208  0.0433
18143TIP3    H175844   4.723   1.535   0.718  1.3139  1.3528 -0.4943
18143TIP3    H275845   4.776   1.393   0.712 -1.1535  0.3776  0.2685
18144TIP3   OH275846   1.808   0.627  11.452  0.4123 -0.4201 -0.4767
18144TIP3    H175847   1.802   0.680  11.373  0.9161  1.2363  0.5648
18144TIP3    H275848   1.902   0.616  11.467  0.3625  0.9023  0.9295
18145TIP3   OH275849   2.002   0.392   3.627  0.4542  0.0788  0.2487
18145TIP3    H175850   2.079   0.424   3.673  1.0271  2.3629 -2.1873
18145TIP3    H275851   2.037   0.338   3.556 -0.2598 -0.3265  0.1972
18146TIP3   OH275852   3.616   0.690   5.635  0.0878  0.1071  0.5661
18146TIP3    H175853   3.658   0.660   5.554  0.9222 -1.3584  1.5088
18146TIP3    H275854   3.659   0.773   5.656  1.9080 -0.9272  1.0271
18147TIP3   OH275855   0.426   3.438   3.178 -0.1902 -0.2669 -0.1050
18147TIP3    H175856   0.517   3.453   3.202  0.4173  1.2599 -3.0529
18147TIP3    H275857   0.421   3.344   3.162  1.3500 -0.1216 -1.6287
18148TIP3   OH275858   5.261   2.072   0.207 -0.0749 -0.1847  0.3786
18148TIP3    H175859   5.289   2.139   0.145 -0.7130 -0.4188 -0.1776
18148TIP3    H275860   5.167   2.087   0.218  0.0244 -0.1953  1.2302
18149TIP3   OH275861   1.370   4.086  10.792 -0.3130 -0.2529  0.4291
18149TIP3    H175862   1.310   4.155  10.819 -2.2570 -1.5727 -0.3904
18149TIP3    H275863   1.384   4.101  10.699 -0.8329 -1.0129  0.2215
18150TIP3   OH275864   0.846   2.190   1.034 -0.0737  0.2679 -0.1024
18150TIP3    H175865   0.835   2.181   1.129  1.3142 -0.7410 -0.0349
18150TIP3    H275866   0.816   2.279   1.015 -2.4637 -0.2723  0.9458
18151TIP3   OH275867   4.310   3.225  14.217 -0.6337 -0.5645 -0.0637
18151TIP3    H175868   4.262   3.233  14.300  2.2415 -0.5858  1.6707
18151TIP3    H275869   4.307   3.131  14.197 -1.1860 -0.5821  0.0939
18152TIP3   OH275870   6.179   2.699  16.294 -0.3896 -0.2832 -0.0091
18152TIP3    H175871   6.189   2.610  16.262 -0.7984 -0.3535  0.0559
18152TIP3    H275872   6.144   2.748  16.220  0.0626 -0.1222 -0.1178
18153TIP3   OH275873   1.139   1.372  12.665  0.2057  0.6967 -0.2480
18153TIP3    H175874   1.113   1.355  12.756  0.9810  0.6328 -0.0293
18153TIP3    H275875   1.091   1.307  12.614  2.2353 -1.4721  0.4666
18154TIP3   OH275876   6.490   3.780   0.035 -0.2120  0.5278  0.7327
18154TIP3    H175877   6.568   3.749  -0.009  0.1589 -1.0797  2.4345
18154TIP3    H275878   6.422   3.778  -0.032  0.8429  0.3379 -0.3429
18155TIP3   OH275879   6.053   5.191  14.884 -0.9942  0.0388 -0.4017
18155TIP3    H175880   6.024   5.282  14.886 -1.7992 -0.2239  0.4170
18155TIP3    H275881   6.003   5.150  14.813 -3.3861 -0.6319  1.5755
18156TIP3   OH275882   0.416   1.362   0.355  0.0588  0.4779 -0.2493
18156TIP3    H175883   0.483   1.419   0.317 -0.5189 -0.3323 -2.5418
18156TIP3    H275884   0.466   1.295   0.402  0.8809  0.1009 -1.6135
18157TIP3   OH275885   6.012   6.477  15.298 -0.8753 -0.5918  0.5853
18157TIP3    H175886   6.071   6.539  15.341 -2.3100  1.9698 -0.9818
18157TIP3    H275887   5.990   6.414  15.366  0.3076  0.8379  2.3676
18158TIP3   OH275888   0.718   2.455   0.629  0.0194  0.4543  0.0175
18158TIP3    H175889   0.803   2.500   0.635  0.6630 -1.0438  3.2423
18158TIP3    H275890   0.736   2.378   0.575  0.6970  0.1762  0.6364
18159TIP3   OH275891   4.577   3.387   5.880 -0.0355 -0.0431  0.5494
18159TIP3    H175892   4.584   3.392   5.785  0.1314 -1.0196  0.5138
18159TIP3    H275893   4.500   3.440   5.901 -1.1851 -1.3521 -0.2849
18160TIP3   OH275894   5.153   0.555   3.967  0.0520  0.0319  0.4906
18160TIP3    H175895   5.168   0.567   3.874 -1.5951 -0.9103  0.0843
18160TIP3    H275896   5.068   0.596   3.984 -0.4594 -1.2749  1.2281
18161TIP3   OH275897   3.831   3.575  16.529  0.2880  0.2510 -0.5555
18161TIP3    H175898   3.796   3.552  16.615 -0.5408  1.5096 -0.5462
18161TIP3    H275899   3.759   3.558  16.469  0.9865 -0.9945 -1.0738
18162TIP3   OH275900   6.361   2.180   0.377 -0.0310 -0.0175 -0.1199
18162TIP3    H175901   6.366   2.086   0.360  0.2342  0.0479 -0.4032
18162TIP3    H275902   6.271   2.204   0.353  0.1694 -0.0325 -0.9053
18163TIP3   OH275903   4.848   2.756  11.903  0.0852  0.2590  0.7070
18163TIP3    H175904   4.769   2.792  11.943 -0.2095 -0.5769  0.8787
18163TIP3    H275905   4.888   2.703  11.972 -0.2017 -0.8467  0.0425
18164TIP3   OH275906   5.958   2.658   5.603 -0.6503  0.0488 -0.4948
18164TIP3    H175907   5.875   2.612   5.590 -0.1559 -1.1965  0.5821
18164TIP3    H275908   5.947   2.704   5.686  0.2026 -1.2071  0.3242
18165TIP3   OH275909   6.561   2.733   5.718  0.0078  0.3780  0.0002
18165TIP3    H175910   6.612   2.709   5.641 -1.8356  1.5914 -1.6478
18165TIP3    H275911   6.531   2.649   5.753  2.0465 -0.2744  0.2749
18166TIP3   OH275912   5.513   1.849  15.004  0.4695 -0.3580 -0.1030
18166TIP3    H175913   5.579   1.918  14.988  0.2234  0.4923  2.3310
18166TIP3    H275914   5.429   1.895  14.997  0.2922 -0.4837  1.0931
18167TIP3   OH275915   2.092   2.956   5.111 -0.3011 -0.1036 -0.1967
18167TIP3    H175916   2.141   2.878   5.084  0.5165 -0.1189  1.2779
18167TIP3    H275917   2.004   2.924   5.130 -0.5242 -0.3139 -1.4968
18168TIP3   OH275918   5.010   2.515  11.469 -0.3085 -0.4331 -0.0679
18168TIP3    H175919   4.949   2.510  11.543  0.0254  0.8546  0.3206
18168TIP3    H275920   4.999   2.433  11.422  0.5526 -1.9110  2.2632
18169TIP3   OH275921   4.484   4.643   0.584 -0.3863 -0.4904  0.8804
18169TIP3    H175922   4.473   4.645   0.679 -0.4482  2.4769  0.8464
18169TIP3    H275923   4.414   4.699   0.551  1.0349  0.3553 -0.7659
18170TIP3   OH275924   1.448   4.595  13.050 -0.0692  0.3714 -0.0336
18170TIP3    H175925   1.389   4.560  12.983 -0.8833  2.5086 -0.4553
18170TIP3    H275926   1.525   4.625  13.002  0.8132 -1.1400  0.3761
18171TIP3   OH275927   2.280   4.844   3.691  0.3588 -0.2331  0.1643
18171TIP3    H175928   2.332   4.774   3.652 -0.2404 -1.1172  0.9338
18171TIP3    H275929   2.288   4.831   3.785 -0.1387  0.4593  0.3116
18172TIP3   OH275930   4.504   5.252   4.467 -0.0365  0.0967 -0.1742
18172TIP3    H175931   4.494   5.336   4.512 -1.0618 -0.6862  1.0791
18172TIP3    H275932   4.595   5.226   4.487 -0.1488  0.2543  0.5860
18173TIP3   OH275933   6.089   0.763   4.033  0.3183  0.2527 -0.4592
18173TIP3    H175934   6.012   0.756   4.090  0.1535  4.1713 -0.1168
18173TIP3    H275935   6.161   0.730   4.086 -0.6569 -0.8616  0.1954
18174TIP3   OH275936   2.422   1.461   2.408  0.5476  0.0385  0.1442
18174TIP3    H175937   2.350   1.468   2.470  0.2532 -0.9231 -0.0719
18174TIP3    H275938   2.500   1.447   2.462  0.0584 -2.5189  0.2650
18175TIP3   OH275939   0.889   5.298  16.881 -0.3927  0.3123  0.1791
18175TIP3    H175940   0.965   5.240  16.894 -2.2407 -1.7673  1.9562
18175TIP3    H275941   0.876   5.340  16.966 -1.8586 -0.1101  0.1670
18176TIP3   OH275942   5.507   6.088  14.728  0.3532 -0.2059 -0.2115
18176TIP3    H175943   5.483   6.055  14.641 -1.5661 -0.9051  0.5393
18176TIP3    H275944   5.474   6.178  14.729  1.8582  0.3664 -0.7771
18177TIP3   OH275945   2.442   3.298  16.840 -0.1480 -0.1710  0.6036
18177TIP3    H175946   2.472   3.284  16.929  1.9225  2.0443  0.2848
18177TIP3    H275947   2.351   3.325  16.849  0.1302  0.3166  2.0622
18178TIP3   OH275948   3.602   2.650  13.265  0.0042  0.7020  0.1612
18178TIP3    H175949   3.597   2.742  13.237  2.8292  0.9882  0.4150
18178TIP3    H275950   3.569   2.650  13.354 -1.0903  1.2713 -0.2370
18179TIP3   OH275951   2.615   1.632   6.008  0.0363 -0.0731  0.2354
18179TIP3    H175952   2.546   1.609   6.071  0.1758  0.0713  0.4427
18179TIP3    H275953   2.652   1.714   6.042 -1.5490  1.3364 -1.3879
18180TIP3   OH275954   4.484   4.746  15.828 -0.0251 -0.1916 -0.2311
18180TIP3    H175955   4.508   4.821  15.773 -0.6455 -0.0995 -0.3751
18180TIP3    H275956   4.533   4.673  15.791 -1.0535 -0.2998 -1.4114
18181TIP3   OH275957   4.185   0.978  16.570 -0.2238  0.2465  0.1457
18181TIP3    H175958   4.219   1.064  16.593 -0.8691  0.7367 -0.7290
18181TIP3    H275959   4.254   0.938  16.517  0.4616 -0.1418  1.3090
18182TIP3   OH275960   1.588   3.323   2.679  0.2968  0.1720 -0.0033
18182TIP3    H175961   1.603   3.257   2.611  0.2035 -1.1388  1.2087
18182TIP3    H275962   1.633   3.288   2.756 -0.0141  1.3815  0.7383
18183TIP3   OH275963   0.574   4.326  11.901 -0.1333 -0.0050 -0.3962
18183TIP3    H175964   0.532   4.406  11.934 -0.1378 -0.0367 -0.3253
18183TIP3    H275965   0.510   4.257  11.917 -0.3755  0.0782 -1.0126
18184TIP3   OH275966   5.957   6.488  14.162 -0.2522 -0.6132 -0.1043
18184TIP3    H175967   5.962   6.480  14.258  0.1725 -0.5641 -0.1174
18184TIP3    H275968   5.875   6.446  14.138 -1.6524  1.6787  0.5390
18185TIP3   OH275969   5.191   3.324  15.634 -0.0503 -0.5878 -0.2225
18185TIP3    H175970   5.197   3.345  15.728  0.8915 -0.3192 -0.3317
18185TIP3    H275971   5.099   3.339  15.612  0.0571  0.9506  0.2906
18186TIP3   OH275972   5.553   4.978  15.397 -0.6334  0.2325  0.0814
18186TIP3    H175973   5.551   5.068  15.365 -3.0015  0.7248  1.4457
18186TIP3    H275974   5.596   4.928  15.327  0.9422  2.4434 -0.5725
18187TIP3   OH275975   4.531   6.387  10.352 -0.4039 -0.3281  0.5865
18187TIP3    H175976   4.608   6.410  10.300  0.6797  0.3857  2.4703
18187TIP3    H275977   4.465   6.364  10.287 -0.0777  3.5153 -1.2401
18188TIP3   OH275978   6.459   4.670  14.454 -0.3086 -0.1818 -0.1840
18188TIP3    H175979   6.465   4.759  14.418 -0.7233  0.0083  0.2041
18188TIP3    H275980   6.421   4.683  14.541 -0.8767 -0.7996 -0.3387
18189TIP3   OH275981   2.967   5.011  13.864  0.7150 -0.0400  0.1405
18189TIP3    H175982   2.954   5.071  13.938  0.2209 -1.2586  1.0408
18189TIP3    H275983   3.060   4.988  13.869  0.3233 -1.4168  1.3859
18190TIP3   OH275984   6.632   3.591  11.536  0.8916 -0.5844 -0.1240
18190TIP3    H175985   6.600   3.563  11.450 -1.3589 -1.0298  0.8436
18190TIP3    H275986   6.720   3.626  11.518 -0.6346  2.0167 -3.0517
18191TIP3   OH275987   0.764   2.296  16.303 -0.1640 -0.6218  0.2598
18191TIP3    H175988   0.746   2.310  16.396 -1.4497 -0.6350  0.0213
18191TIP3    H275989   0.771   2.201  16.293 -2.6205 -0.8124 -0.0879
18192TIP3   OH275990   4.297   1.379   5.170 -0.0088 -0.0463 -0.0725
18192TIP3    H175991   4.346   1.433   5.107  0.2651 -0.2673 -0.0498
18192TIP3    H275992   4.217   1.356   5.123  0.1135 -0.0622 -0.2766
18193TIP3   OH275993   1.037   3.483   2.420 -0.6128 -0.1193 -0.1883
18193TIP3    H175994   1.017   3.433   2.499 -2.0700  0.8029  0.0573
18193TIP3    H275995   0.954   3.524   2.396 -0.1046 -0.1100 -2.0144
18194TIP3   OH275996   5.517   1.751  12.634 -0.0812  0.0434 -0.0108
18194TIP3    H175997   5.508   1.700  12.553 -1.9645  0.2452  0.0400
18194TIP3    H275998   5.607   1.783  12.632  0.2372 -0.8779 -1.4849
18195TIP3   OH275999   0.228   1.072   1.441  0.0741 -0.2040 -0.0436
18195TIP3    H176000   0.228   1.061   1.346  1.1640  1.7112 -0.2838
18195TIP3    H276001   0.185   1.156   1.456  0.1697 -0.3560  1.1354
18196TIP3   OH276002   0.276   1.071  16.626  0.4372  0.1417  0.0906
18196TIP3    H176003   0.297   1.164  16.637  0.7230  0.2791 -1.4781
18196TIP3    H276004   0.186   1.070  16.593 -0.8368 -0.3090  3.3378
18197TIP3   OH276005   6.460   4.233  14.562 -1.0546 -0.3912 -0.1903
18197TIP3    H176006   6.371   4.249  14.530 -1.4555 -1.4838  0.3740
18197TIP3    H276007   6.456   4.254  14.655 -0.2193  1.4680 -0.5412
18198TIP3   OH276008   6.058   3.366  15.378  0.1109  0.5376  0.1547
18198TIP3    H176009   6.006   3.348  15.300 -0.6072  0.1070  0.7270
18198TIP3    H276010   6.148   3.373  15.345 -0.2532  0.9097 -0.7836
18199TIP3   OH276011   4.621   4.981  16.357 -0.1154  0.4481 -0.1570
18199TIP3    H176012   4.714   4.970  16.379 -0.2862 -0.4767  0.0883
18199TIP3    H276013   4.592   5.054  16.413  0.1464 -0.0764  0.6685
18200TIP3   OH276014   0.914   0.083  16.715 -0.2461 -0.3001 -0.2997
18200TIP3    H176015   0.921   0.138  16.792 -0.2188 -1.1945  0.3509
18200TIP3    H276016   0.961   0.131  16.647  3.6410 -1.4888  1.3744
18201TIP3   OH276017   1.099   4.678   0.365 -0.1541  0.7172 -0.3578
18201TIP3    H176018   1.136   4.752   0.414  1.4271 -1.0932  1.2322
18201TIP3    H276019   1.055   4.625   0.431  0.0364 -0.5702 -1.2384
18202TIP3   OH276020   1.419   0.872  10.976 -0.1881  0.5947  0.1216
18202TIP3    H176021   1.477   0.798  10.997  0.6339  0.9319 -0.9391
18202TIP3    H276022   1.426   0.930  11.052 -0.9828 -0.4975  1.0446
18203TIP3   OH276023   0.242   4.325  10.770  0.6583  0.4153  0.6067
18203TIP3    H176024   0.301   4.250  10.759 -0.3377 -0.0300 -2.4141
18203TIP3    H276025   0.287   4.398  10.729 -0.4484  0.2820 -0.9081
18204TIP3   OH276026   5.492   5.721  10.340 -0.3844  0.1453 -1.0183
18204TIP3    H176027   5.505   5.812  10.314  0.8481  0.6698  1.2463
18204TIP3    H276028   5.399   5.715  10.362 -0.7886  0.4456 -2.6132
18205TIP3   OH276029   1.123   4.845   4.964 -0.1915 -0.5773 -0.0602
18205TIP3    H176030   1.045   4.791   4.975  1.0932 -2.3834  0.4058
18205TIP3    H276031   1.090   4.935   4.963 -2.5163 -1.3922 -2.0106
18206TIP3   OH276032   0.058   6.591   2.969  0.1912 -0.0654 -0.1563
18206TIP3    H176033   0.047   6.683   2.946 -0.6023 -0.1152  0.0230
18206TIP3    H276034   0.077   6.592   3.063 -1.4145 -0.1806  0.1871
18207TIP3   OH276035   1.554   4.445  14.278 -0.0923  0.5086  0.1738
18207TIP3    H176036   1.528   4.499  14.352 -0.5003  1.3703 -0.5902
18207TIP3    H276037   1.638   4.407  14.304 -0.7931 -0.1344  1.5556
18208TIP3   OH276038   1.644   2.197  13.840 -0.0610 -0.2428  0.0146
18208TIP3    H176039   1.609   2.172  13.755  0.6332  1.5823 -0.8507
18208TIP3    H276040   1.618   2.127  13.900 -0.9838 -1.2858 -1.6000
18209TIP3   OH276041   5.690   0.277   6.111 -0.2437  0.0845  0.0629
18209TIP3    H176042   5.634   0.343   6.153  1.4640  2.0411 -0.6541
18209TIP3    H276043   5.771   0.278   6.164  0.1555 -0.7545 -0.5251
18210TIP3   OH276044   5.794   2.944   4.347  0.6483  0.7816 -0.1396
18210TIP3    H176045   5.814   2.904   4.432 -1.9045 -0.7470 -0.2334
18210TIP3    H276046   5.702   2.926   4.332  1.3184 -0.0479 -3.8295
18211TIP3   OH276047   0.345   1.468   4.535 -0.1003 -0.0999  0.6486
18211TIP3    H176048   0.266   1.440   4.581 -0.0697 -1.6273 -0.2072
18211TIP3    H276049   0.334   1.563   4.524 -0.7889  0.0520  2.4677
18212TIP3   OH276050   2.145   4.878  13.349  0.0342 -0.5055 -0.5465
18212TIP3    H176051   2.059   4.855  13.385 -1.2009  3.2811 -0.8574
18212TIP3    H276052   2.133   4.874  13.254  1.1560 -3.0713 -0.6217
18213TIP3   OH276053   0.536   0.973   4.329  0.9141  0.2335  0.0916
18213TIP3    H176054   0.476   1.040   4.364  0.7613  0.6297 -0.9332
18213TIP3    H276055   0.556   0.918   4.405  0.3373  0.9140  0.7484
18214TIP3   OH276056   2.049   2.102   5.078 -0.1397  0.0082  0.0652
18214TIP3    H176057   2.082   2.119   5.166 -2.2839  1.4066  0.6256
18214TIP3    H276058   2.052   2.187   5.034  0.9105 -0.6798 -1.2391
18215TIP3   OH276059   2.167   0.704  16.969 -0.4592 -0.9194 -0.3716
18215TIP3    H176060   2.100   0.748  17.021 -0.8436 -1.0885 -0.7212
18215TIP3    H276061   2.246   0.710  17.022 -0.6276 -0.2462 -0.1970
18216TIP3   OH276062   3.958   2.680  14.194 -0.2434  0.2369  0.3439
18216TIP3    H176063   3.990   2.716  14.112 -1.6604 -0.4085 -0.5107
18216TIP3    H276064   3.894   2.744  14.226  1.2325  1.0973  1.5919
18217TIP3   OH276065   5.926   1.165   2.874  0.1402 -0.0126 -0.2971
18217TIP3    H176066   5.858   1.177   2.808 -0.6987  0.1758  0.5861
18217TIP3    H276067   5.936   1.251   2.915  0.0592 -0.3206  0.3808
18218TIP3   OH276068   2.056   1.099   3.545 -0.1522 -0.7617 -0.4410
18218TIP3    H176069   2.112   1.082   3.620 -0.6837 -0.0354  0.1274
18218TIP3    H276070   2.053   1.195   3.538 -1.3292 -0.7922 -0.4528
18219TIP3   OH276071   0.965   5.181   2.088  0.0319 -0.5389 -0.0695
18219TIP3    H176072   0.883   5.147   2.126 -0.0167 -1.2724 -0.8378
18219TIP3    H276073   0.938   5.260   2.040 -0.0316 -0.0777  0.7067
18220TIP3   OH276074   5.108   6.181  10.753 -0.3620 -0.8234 -0.1349
18220TIP3    H176075   5.187   6.230  10.779 -0.6499 -0.3959 -0.0549
18220TIP3    H276076   5.036   6.229  10.794 -0.6380 -1.3721  0.0122
18221TIP3   OH276077   2.468   0.083   0.541 -0.6752  0.4170  0.1250
18221TIP3    H176078   2.418   0.163   0.524 -0.1460  0.1176 -3.0471
18221TIP3    H276079   2.419   0.014   0.497  1.2822 -0.2496 -1.0620
18222TIP3   OH276080   1.791   2.468   0.024  0.4126  0.0754  0.2714
18222TIP3    H176081   1.805   2.546   0.077  1.6345  0.5597 -0.7531
18222TIP3    H276082   1.869   2.414   0.041  0.8997  0.3187 -1.1672
18223TIP3   OH276083   3.631   5.939  12.359 -0.1954  0.3936  0.0418
18223TIP3    H176084   3.647   5.855  12.317  0.2774 -0.0331  1.0593
18223TIP3    H276085   3.541   5.962  12.334  0.1370  0.2392 -1.3274
18224TIP3   OH276086   1.936   1.949   2.697  0.1627 -0.0710  0.0595
18224TIP3    H176087   2.003   1.979   2.758  0.8041 -1.7740  0.2256
18224TIP3    H276088   1.960   1.990   2.613  0.2873  0.8568  0.5408
18225TIP3   OH276089   3.034   3.768  12.159  0.4632  0.3671 -0.6665
18225TIP3    H176090   3.089   3.721  12.096  1.1901  1.8465 -1.1649
18225TIP3    H276091   2.949   3.725  12.154  1.2585 -1.2575 -0.6804
18226TIP3   OH276092   2.602   1.138  11.738 -0.0207  0.3880  0.2612
18226TIP3    H176093   2.688   1.132  11.780  0.7442  1.3302 -1.1256
18226TIP3    H276094   2.552   1.066  11.776  1.3804 -0.1694  1.0946
18227TIP3   OH276095   4.553   5.746   0.551 -0.0619  0.6101  0.0947
18227TIP3    H176096   4.547   5.717   0.460  1.5631 -0.2983  0.2466
18227TIP3    H276097   4.609   5.823   0.548 -0.3450  0.8216  0.2673
18228TIP3   OH276098   1.372   0.616   5.306  0.2707  0.2684 -0.8457
18228TIP3    H176099   1.431   0.683   5.342 -1.1546  0.2872  1.6143
18228TIP3    H276100   1.429   0.558   5.256  2.5112  0.0392  1.8041
18229TIP3   OH276101   4.167   0.827  12.832 -0.7611 -0.2250 -0.4023
18229TIP3    H176102   4.155   0.913  12.873  0.2033 -0.3309  0.1384
18229TIP3    H276103   4.134   0.838  12.743 -0.9529  0.6143 -0.2337
18230TIP3   OH276104   0.651   0.953   0.627  0.1230 -0.1979 -0.3464
18230TIP3    H176105   0.722   1.015   0.614  1.3069 -0.7991  2.7435
18230TIP3    H276106   0.694   0.868   0.632 -0.8386 -0.6304  0.9533
18231TIP3   OH276107   4.961   6.644   2.791 -0.6651 -0.0414  0.1562
18231TIP3    H176108   4.935   6.709   2.726 -1.7710 -1.4851 -0.8740
18231TIP3    H276109   4.980   6.565   2.741  1.7614 -0.2415  1.2766
18232TIP3   OH276110   3.076   1.741   4.156  0.0457  0.6190  0.1139
18232TIP3    H176111   2.982   1.746   4.173 -0.2315  1.3190 -1.4615
18232TIP3    H276112   3.110   1.827   4.180 -0.2288  1.3613 -1.9981
18233TIP3   OH276113   1.181   1.255  13.176 -0.2153 -0.4569  0.5701
18233TIP3    H176114   1.086   1.255  13.164 -0.0964  2.1205 -0.9289
18233TIP3    H276115   1.216   1.248  13.087  0.9617  0.0064  0.9874
18234TIP3   OH276116   5.370   6.161  10.368  0.6613  0.4889 -0.1549
18234TIP3    H176117   5.364   6.247  10.411 -1.2168  0.7524 -0.9127
18234TIP3    H276118   5.297   6.111  10.404  1.3451 -0.6007 -0.2278
18235TIP3   OH276119   5.904   3.091  11.529  0.6045  0.2255  0.7541
18235TIP3    H176120   5.905   3.176  11.484  2.8243  0.1320  0.5522
18235TIP3    H276121   5.814   3.061  11.522  0.2920  1.5335 -1.1723
18236TIP3   OH276122   2.076   1.829  11.380  0.7412  0.0403  0.0168
18236TIP3    H176123   2.119   1.746  11.360 -0.4905 -0.8666  1.1219
18236TIP3    H276124   2.000   1.806  11.433 -0.9868  1.6460 -1.6562
18237TIP3   OH276125   1.619   3.133   1.073 -0.0754  0.3784  0.7290
18237TIP3    H176126   1.576   3.096   1.151 -0.9234  0.6193  0.3797
18237TIP3    H276127   1.602   3.070   1.004  1.4084 -0.2604  0.9166
18238TIP3   OH276128   0.900   2.771  15.293  0.3332  0.6850 -0.2728
18238TIP3    H176129   0.844   2.744  15.220  0.0689  0.0361  0.1671
18238TIP3    H276130   0.950   2.846  15.259  0.4214  0.2026 -1.2068
18239TIP3   OH276131   0.531   5.652  10.520 -0.2450 -0.0967 -0.3453
18239TIP3    H176132   0.613   5.623  10.561 -0.1137  0.5653 -0.1377
18239TIP3    H276133   0.539   5.747  10.514 -1.8730  0.1898  1.5742
18240TIP3   OH276134   6.200   0.784  16.578  0.2556 -0.9107  0.0503
18240TIP3    H176135   6.167   0.701  16.545 -1.1823 -0.5224  0.5123
18240TIP3    H276136   6.279   0.800  16.527 -0.9403 -1.2239 -1.9274
18241TIP3   OH276137   4.710   3.951   0.398 -0.0260  0.2145  0.1559
18241TIP3    H176138   4.708   4.046   0.404 -0.1177  0.3693 -1.9020
18241TIP3    H276139   4.800   3.927   0.419 -0.0721  0.7211  0.9505
18242TIP3   OH276140   5.645   1.773  13.032 -0.0244  0.0100 -0.6104
18242TIP3    H176141   5.618   1.765  13.124  2.2509 -0.9951  0.0154
18242TIP3    H276142   5.600   1.700  12.988  0.4221 -0.7210  0.1137
18243TIP3   OH276143   0.159   4.575   0.488 -0.5324  0.0924  0.4320
18243TIP3    H176144   0.221   4.648   0.488  0.1160 -0.4485 -0.7247
18243TIP3    H276145   0.174   4.531   0.405 -2.7529  0.1703 -0.0248
18244TIP3   OH276146   6.203   2.389   4.327 -0.4201 -0.2184  0.5490
18244TIP3    H176147   6.295   2.369   4.341 -0.2419  0.5638  0.5084
18244TIP3    H276148   6.179   2.339   4.249 -0.5610 -2.0314  1.7160
18245TIP3   OH276149   6.562   1.839   1.968  0.0651 -0.1358  0.0693
18245TIP3    H176150   6.473   1.854   1.934  0.0826  0.4578  0.2787
18245TIP3    H276151   6.552   1.765   2.028 -0.2850 -0.0798  0.0812
18246TIP3   OH276152   2.677   4.342   0.805 -0.1817  0.1782 -0.2472
18246TIP3    H176153   2.704   4.252   0.823 -0.0038  0.3696  0.4477
18246TIP3    H276154   2.652   4.341   0.713 -1.5117 -0.9011  0.1116
18247TIP3   OH276155   3.569   0.450   1.711  0.2237  0.0804  0.6486
18247TIP3    H176156   3.502   0.393   1.747 -0.1419  1.1662  1.7391
18247TIP3    H276157   3.521   0.511   1.656  0.5689 -0.4526 -0.2399
18248TIP3   OH276158   3.209   3.829  14.564 -0.1065 -0.0311  0.2712
18248TIP3    H176159   3.195   3.823  14.658 -0.1743 -0.2962  0.2462
18248TIP3    H276160   3.185   3.742  14.530 -1.6558  0.5644 -0.2007
18249TIP3   OH276161   5.679   0.643  17.194 -0.1342 -0.3290 -0.0883
18249TIP3    H176162   5.675   0.720  17.251  1.9284 -0.9258  0.9158
18249TIP3    H276163   5.657   0.676  17.107  2.9156  1.8728 -0.1070
18250TIP3   OH276164   5.497   5.238   5.870 -0.2097 -0.1229 -0.5897
18250TIP3    H176165   5.449   5.227   5.952 -0.1047 -1.4363 -0.6901
18250TIP3    H276166   5.583   5.271   5.897 -0.4605  0.2431 -0.2415
18251TIP3   OH276167   3.889   5.540   2.266  0.4337  0.9331  0.5648
18251TIP3    H176168   3.933   5.623   2.247  2.1776  0.8933  3.9649
18251TIP3    H276169   3.955   5.487   2.311 -0.7726 -2.1893 -1.2225
18252TIP3   OH276170   4.076   6.747  14.185 -0.4547  0.1824 -0.0774
18252TIP3    H176171   4.096   6.808  14.114 -1.2630 -2.1572 -2.3984
18252TIP3    H276172   4.157   6.700  14.201 -0.8746 -0.8913 -1.0684
18253TIP3   OH276173   3.681   5.006   0.686  0.5518  0.1911  0.2440
18253TIP3    H176174   3.747   4.937   0.681 -0.2493 -0.4814 -1.6545
18253TIP3    H276175   3.730   5.087   0.674  1.2158 -0.2021  0.2970
18254TIP3   OH276176   1.306   6.304   3.157  0.5270  0.0868  0.3130
18254TIP3    H176177   1.219   6.330   3.126 -0.3199 -1.7663  1.0676
18254TIP3    H276178   1.359   6.298   3.077 -1.3272 -3.5166 -0.7938
18255TIP3   OH276179   1.811   4.338  14.347  0.0708  0.3198 -0.5314
18255TIP3    H176180   1.783   4.254  14.309  0.7094 -0.4375  0.6209
18255TIP3    H276181   1.855   4.313  14.429 -0.4542  1.8457  0.2280
18256TIP3   OH276182   2.750   6.273   2.544 -0.3372  0.4193  0.3352
18256TIP3    H176183   2.719   6.363   2.540 -0.8844  0.2511  0.6883
18256TIP3    H276184   2.786   6.264   2.632  0.9934  0.6989 -0.1758
18257TIP3   OH276185   0.385   4.788  15.599 -0.2310  0.0701  0.0763
18257TIP3    H176186   0.424   4.702  15.618  1.3204  0.9117  0.7501
18257TIP3    H276187   0.297   4.783  15.636  0.2505 -0.8197  1.1367
18258TIP3   OH276188   0.605   0.125  11.886  0.5570 -0.5890  0.5655
18258TIP3    H176189   0.630   0.193  11.824 -1.6029  0.5362  0.8507
18258TIP3    H276190   0.687   0.097  11.927  1.5039  1.8148  0.3951
18259TIP3   OH276191   6.051   0.875   4.417 -0.8487  0.2242  0.4891
18259TIP3    H176192   6.106   0.940   4.374  0.2891 -1.5831 -0.8476
18259TIP3    H276193   5.997   0.839   4.347 -1.5263 -0.2063  1.2212
18260TIP3   OH276194   4.193   1.037  13.070  0.5982 -0.0752 -0.7216
18260TIP3    H176195   4.207   1.131  13.067  1.6531 -0.1948  0.1151
18260TIP3    H276196   4.127   1.020  13.003  0.5022  1.2344 -0.9666
18261TIP3   OH276197   2.180   2.240  12.129 -0.2246 -0.0565 -0.7890
18261TIP3    H176198   2.103   2.202  12.088  0.4898 -0.9662 -1.3225
18261TIP3    H276199   2.198   2.184  12.204  1.1725 -1.1466 -1.9125
18262TIP3   OH276200   0.024   0.590   5.198 -0.3145 -0.0087 -0.0968
18262TIP3    H176201   0.006   0.661   5.136 -2.4352  0.5670  1.1127
18262TIP3    H276202   0.001   0.626   5.284  2.2947 -0.8869  1.0319
18263TIP3   OH276203   2.547   3.755   3.991  0.4872  0.0845 -0.7592
18263TIP3    H176204   2.455   3.728   3.997  0.8165 -1.0752 -0.7721
18263TIP3    H276205   2.595   3.673   3.975  1.6640  0.4635  0.6700
18264TIP3   OH276206   4.885   5.919  16.226  0.5232  0.6652  0.2686
18264TIP3    H176207   4.926   5.912  16.140 -1.1073  1.4474 -0.5941
18264TIP3    H276208   4.892   6.012  16.249  0.6748  0.5156  0.8457
18265TIP3   OH276209   0.651   4.308  14.988 -0.4217  0.0003 -0.5582
18265TIP3    H176210   0.697   4.229  14.957 -2.5865 -1.5344  0.0213
18265TIP3    H276211   0.671   4.375  14.923  2.3275 -0.7182 -0.5120
18266TIP3   OH276212   4.509   1.873  14.175  0.0277  0.3605 -0.3844
18266TIP3    H176213   4.433   1.930  14.162 -0.7416 -0.5345  0.0910
18266TIP3    H276214   4.477   1.804  14.233  1.3496  0.2362  0.2029
18267TIP3   OH276215   2.023   4.782   1.248 -0.4464  0.4320  0.0607
18267TIP3    H176216   2.086   4.852   1.262  0.7583 -0.6157 -0.0151
18267TIP3    H276217   1.952   4.822   1.198  0.6543  1.3785 -0.7664
18268TIP3   OH276218   2.177   4.869  11.144 -0.4217  0.6476  0.6729
18268TIP3    H176219   2.195   4.776  11.129 -2.4763  0.3676 -0.1369
18268TIP3    H276220   2.205   4.912  11.063 -0.4406  0.6107  0.6467
18269TIP3   OH276221   4.245   1.349   4.383 -0.2522 -0.0170 -0.1811
18269TIP3    H176222   4.250   1.438   4.418 -0.3091  0.0239 -0.2784
18269TIP3    H276223   4.335   1.328   4.356  0.0253 -0.4679  1.0343
18270TIP3   OH276224   1.510   2.164   0.769  0.2239  0.0446 -0.1572
18270TIP3    H176225   1.476   2.114   0.843  1.5749 -0.9652 -0.1934
18270TIP3    H276226   1.556   2.099   0.716 -0.3611  0.8340 -1.6622
18271TIP3   OH276227   2.214   5.721   0.386 -0.1335  0.0700 -0.0170
18271TIP3    H176228   2.214   5.816   0.398  0.6652  0.0939 -0.1887
18271TIP3    H276229   2.293   5.703   0.335  0.8174 -0.9143  1.7683
18272TIP3   OH276230   5.819   3.257   4.243 -0.6851 -0.4982  0.0190
18272TIP3    H176231   5.804   3.167   4.272  1.4833 -1.2194 -0.9675
18272TIP3    H276232   5.800   3.255   4.149 -4.1127  0.9543  0.6144
18273TIP3   OH276233   0.603   2.449   1.714  0.1497  0.0648 -0.1333
18273TIP3    H176234   0.547   2.453   1.791  0.6728 -0.4501  0.2822
18273TIP3    H276235   0.656   2.371   1.727 -0.5794 -0.7040 -1.5820
18274TIP3   OH276236   6.408   2.495  10.650 -0.0700  0.6969 -0.3709
18274TIP3    H176237   6.320   2.484  10.686 -0.0983 -1.5955 -1.0630
18274TIP3    H276238   6.426   2.412  10.606  2.5235  1.0633 -0.0513
18275TIP3   OH276239   3.085   1.818   2.282 -0.4188 -0.1576  0.2172
18275TIP3    H176240   2.994   1.841   2.263 -0.0798  0.3768 -0.8103
18275TIP3    H276241   3.090   1.725   2.260 -1.0739 -0.5583  1.6801
18276TIP3   OH276242   2.258   5.858   3.082 -0.9932  0.7644  0.1868
18276TIP3    H176243   2.247   5.763   3.076 -0.4819  0.5466  2.1916
18276TIP3    H276244   2.328   5.878   3.021 -1.2836 -0.1016 -0.4465
18277TIP3   OH276245   1.513   2.029   1.439  0.1050  0.2032 -0.8556
18277TIP3    H176246   1.494   1.973   1.514  0.5796 -0.5522 -1.2935
18277TIP3    H276247   1.430   2.071   1.419 -0.3863 -0.7739 -0.8812
18278TIP3   OH276248   1.246   6.669   1.796  0.0280  0.0121  0.1402
18278TIP3    H176249   1.171   6.645   1.851 -0.0952 -2.7128 -1.1309
18278TIP3    H276250   1.298   6.589   1.791  0.4924  0.4671 -2.9454
18279TIP3   OH276251   5.224   6.128   0.210  0.2904  0.0465  0.1533
18279TIP3    H176252   5.314   6.127   0.243  0.6041 -2.1018 -0.6872
18279TIP3    H276253   5.178   6.064   0.264 -0.0281 -0.9442 -1.2576
18280TIP3   OH276254   0.167   4.088  16.046 -0.3817 -0.1124  0.6103
18280TIP3    H176255   0.072   4.076  16.045 -0.3011 -0.8359 -1.5519
18280TIP3    H276256   0.192   4.088  15.953  1.8155 -0.6568  1.1794
18281TIP3   OH276257   2.731   0.985   1.922 -0.2723 -0.3206  0.6699
18281TIP3    H176258   2.640   1.011   1.938 -0.7329 -2.7957  2.3068
18281TIP3    H276259   2.735   0.894   1.949  2.1989 -0.8768 -1.4254
18282TIP3   OH276260   5.831   5.595   4.335 -0.1030  0.4355 -0.0456
18282TIP3    H176261   5.888   5.631   4.267  0.1185 -2.3402 -1.4148
18282TIP3    H276262   5.886   5.533   4.383 -0.8999  0.6754  1.2065
18283TIP3   OH276263   2.685   1.726  12.840 -0.0855  0.4105 -0.1756
18283TIP3    H176264   2.770   1.682  12.830 -1.5005 -2.3130 -0.5660
18283TIP3    H276265   2.667   1.763  12.754  1.1121  1.8491  0.1557
18284TIP3   OH276266   2.578   1.687  12.053  0.1783  0.4324 -0.4815
18284TIP3    H176267   2.657   1.698  12.107 -0.3266  0.1038  0.3330
18284TIP3    H276268   2.573   1.593  12.036  0.9216  0.6524 -2.0156
18285TIP3   OH276269   2.200   4.088   1.821 -0.7029  0.4621 -0.3945
18285TIP3    H176270   2.237   4.011   1.865  1.2451  1.1065 -0.8486
18285TIP3    H276271   2.162   4.053   1.740  2.6344  0.2964 -1.9597
18286TIP3   OH276272   1.892   4.522  12.979  0.2596  0.3638 -0.1618
18286TIP3    H176273   1.831   4.453  12.954  1.0326 -0.1606 -0.6013
18286TIP3    H276274   1.976   4.478  12.989  0.8248  1.2923 -0.7713
18287TIP3   OH276275   2.231   0.978   4.939  0.8545 -0.3737  0.1075
18287TIP3    H176276   2.302   1.023   4.894 -1.7927  2.3532 -1.5977
18287TIP3    H276277   2.172   0.950   4.869 -1.5572  0.7323  1.6153
18288TIP3   OH276278   3.382   4.334  14.500 -0.0110  0.9206  0.2603
18288TIP3    H176279   3.344   4.250  14.527 -0.9410  1.7486  1.5651
18288TIP3    H276280   3.451   4.352  14.564  0.3914  1.0126 -0.1934
18289TIP3   OH276281   6.356   1.218   0.035 -0.0734  0.0054 -0.0417
18289TIP3    H176282   6.320   1.155  -0.027  0.1073 -0.1116 -0.0268
18289TIP3    H276283   6.281   1.247   0.086 -0.1426 -0.2683  0.0129
18290TIP3   OH276284   2.502   5.790  13.005 -0.6772 -0.2624 -0.6569
18290TIP3    H176285   2.556   5.840  13.066 -1.1534 -0.7119  0.1494
18290TIP3    H276286   2.425   5.765  13.056 -2.0229  0.9973 -1.9916
18291TIP3   OH276287   3.871   0.700   3.635  0.3505  0.3521  0.0061
18291TIP3    H176288   3.923   0.764   3.587 -0.6528  0.6911 -0.6313
18291TIP3    H276289   3.793   0.747   3.663  0.4425 -0.1204  1.0781
18292TIP3   OH276290   5.358   4.463  12.846 -1.0771 -0.5973  0.5924
18292TIP3    H176291   5.315   4.382  12.874 -1.0832 -0.2451  1.6151
18292TIP3    H276292   5.450   4.450  12.870 -1.1488 -0.1469  1.1254
18293TIP3   OH276293   3.092   4.077  13.972  0.1353 -0.1285 -0.1073
18293TIP3    H176294   3.040   4.095  13.894 -0.0195  3.5822  0.7261
18293TIP3    H276295   3.176   4.119  13.954  0.1951  0.5204  1.5779
18294TIP3   OH276296   1.026   5.153   4.977  0.9485  0.4472  0.0562
18294TIP3    H176297   0.936   5.182   4.992  1.0214  0.4093  0.5957
18294TIP3    H276298   1.078   5.234   4.980  1.0205  0.3887  0.4973
18295TIP3   OH276299   5.310   2.408  13.838 -0.4087 -0.4327  0.0557
18295TIP3    H176300   5.245   2.441  13.899  0.3255  0.6541  0.2594
18295TIP3    H276301   5.392   2.448  13.865  0.3483 -1.7190 -0.2528
18296TIP3   OH276302   3.217   0.949  15.975 -0.7390 -0.1696  0.4072
18296TIP3    H176303   3.192   0.970  15.885 -0.8296  0.6132  0.6129
18296TIP3    H276304   3.249   0.859  15.970  0.5332  0.3229 -0.6563
18297TIP3   OH276305   4.053   2.098  12.004 -0.6569 -0.4375 -0.4381
18297TIP3    H176306   4.077   2.016  12.048  0.0687 -0.0683 -0.1229
18297TIP3    H276307   4.103   2.096  11.922 -2.6785 -1.5320 -1.6881
18298TIP3   OH276308   3.407   4.875  11.474 -0.7095  0.0061  0.2225
18298TIP3    H176309   3.362   4.898  11.392  2.3541  0.0650 -1.5075
18298TIP3    H276310   3.337   4.842  11.531 -2.8061 -0.7921 -2.6848
18299TIP3   OH276311   4.617   0.015   3.536  0.1487  0.3271 -0.2082
18299TIP3    H176312   4.608   0.003   3.441  0.3477 -0.1070 -0.1733
18299TIP3    H276313   4.634   0.108   3.546  1.2883  0.1869 -0.6996
18300TIP3   OH276314   4.745   2.149  13.502 -0.3053  0.1364  0.4948
18300TIP3    H176315   4.763   2.090  13.429  0.5712  2.8733 -1.5806
18300TIP3    H276316   4.657   2.123  13.532 -1.8706  0.6644 -3.2876
18301TIP3   OH276317   3.595   5.402  10.808  0.6437  0.1552  0.1347
18301TIP3    H176318   3.663   5.336  10.810 -0.9810 -1.6817 -2.2258
18301TIP3    H276319   3.524   5.367  10.862 -0.4076 -0.3029 -1.4931
18302TIP3   OH276320   0.283   1.684   0.302  0.0046 -0.4670  0.0506
18302TIP3    H176321   0.267   1.773   0.332  1.6044 -0.0900 -0.1873
18302TIP3    H276322   0.291   1.690   0.207 -1.8814 -1.1794 -0.1682
18303TIP3   OH276323   0.989   3.909  15.140  1.1991 -0.7215 -0.0426
18303TIP3    H176324   0.969   3.953  15.222 -0.7135 -2.2414  0.3467
18303TIP3    H276325   1.036   3.830  15.167  1.2967 -0.8079 -0.4681
18304TIP3   OH276326   6.766   1.173   4.974 -0.1489 -0.2634 -0.2447
18304TIP3    H176327   6.814   1.139   5.050 -2.2838 -0.5660  0.9949
18304TIP3    H276328   6.790   1.114   4.902  1.6138 -0.1820  0.2595
18305TIP3   OH276329   0.676   4.604   0.859  0.0468  0.2463  0.0713
18305TIP3    H176330   0.676   4.518   0.816 -0.2991  0.1362  0.2976
18305TIP3    H276331   0.609   4.654   0.813  1.7962  1.1474 -1.5766
18306TIP3   OH276332   5.256   1.604  12.673  0.2595  0.1783 -0.0817
18306TIP3    H176333   5.203   1.608  12.594  2.2819  0.3928 -1.4844
18306TIP3    H276334   5.332   1.659  12.653  0.7089  0.3840  2.0825
18307TIP3   OH276335   5.736   0.100   3.642 -0.1757  0.3106 -0.2999
18307TIP3    H176336   5.694   0.101   3.728 -1.1538  0.1199 -0.7628
18307TIP3    H276337   5.691   0.169   3.592  0.0025  0.0510 -0.8269
18308TIP3   OH276338   4.936   4.263   5.483  0.3131 -0.0863  0.3145
18308TIP3    H176339   4.846   4.231   5.480  0.0409  0.5043  1.7304
18308TIP3    H276340   4.961   4.255   5.575  1.0907  1.4310  0.2498
18309TIP3   OH276341   4.456   4.697   5.806 -0.3054  0.0162 -0.5109
18309TIP3    H176342   4.513   4.622   5.824 -0.0668  0.5866  1.2953
18309TIP3    H276343   4.375   4.677   5.854 -0.3140  0.8047 -0.1877
18310TIP3   OH276344   0.650   5.075  12.200  0.9706 -0.2048 -0.2907
18310TIP3    H176345   0.589   5.001  12.197 -0.5516  1.0412 -1.1067
18310TIP3    H276346   0.660   5.094  12.293 -0.3713 -0.0518 -0.1637
18311TIP3   OH276347   6.358   4.719  11.322 -0.6482  0.4338 -0.0355
18311TIP3    H176348   6.436   4.705  11.377 -0.0701 -2.0608 -1.4347
18311TIP3    H276349   6.393   4.728  11.233 -1.8841  0.2945 -0.5437
18312TIP3   OH276350   4.988   6.705  16.959 -0.6823 -0.0877 -0.3368
18312TIP3    H176351   5.067   6.662  16.992  0.1868  1.0558 -0.8910
18312TIP3    H276352   4.940   6.730  17.037 -0.4812 -0.7667  0.0101
18313TIP3   OH276353   2.254   0.977   4.242 -0.0993 -0.2670  0.0686
18313TIP3    H176354   2.182   0.969   4.179  0.4216  0.0714 -0.5782
18313TIP3    H276355   2.322   1.024   4.194  0.1228  0.4295  1.0415
18314TIP3   OH276356   2.597   6.534   0.104 -0.3429 -0.4566  0.8285
18314TIP3    H176357   2.610   6.621   0.142  0.5425 -0.0721 -0.3153
18314TIP3    H276358   2.522   6.545   0.045 -1.5516 -0.9884  2.2539
18315TIP3   OH276359   4.548   3.917  12.682 -0.0055 -0.3972  0.2906
18315TIP3    H176360   4.530   3.918  12.588 -1.4218 -1.6238  0.5431
18315TIP3    H276361   4.523   3.829  12.710  1.1260 -0.2856  1.6813
18316TIP3   OH276362   5.444   1.207  14.328 -0.0955  0.1960  0.7399
18316TIP3    H176363   5.509   1.259  14.280 -1.4680 -0.9073 -2.3867
18316TIP3    H276364   5.364   1.214  14.277 -1.3829 -1.7982  2.3834
18317TIP3   OH276365   2.828   5.338  15.991  0.0829 -0.3262  0.1830
18317TIP3    H176366   2.744   5.320  16.032 -0.7192 -0.4192 -1.4555
18317TIP3    H276367   2.868   5.252  15.979  1.6207 -0.1274  3.3580
18318TIP3   OH276368   3.929   4.539   5.005 -0.6679 -0.0184 -0.0084
18318TIP3    H176369   3.860   4.475   5.019  0.7725 -1.6235 -0.0674
18318TIP3    H276370   3.885   4.624   5.011 -2.5452 -0.9966  0.3718
18319TIP3   OH276371   1.223   3.984   1.736  0.3098  0.1803 -0.0861
18319TIP3    H176372   1.165   4.059   1.724  1.5803  1.1943 -0.0849
18319TIP3    H276373   1.283   3.988   1.661  1.9308  0.6274  1.2059
18320TIP3   OH276374   0.080   3.695  11.988 -0.1401 -0.2921  0.3143
18320TIP3    H176375   0.163   3.669  11.947  0.5955  1.0674  0.8986
18320TIP3    H276376   0.085   3.790  11.993 -1.3723 -0.2641  1.1534
18321TIP3   OH276377   5.231   3.684  10.771 -0.5192 -0.2312  0.0555
18321TIP3    H176378   5.153   3.734  10.793 -0.0676 -0.0607  1.3146
18321TIP3    H276379   5.233   3.613  10.835 -0.2481 -0.8910 -0.6726
18322TIP3   OH276380   2.000   5.320  16.895  0.2366 -0.6669  0.1389
18322TIP3    H176381   1.981   5.354  16.983 -0.2840  2.4089 -1.0776
18322TIP3    H276382   2.010   5.399  16.841 -0.4665 -2.4895 -2.7722
18323TIP3   OH276383   2.086   6.186  12.916 -0.1061  0.0840  0.4350
18323TIP3    H176384   2.059   6.256  12.976 -0.7685  1.0573 -0.9695
18323TIP3    H276385   2.105   6.112  12.973 -2.2273  0.5131  1.7523
18324TIP3   OH276386   0.347   2.502   1.262  0.3401  0.9253 -0.3465
18324TIP3    H176387   0.285   2.512   1.190 -0.2074  0.7543  0.1027
18324TIP3    H276388   0.304   2.444   1.324  0.5351  1.5964  0.4346
18325TIP3   OH276389   1.159   0.941  11.067 -0.2989  0.3644  0.2123
18325TIP3    H176390   1.201   1.023  11.091  0.1806 -0.0903  0.9700
18325TIP3    H276391   1.178   0.930  10.974 -2.0695  2.0985 -0.3893
18326TIP3   OH276392   5.890   2.443   1.515 -0.0164 -0.2827 -0.0966
18326TIP3    H176393   5.856   2.462   1.603  0.5881  0.1319  0.0481
18326TIP3    H276394   5.892   2.528   1.471  2.3225 -0.0530  0.4280
18327TIP3   OH276395   5.323   1.617   2.906 -0.6342  0.4780 -0.1199
18327TIP3    H176396   5.273   1.617   2.988 -1.1671  0.5992 -0.4428
18327TIP3    H276397   5.390   1.685   2.919 -0.2493 -0.0172  0.4941
18328TIP3   OH276398   2.465   1.761   2.573  0.3690  0.0953 -0.1803
18328TIP3    H176399   2.498   1.672   2.566 -0.4737 -0.3471  1.3256
18328TIP3    H276400   2.418   1.775   2.490 -0.6049 -1.3198  0.1141
18329TIP3   OH276401   6.685   4.868  13.292 -0.3462  0.0465 -0.5189
18329TIP3    H176402   6.685   4.957  13.257 -0.9860  0.1427 -0.2907
18329TIP3    H276403   6.595   4.838  13.278 -0.6726  0.1742  1.2748
18330TIP3   OH276404   0.198   5.043  13.800  0.2887 -0.4730 -0.2985
18330TIP3    H176405   0.148   4.994  13.866  0.1103  0.7545  0.4824
18330TIP3    H276406   0.130   5.084  13.746  0.4452 -0.3789 -0.4209
18331TIP3   OH276407   6.096   1.300  13.081  0.0947  0.5021  0.0721
18331TIP3    H176408   6.005   1.273  13.075  0.3055 -0.9587  2.6915
18331TIP3    H276409   6.096   1.370  13.147  0.7420  1.1682 -0.6185
18332TIP3   OH276410   2.267   0.605  15.600  0.1394 -0.7369 -0.2485
18332TIP3    H176411   2.288   0.557  15.680 -0.4827 -1.3467 -0.4425
18332TIP3    H276412   2.177   0.579  15.580 -0.0414  0.1506 -0.6195
18333TIP3   OH276413   4.937   0.972   4.823 -0.5565 -0.0776  0.4938
18333TIP3    H176414   4.888   0.922   4.757  1.7004  0.0237 -1.3375
18333TIP3    H276415   4.877   1.042   4.850 -2.4264 -1.6005  0.4201
18334TIP3   OH276416   0.837   5.547  17.012 -0.1953  0.3097 -0.3041
18334TIP3    H176417   0.769   5.525  16.948 -0.8839 -1.4224  0.9661
18334TIP3    H276418   0.788   5.576  17.089  0.6013  1.7637 -0.3431
18335TIP3   OH276419   1.166   6.260  14.121  0.2253  0.1531  0.6191
18335TIP3    H176420   1.089   6.292  14.169  0.4408 -0.5713  1.4601
18335TIP3    H276421   1.237   6.260  14.186  1.3424  2.3356 -0.5402
18336TIP3   OH276422   5.318   5.141  11.357 -0.0952  0.0257  0.2007
18336TIP3    H176423   5.406   5.139  11.395 -0.6488  1.9143  1.6977
18336TIP3    H276424   5.329   5.181  11.271  0.3689  1.3761  0.8729
18337TIP3   OH276425   6.570   3.335   0.228 -0.7272  1.1674  0.5772
18337TIP3    H176426   6.589   3.290   0.310 -0.2644  0.7519  0.2419
18337TIP3    H276427   6.601   3.424   0.241  0.0579  0.8920  0.5693
18338TIP3   OH276428   1.582   4.876   2.317  0.0022  0.1288 -0.1078
18338TIP3    H176429   1.538   4.955   2.287 -0.1766  0.0314 -0.0994
18338TIP3    H276430   1.662   4.908   2.359 -0.0768  0.3051 -0.0905
18339TIP3   OH276431   4.721   1.091  13.020  0.1053  0.1904 -0.6342
18339TIP3    H176432   4.774   1.170  13.027  0.6877 -0.2959  0.5387
18339TIP3    H276433   4.631   1.123  13.013  0.3464  0.9636 -0.2293
18340TIP3   OH276434   4.022   3.458   6.017  0.2338  1.1575 -0.8426
18340TIP3    H176435   3.936   3.445   6.056  0.6412 -1.1538 -0.6282
18340TIP3    H276436   4.006   3.458   5.923  0.0599  0.0806 -0.8223
18341TIP3   OH276437   6.412   2.233  13.224  0.4637  0.3833  0.5119
18341TIP3    H176438   6.424   2.220  13.318  1.7182  2.0683  0.6240
18341TIP3    H276439   6.387   2.147  13.190 -0.1835 -0.1932  2.4091
18342TIP3   OH276440   0.720   4.539  15.390 -0.5096 -0.5756  0.6505
18342TIP3    H176441   0.697   4.558  15.481 -1.5684  0.0052  0.2825
18342TIP3    H276442   0.787   4.605  15.368 -0.1813 -0.7800  1.0378
18343TIP3   OH276443   4.798   4.311   0.064 -0.6231 -0.2445 -0.3812
18343TIP3    H176444   4.711   4.301   0.104 -0.7787  1.6108 -0.2321
18343TIP3    H276445   4.825   4.399   0.087  1.6560 -1.0766  0.2004
18344TIP3   OH276446   3.141   3.870  14.840 -0.1623 -0.7051 -0.1751
18344TIP3    H176447   3.145   3.965  14.855 -1.2074 -0.8740  1.3215
18344TIP3    H276448   3.048   3.852  14.827  0.3721 -1.0568 -3.9348
18345TIP3   OH276449   0.448   1.061   1.917  0.1708 -0.3002 -0.0134
18345TIP3    H176450   0.472   0.983   1.867  0.0506 -0.4894  0.2261
18345TIP3    H276451   0.430   1.029   2.005 -2.0170 -0.3275 -0.4304
18346TIP3   OH276452   2.142   5.175   4.240  0.4931  0.5474  0.2419
18346TIP3    H176453   2.079   5.162   4.311 -0.8413 -1.4362 -1.2882
18346TIP3    H276454   2.223   5.199   4.285 -0.4328 -0.2771  2.4096
18347TIP3   OH276455   4.744   5.492  12.787  0.1957 -0.0045  0.1774
18347TIP3    H176456   4.767   5.542  12.866 -0.6519  2.8099 -1.2717
18347TIP3    H276457   4.822   5.497  12.732 -0.0332  0.0866 -0.1433
18348TIP3   OH276458   3.814   3.579  14.259  1.3675  0.8047 -0.3983
18348TIP3    H176459   3.815   3.581  14.355 -0.0669 -0.5137 -0.3240
18348TIP3    H276460   3.750   3.646  14.234  1.9282  1.3238 -0.4457
18349TIP3   OH276461   0.932   2.853  17.010 -0.5784  0.0685  0.0201
18349TIP3    H176462   0.920   2.943  17.041 -0.0922 -0.0968  0.7252
18349TIP3    H276463   1.027   2.845  16.998 -0.8276  0.3712 -2.3000
18350TIP3   OH276464   6.721   4.792  10.807 -0.0151  0.0862 -0.0635
18350TIP3    H176465   6.722   4.885  10.786 -0.5408  0.2762  0.7133
18350TIP3    H276466   6.804   4.759  10.774 -0.4218  0.5440 -1.5832
18351TIP3   OH276467   2.630   4.618  15.142 -0.3638 -0.1815  0.0282
18351TIP3    H176468   2.583   4.561  15.081 -2.2569  0.4210  0.8822
18351TIP3    H276469   2.657   4.693  15.089  0.3303 -0.8796 -0.6327
18352TIP3   OH276470   2.039   0.488  15.515  0.3674  0.1674 -0.1385
18352TIP3    H176471   2.069   0.397  15.506 -0.7627 -0.4882  2.2532
18352TIP3    H276472   1.982   0.502  15.439  1.1406 -0.8766 -0.9247
18353TIP3   OH276473   4.942   1.533  15.689  0.3005  0.1601 -0.0488
18353TIP3    H176474   4.939   1.568  15.778  0.3613 -0.3509  0.1568
18353TIP3    H276475   5.030   1.553  15.658  0.1381  0.7221 -0.1535
18354TIP3   OH276476   5.066   3.218   3.268  0.3018 -0.0374 -0.4383
18354TIP3    H176477   5.046   3.130   3.237 -1.1750  0.5215 -1.1394
18354TIP3    H276478   4.985   3.247   3.311  1.4241  0.2306  1.5415
18355TIP3   OH276479   5.669   3.534  12.462  0.2151 -0.5052 -0.6354
18355TIP3    H176480   5.750   3.485  12.478  0.8563 -0.3649 -3.2142
18355TIP3    H276481   5.684   3.619  12.505  0.6950 -1.1324  0.4587
18356TIP3   OH276482   4.543   4.809   3.911 -0.0905  0.3470  0.4854
18356TIP3    H176483   4.501   4.777   3.992 -1.1566  0.1986 -0.1164
18356TIP3    H276484   4.497   4.890   3.891 -0.9181 -0.4476 -0.8550
18357TIP3   OH276485   3.413   2.720  11.352  0.1717  0.3347 -0.1372
18357TIP3    H176486   3.468   2.760  11.284 -1.9791 -0.1162 -2.2214
18357TIP3    H276487   3.413   2.627  11.331 -0.7486  0.2351  0.3033
18358TIP3   OH276488   4.497   2.771  11.294  0.1116  0.2548  0.0381
18358TIP3    H176489   4.554   2.712  11.344 -3.6774 -1.1032  3.0440
18358TIP3    H276490   4.501   2.853  11.342  0.1333  0.3966 -0.2063
18359TIP3   OH276491   5.534   5.638  11.568 -0.2422 -0.8622 -0.4621
18359TIP3    H176492   5.552   5.545  11.553  1.4006 -0.8862  1.5247
18359TIP3    H276493   5.449   5.639  11.613  0.2215 -1.4739  0.4415
18360TIP3   OH276494   0.895   0.596  15.076 -0.6394 -0.0524 -0.2681
18360TIP3    H176495   0.815   0.640  15.104 -0.2081  0.9768 -0.6311
18360TIP3    H276496   0.922   0.643  14.998  1.7722  1.3211  1.3382
18361TIP3   OH276497   2.432   2.395   3.343  0.4439 -0.7679  0.1799
18361TIP3    H176498   2.402   2.409   3.432 -1.0567  2.4074 -0.7584
18361TIP3    H276499   2.405   2.306   3.322 -0.6393 -0.9765  2.3284
18362TIP3   OH276500   3.393   5.183   2.027 -0.4342  0.0297 -0.1113
18362TIP3    H176501   3.355   5.230   2.102  1.3846  0.9769  0.2528
18362TIP3    H276502   3.431   5.104   2.065 -0.1815  0.1377 -0.1361
18363TIP3   OH276503   4.963   2.739  15.236 -0.3938 -0.0403 -0.2283
18363TIP3    H176504   5.001   2.657  15.266  0.9553  1.7602  3.2853
18363TIP3    H276505   5.021   2.769  15.166 -0.4499 -1.6372 -0.9695
18364TIP3   OH276506   1.013   5.461  14.578 -0.1902  0.0263  0.3609
18364TIP3    H176507   1.006   5.488  14.669  5.1796  0.0961  0.9254
18364TIP3    H276508   0.996   5.541  14.528 -3.6387 -0.1245  1.1986
18365TIP3   OH276509   4.543   2.709   2.554 -0.5234  0.0722 -0.7085
18365TIP3    H176510   4.490   2.642   2.511  0.5664 -0.3415 -1.4453
18365TIP3    H276511   4.620   2.662   2.585 -0.6439  0.6377  0.4689
18366TIP3   OH276512   2.194   0.167   0.315  0.8153  0.1756  0.1401
18366TIP3    H176513   2.109   0.206   0.336  0.6943 -0.0595  0.0875
18366TIP3    H276514   2.197   0.166   0.219  0.3448 -0.9687  0.1318
18367TIP3   OH276515   1.596   0.356   1.485  0.5832 -0.0370 -0.0224
18367TIP3    H176516   1.550   0.289   1.535 -0.2853  1.2150  0.8921
18367TIP3    H276517   1.642   0.408   1.550 -0.4384  1.5213 -0.5067
18368TIP3   OH276518   5.582   6.782  15.076 -0.0102  0.6527  0.6129
18368TIP3    H176519   5.528   6.717  15.030 -0.5710  1.0575  0.6992
18368TIP3    H276520   5.652   6.730  15.116 -0.0593  0.1822  0.0998
18369TIP3   OH276521   0.100   3.944  16.806  0.3444  0.2988 -0.3564
18369TIP3    H176522   0.137   3.911  16.888  0.1668  0.3739 -0.2451
18369TIP3    H276523   0.008   3.920  16.811  0.3622  0.1875 -0.5925
18370TIP3   OH276524   1.237   1.431   5.443 -0.0251  0.4238  0.3229
18370TIP3    H176525   1.164   1.380   5.479  2.2390 -1.0627  3.0440
18370TIP3    H276526   1.206   1.460   5.357 -2.6630 -2.7330  0.1033
18371TIP3   OH276527   0.754   4.327   1.730  0.1301 -0.1329  0.0742
18371TIP3    H176528   0.771   4.421   1.722  0.4354 -0.1121  0.9432
18371TIP3    H276529   0.791   4.303   1.815 -0.2132 -0.9809 -0.0130
18372TIP3   OH276530   4.485   6.694   2.334 -0.8267 -0.0461 -0.0989
18372TIP3    H176531   4.393   6.673   2.352 -1.2396 -0.0862 -2.1873
18372TIP3    H276532   4.482   6.768   2.274  0.4879 -0.7576 -1.0609
18373TIP3   OH276533   1.745   4.666  11.838 -0.2924 -0.1154 -0.1773
18373TIP3    H176534   1.763   4.574  11.857 -3.3655 -0.5209  1.0072
18373TIP3    H276535   1.672   4.664  11.777  1.2293  1.5289 -2.1281
18374TIP3   OH276536   0.885   4.895   3.667  0.0307 -0.4720 -0.0511
18374TIP3    H176537   0.883   4.917   3.574  2.8303  2.3705  0.4766
18374TIP3    H276538   0.820   4.953   3.707  0.7666  0.2581  0.1016
18375TIP3   OH276539   6.545   1.325  12.948  0.1431  0.2285  0.1979
18375TIP3    H176540   6.493   1.246  12.932  2.2225 -0.9361 -1.1056
18375TIP3    H276541   6.597   1.304  13.026  0.7570  0.2815 -0.1941
18376TIP3   OH276542   1.712   1.709  12.730 -0.4180  0.1243 -0.1492
18376TIP3    H176543   1.747   1.784  12.682  0.4319 -0.6913 -0.8027
18376TIP3    H276544   1.761   1.707  12.812  0.5971 -0.6148 -0.7744
18377TIP3   OH276545   4.550   1.449   2.348  0.0441  0.1585  0.0256
18377TIP3    H176546   4.539   1.538   2.384 -0.5397 -0.0873  0.4616
18377TIP3    H276547   4.602   1.403   2.414 -0.0271  0.0508  0.0066
18378TIP3   OH276548   5.507   4.534  15.285  0.1402  0.3695  0.0088
18378TIP3    H176549   5.498   4.591  15.210  2.4879  1.3283  0.3973
18378TIP3    H276550   5.600   4.541  15.309  0.4330 -3.3629  0.2421
18379TIP3   OH276551   5.354   5.324  14.553 -0.5895  0.1540 -0.8196
18379TIP3    H176552   5.335   5.308  14.461 -0.5339  0.3509 -0.8673
18379TIP3    H276553   5.274   5.299  14.599  0.2393 -2.2857 -0.6712
18380TIP3   OH276554   4.123   1.751  14.975 -0.3070  0.3685  0.8850
18380TIP3    H176555   4.035   1.762  15.010  0.9708  2.2326  3.6974
18380TIP3    H276556   4.169   1.832  14.998  2.0293 -0.3787 -0.9063
18381TIP3   OH276557   2.745   2.621  12.853  0.1534 -1.0870  0.3707
18381TIP3    H176558   2.786   2.589  12.773  0.4190  0.3623 -0.0878
18381TIP3    H276559   2.715   2.710  12.831  0.2990 -0.6459  1.9013
18382TIP3   OH276560   3.735   0.002   3.505  0.3767  0.1647  0.2442
18382TIP3    H176561   3.646   0.002   3.470  0.0596  0.2779  1.0342
18382TIP3    H276562   3.775   0.081   3.468 -0.2941  0.8571  0.9612
18383TIP3   OH276563   2.126   2.577   1.054  0.2702 -0.2371  0.0593
18383TIP3    H176564   2.144   2.581   0.960 -1.3247 -1.9036 -0.3540
18383TIP3    H276565   2.030   2.583   1.061  0.2085 -2.2470  1.4041
18384TIP3   OH276566   6.498   2.721  13.774 -0.0591 -0.2740  0.1687
18384TIP3    H176567   6.474   2.629  13.766  1.6220 -0.8861  1.9937
18384TIP3    H276568   6.578   2.730  13.722 -1.8848  0.8886 -2.5865
18385TIP3   OH276569   3.276   3.988   1.421 -0.3125 -0.2862 -0.0342
18385TIP3    H176570   3.304   4.055   1.483  1.0129 -0.6278 -0.2345
18385TIP3    H276571   3.297   4.025   1.335  1.4133 -1.3493 -0.1073
18386TIP3   OH276572   0.211   5.678  10.795 -0.1858  0.0227 -0.4776
18386TIP3    H176573   0.128   5.708  10.832  0.2626  0.6865  0.0082
18386TIP3    H276574   0.261   5.759  10.779 -0.4776 -0.2160 -2.8034
18387TIP3   OH276575   5.282   1.196  17.130 -0.0338 -0.3301  0.6250
18387TIP3    H176576   5.252   1.225  17.216  0.1838  0.1136  0.5537
18387TIP3    H276577   5.288   1.100  17.137  1.8850 -0.1386  1.7266
18388TIP3   OH276578   4.751   4.639   2.050 -0.1321 -0.0293  0.1896
18388TIP3    H176579   4.813   4.595   2.107  1.1233  1.2680 -0.1577
18388TIP3    H276580   4.715   4.710   2.104  1.8507  1.8767 -0.9189
18389TIP3   OH276581   5.768   3.035   4.861 -0.1301  0.0890  0.4741
18389TIP3    H176582   5.746   3.042   4.768  2.4836  1.4145 -0.1065
18389TIP3    H276583   5.862   3.053   4.864  0.2176 -2.0014  3.1588
18390TIP3   OH276584   2.438   3.475  14.735 -0.3896 -0.0397 -0.7196
18390TIP3    H176585   2.417   3.475  14.641 -0.7560  1.1303 -0.6487
18390TIP3    H276586   2.366   3.525  14.775  1.3114  2.0800 -0.2014
18391TIP3   OH276587   0.275   2.493  16.968  0.3081  0.2979  0.0010
18391TIP3    H176588   0.319   2.554  16.908 -0.3531 -0.3938 -1.2178
18391TIP3    H276589   0.323   2.502  17.050  3.0881 -0.8103 -1.4208
18392TIP3   OH276590   4.074   2.665  12.930  0.5897 -0.0353  0.0897
18392TIP3    H176591   4.011   2.659  12.858 -0.8340 -0.3200  1.3267
18392TIP3    H276592   4.157   2.686  12.888 -0.8640  3.1726 -1.3679
18393TIP3   OH276593   5.983   2.791  16.605  0.2847  0.1206  0.1131
18393TIP3    H176594   6.077   2.770  16.608 -0.2326 -2.2895  1.7945
18393TIP3    H276595   5.946   2.726  16.545 -0.3946  0.6495 -0.0431
18394TIP3   OH276596   4.736   2.128  12.449 -0.2495  0.1463  0.0756
18394TIP3    H176597   4.711   2.042  12.483 -2.1628  1.4739  2.2028
18394TIP3    H276598   4.694   2.133  12.363 -0.9825 -0.6747  0.3754
18395TIP3   OH276599   3.537   2.735   0.511 -0.3587 -0.0662  0.3856
18395TIP3    H176600   3.602   2.794   0.548  1.2726 -1.1604 -0.6875
18395TIP3    H276601   3.562   2.649   0.544 -0.6047 -0.6450 -0.9248
18396TIP3   OH276602   0.783   0.992  16.882  0.1439 -0.0703 -0.3273
18396TIP3    H176603   0.693   1.025  16.874  0.0405 -0.8767 -2.9214
18396TIP3    H276604   0.784   0.946  16.966 -1.2903  1.6557  0.6822
18397TIP3   OH276605   5.544   5.172  12.396 -0.5721  0.2781 -0.3035
18397TIP3    H176606   5.634   5.190  12.423 -0.2646  0.4353 -1.4204
18397TIP3    H276607   5.499   5.256  12.404 -0.1088  0.6767 -1.7078
18398TIP3   OH276608   4.399   0.134   0.152  0.3457  0.0778 -0.7333
18398TIP3    H176609   4.456   0.203   0.118  1.3125 -0.0610  0.5930
18398TIP3    H276610   4.329   0.127   0.086 -0.3734  3.0711 -0.3891
18399TIP3   OH276611   1.408   6.106  16.715 -0.4541  0.0840  0.4478
18399TIP3    H176612   1.481   6.083  16.771 -1.7357  0.6522  2.3986
18399TIP3    H276613   1.370   6.022  16.689  0.3790 -0.1867  0.0798
18400TIP3   OH276614   0.602   6.162  14.459 -0.1347 -0.4384  0.2541
18400TIP3    H176615   0.541   6.196  14.394 -0.8528 -0.5500  0.8674
18400TIP3    H276616   0.673   6.226  14.459  1.0288 -1.6454 -2.3140
18401TIP3   OH276617   2.590   5.735   0.649 -0.0594 -0.0929  0.0130
18401TIP3    H176618   2.620   5.795   0.581 -0.6119 -0.8289 -0.8930
18401TIP3    H276619   2.524   5.785   0.697  1.7910  1.1517  1.3412
18402TIP3   OH276620   1.491   6.135   2.546 -0.0029  0.1904 -0.0394
18402TIP3    H176621   1.465   6.162   2.458 -2.3002  0.5263  0.7187
18402TIP3    H276622   1.575   6.090   2.533 -0.2853  0.2585 -2.3820
18403TIP3   OH276623   3.634   2.949  13.917 -0.3999  0.1597  0.1664
18403TIP3    H176624   3.721   2.985  13.897  0.6626 -0.8553  2.6672
18403TIP3    H276625   3.629   2.869  13.864  0.3487  0.0353  0.2698
18404TIP3   OH276626   4.643   0.394   4.242  0.3802  0.4144 -0.4907
18404TIP3    H176627   4.730   0.407   4.205  0.9183 -2.7818 -0.4816
18404TIP3    H276628   4.583   0.409   4.169  1.1476 -0.7360 -1.3718
18405TIP3   OH276629   2.949   4.640  17.200 -0.3242 -0.8780 -0.2083
18405TIP3    H176630   3.030   4.666  17.157 -1.1044  1.7692 -0.2065
18405TIP3    H276631   2.935   4.550  17.173  2.0947 -1.0462 -1.0133
18406TIP3   OH276632   5.434   0.685   6.411  0.1370  0.2951  0.0004
18406TIP3    H176633   5.375   0.735   6.468 -0.5847 -0.1110 -0.3880
18406TIP3    H276634   5.377   0.628   6.360  0.7447  0.8842 -1.3762
18407TIP3   OH276635   1.902   1.618   3.618 -0.0082  0.4073  0.3514
18407TIP3    H176636   1.962   1.625   3.692 -0.5440  0.3510  0.7954
18407TIP3    H276637   1.816   1.641   3.654 -0.5246 -1.0641  0.0919
18408TIP3   OH276638   2.817   4.849  15.901  0.4810 -0.3339 -0.1611
18408TIP3    H176639   2.825   4.792  15.824 -0.4239  0.1661 -0.6323
18408TIP3    H276640   2.725   4.842  15.926  0.6125  0.0791  0.4386
18409TIP3   OH276641   3.615   5.631   2.219  0.1310 -0.3707 -0.1236
18409TIP3    H176642   3.690   5.585   2.256 -1.1398 -1.1703  1.5127
18409TIP3    H276643   3.574   5.568   2.160  0.2675 -0.2173 -0.3838
18410TIP3   OH276644   1.612   0.509  15.077  0.4060  0.4403 -0.2547
18410TIP3    H176645   1.688   0.540  15.029 -0.3974  0.9115 -1.2618
18410TIP3    H276646   1.635   0.421  15.106  2.4894  1.7256  2.1165
18411TIP3   OH276647   1.795   1.998  16.711 -0.4541 -0.3255  0.5772
18411TIP3    H176648   1.732   1.937  16.674  0.8383 -1.1667 -0.2647
18411TIP3    H276649   1.802   2.068  16.646  1.0170 -1.2700 -0.3019
18412TIP3   OH276650   3.133   0.147   1.270  0.1923  0.0728  0.0391
18412TIP3    H176651   3.184   0.224   1.243  0.3619 -0.2537 -0.5654
18412TIP3    H276652   3.080   0.178   1.344  0.8461  0.5652  0.3047
18413TIP3   OH276653   3.582   5.558   3.284 -0.0756  0.2680 -0.4625
18413TIP3    H176654   3.495   5.585   3.313 -0.4961 -1.7287  0.2381
18413TIP3    H276655   3.597   5.607   3.203 -1.8796  0.5646 -0.6358
18414TIP3   OH276656   6.259   4.734   1.830  0.7132  0.3444  0.0747
18414TIP3    H176657   6.212   4.714   1.749  0.9782 -0.5911  0.1449
18414TIP3    H276658   6.201   4.792   1.878 -0.8494 -1.6487  0.6479
18415TIP3   OH276659   4.919   2.608   1.295  0.6030  0.7025  0.1683
18415TIP3    H176660   4.926   2.624   1.200  1.1946 -0.1046  0.0774
18415TIP3    H276661   4.825   2.596   1.310  0.3906  1.8434 -0.1452
18416TIP3   OH276662   0.564   2.443   0.179 -0.0072  0.1132  0.2129
18416TIP3    H176663   0.597   2.360   0.213 -3.4084 -0.4366  2.4353
18416TIP3    H276664   0.533   2.490   0.256 -1.5508  1.8648 -1.4191
18417TIP3   OH276665   6.073   0.841   0.313  0.3260  0.1737  0.9335
18417TIP3    H176666   6.101   0.877   0.229  0.1022 -1.7859  0.0041
18417TIP3    H276667   5.988   0.882   0.329  0.0642  0.0574 -0.1109
18418TIP3   OH276668   5.374   4.015  17.007 -0.3863 -0.3315  0.2855
18418TIP3    H176669   5.410   3.943  17.060 -0.5873 -1.5877 -1.2336
18418TIP3    H276670   5.284   4.026  17.040 -0.7567 -1.6035 -0.2709
18419TIP3   OH276671   4.057   0.028   0.859 -0.5700 -0.2271  0.0824
18419TIP3    H176672   4.037  -0.047   0.803  0.9688 -0.1279 -0.6255
18419TIP3    H276673   4.086   0.096   0.798 -0.1684  0.3152  0.8776
18420TIP3   OH276674   1.623   4.606  12.826 -0.6396 -0.3506  0.2992
18420TIP3    H176675   1.635   4.532  12.766  1.1259  0.5748 -0.5063
18420TIP3    H276676   1.640   4.683  12.773 -0.4107  0.5524  1.6580
18421TIP3   OH276677   5.451   5.743   1.441 -0.3144  0.0374 -0.0783
18421TIP3    H176678   5.394   5.784   1.377 -3.5239 -3.1068  0.6060
18421TIP3    H276679   5.395   5.727   1.517  2.2073 -0.6016  1.7092
18422TIP3   OH276680   3.287   3.667   2.015 -0.6152  0.9247 -0.3821
18422TIP3    H176681   3.205   3.694   2.056 -0.3090 -0.1834  0.9842
18422TIP3    H276682   3.265   3.658   1.922 -2.3538 -0.4597  0.1230
18423TIP3   OH276683   4.990   0.923  11.029 -0.3249  0.0520 -0.5825
18423TIP3    H176684   5.084   0.933  11.048 -0.4015 -0.1679 -0.0844
18423TIP3    H276685   4.950   1.000  11.070 -0.5059 -0.4881  0.2621
18424TIP3   OH276686   4.604   3.590  13.560 -0.4293 -0.3967 -0.1876
18424TIP3    H176687   4.580   3.669  13.512 -0.4265  0.3746  1.0576
18424TIP3    H276688   4.686   3.562  13.520 -0.2585  0.4204 -0.4205
18425TIP3   OH276689   0.248   3.826   1.866  0.5674 -0.6515 -0.3638
18425TIP3    H176690   0.171   3.803   1.918  1.0160  1.3945  1.2498
18425TIP3    H276691   0.212   3.863   1.785 -0.1256 -3.3597 -1.3583
18426TIP3   OH276692   4.928   0.223  14.646  0.6472  0.3662  0.3585
18426TIP3    H176693   4.913   0.130  14.628 -2.1855  0.4927  1.7646
18426TIP3    H276694   4.974   0.255  14.568 -1.8654 -1.3715 -1.9427
18427TIP3   OH276695   4.621   5.740  17.213  0.0970  0.0073  0.7362
18427TIP3    H176696   4.599   5.686  17.137  0.7459 -0.7819  1.1100
18427TIP3    H276697   4.703   5.783  17.189 -0.1882  0.4885  0.6162
18428TIP3   OH276698   2.038   1.727   4.609 -0.0950 -0.2559  0.2691
18428TIP3    H176699   2.069   1.787   4.677 -0.2522  0.7473 -0.5273
18428TIP3    H276700   2.077   1.643   4.631  0.3444  0.2000  1.2571
18429TIP3   OH276701   1.499   1.314   3.534 -0.0569  0.4717 -0.1178
18429TIP3    H176702   1.590   1.289   3.521 -0.8810 -2.7634 -0.2363
18429TIP3    H276703   1.463   1.321   3.446 -0.1204  1.0162 -0.0528
18430TIP3   OH276704   2.804   3.201   2.082  0.5298 -0.3168  0.3731
18430TIP3    H176705   2.750   3.124   2.066  1.7493 -1.4810  1.7167
18430TIP3    H276706   2.891   3.177   2.051  1.4898 -0.4063  2.9457
18431TIP3   OH276707   5.719   1.049  14.944 -0.1439  0.1060 -0.2700
18431TIP3    H176708   5.744   1.141  14.957  0.4401  0.0899 -1.2059
18431TIP3    H276709   5.797   0.999  14.969  0.5084  0.0098 -2.3432
18432TIP3   OH276710   2.247   1.374  14.408 -0.2782  0.1224  0.1101
18432TIP3    H176711   2.342   1.373  14.407 -0.2562 -0.2784  1.5762
18432TIP3    H276712   2.223   1.445  14.349  0.9077 -0.1486 -0.7085
18433TIP3   OH276713   0.628   3.251  11.649  0.0880 -0.0970  0.4274
18433TIP3    H176714   0.654   3.306  11.575 -1.1199 -0.1608 -0.0578
18433TIP3    H276715   0.631   3.310  11.724  3.3664 -0.5567  0.7005
18434TIP3   OH276716   5.327   6.311  14.780  0.2666  0.9396  0.4959
18434TIP3    H176717   5.279   6.384  14.741  0.5262 -0.5284 -2.7313
18434TIP3    H276718   5.259   6.251  14.811  0.0097  0.4257 -1.0330
18435TIP3   OH276719   5.044   3.726   6.701 -0.2829 -0.5680  0.3094
18435TIP3    H176720   5.027   3.669   6.626  2.3823  0.0399 -0.8235
18435TIP3    H276721   4.958   3.752   6.731 -1.4627 -2.4346 -1.2919
18436TIP3   OH276722   1.160   1.699   4.159 -0.1162  0.0207 -0.0800
18436TIP3    H176723   1.074   1.659   4.144 -1.0694  0.8423  2.8621
18436TIP3    H276724   1.219   1.625   4.172 -0.3795 -0.5448 -1.8768
18437TIP3   OH276725   1.309   6.216  11.444 -0.1222 -0.2290  0.2845
18437TIP3    H176726   1.288   6.168  11.524  1.5054 -2.9134 -0.8610
18437TIP3    H276727   1.377   6.279  11.472 -0.5380 -0.1994  1.2712
18438TIP3   OH276728   3.726   5.395  14.810  0.3279 -0.5372 -0.6851
18438TIP3    H176729   3.704   5.395  14.717 -1.4975  1.5631 -0.3053
18438TIP3    H276730   3.727   5.488  14.834 -1.7899 -1.1387  1.9373
18439TIP3   OH276731   0.702   4.363  17.227  0.3823  0.6165 -0.0183
18439TIP3    H176732   0.688   4.300  17.297  2.2912  0.2481  0.0550
18439TIP3    H276733   0.637   4.432  17.242  1.9017  1.4356  3.1662
18440TIP3   OH276734   1.455   1.064  16.974  0.3439 -0.3424 -0.4544
18440TIP3    H176735   1.454   1.078  16.879 -0.2528  0.8336 -0.2784
18440TIP3    H276736   1.432   1.149  17.011 -1.1826 -1.2442  0.6973
18441TIP3   OH276737   3.182   2.069   0.199  0.2880  0.8056 -0.3247
18441TIP3    H176738   3.220   1.984   0.222 -0.0839  0.3786 -1.2534
18441TIP3    H276739   3.147   2.103   0.281 -1.7878 -1.0775 -0.3718
18442TIP3   OH276740   1.392   0.674   2.827  0.3638 -0.2125 -0.1110
18442TIP3    H176741   1.380   0.591   2.874 -1.2000  0.7891  1.3286
18442TIP3    H276742   1.327   0.733   2.865  0.5199  1.2909 -2.0646
18443TIP3   OH276743   4.850   2.957  11.690 -0.2978 -0.8129 -0.0035
18443TIP3    H176744   4.887   2.896  11.753  2.5041  1.1704  0.3571
18443TIP3    H276745   4.867   2.918  11.604  0.6914 -0.9574  0.2601
18444TIP3   OH276746   0.637   4.412   5.402  0.0883  0.6056  0.3491
18444TIP3    H176747   0.634   4.478   5.471  1.8745  0.5924  0.4451
18444TIP3    H276748   0.727   4.381   5.401 -0.9176 -2.4984  0.8898
18445TIP3   OH276749   5.237   6.722   2.622 -0.1250 -0.5097  0.5409
18445TIP3    H176750   5.246   6.749   2.530  0.1709 -0.0462  0.7016
18445TIP3    H276751   5.266   6.631   2.623 -0.9462 -0.7815  0.0194
18446TIP3   OH276752   2.317   0.431  12.442 -1.0311 -0.4057  0.4374
18446TIP3    H176753   2.335   0.341  12.470  0.1288 -0.0889  0.7316
18446TIP3    H276754   2.365   0.440  12.360 -1.1798 -0.0637  0.3887
18447TIP3   OH276755   2.027   4.548   5.637 -0.0854  0.3055  0.7064
18447TIP3    H176756   2.017   4.485   5.708 -0.0452 -0.5340 -0.0231
18447TIP3    H276757   2.054   4.629   5.681  0.6679 -0.3991  1.5785
18448TIP3   OH276758   1.584   3.298  10.630  0.2691 -0.0824 -0.2860
18448TIP3    H176759   1.587   3.317  10.724 -0.2426  1.9228 -0.6421
18448TIP3    H276760   1.660   3.243  10.614 -0.0900 -1.1584  1.4379
18449TIP3   OH276761   0.190   1.151  14.205 -0.0865 -0.2911 -0.1427
18449TIP3    H176762   0.279   1.151  14.240  0.3341 -0.0957 -1.1954
18449TIP3    H276763   0.138   1.198  14.270  0.3200 -1.5676  1.1253
18450TIP3   OH276764   4.191   0.384  12.558  0.1711  0.4211  0.6069
18450TIP3    H176765   4.246   0.462  12.565  0.8624 -0.0995  1.0394
18450TIP3    H276766   4.252   0.311  12.571 -0.3408 -0.2157 -0.4975
18451TIP3   OH276767   0.224   0.761  11.503  0.0927 -0.0122  0.8021
18451TIP3    H176768   0.245   0.853  11.488 -0.5683 -0.1085 -0.7575
18451TIP3    H276769   0.154   0.762  11.567 -4.0381  0.8723 -3.4711
18452TIP3   OH276770   5.582   5.688  14.692  0.4851 -0.4798 -0.4897
18452TIP3    H176771   5.575   5.623  14.762 -1.0043 -0.7218 -0.8523
18452TIP3    H276772   5.538   5.766  14.727  0.3216 -0.3866 -0.9059
18453TIP3   OH276773   4.493   5.280   0.290  0.5521 -0.5412 -0.2502
18453TIP3    H176774   4.514   5.191   0.319  0.5785 -0.7086 -0.7894
18453TIP3    H276775   4.449   5.319   0.366 -1.6048 -1.7945 -0.8021
18454TIP3   OH276776   3.301   5.497  13.450 -0.2468 -0.5870 -0.1953
18454TIP3    H176777   3.298   5.587  13.482  0.1545 -0.4330 -0.5760
18454TIP3    H276778   3.253   5.499  13.367 -0.2391 -0.7203 -0.2038
18455TIP3   OH276779   1.290   3.803  15.225 -0.2810  0.1401 -0.2378
18455TIP3    H176780   1.264   3.821  15.315  2.7686  0.1043  0.7121
18455TIP3    H276781   1.224   3.742  15.193 -1.7745  0.6542  1.7407
18456TIP3   OH276782   0.701   0.515  13.019  0.3769  0.0203  0.0791
18456TIP3    H176783   0.703   0.601  13.061 -1.4008  0.1984 -0.1568
18456TIP3    H276784   0.717   0.453  13.090 -0.7947  0.4203  0.7058
18457TIP3   OH276785   3.820   5.998  16.231  0.1781  0.3392 -0.1071
18457TIP3    H176786   3.751   5.939  16.261 -0.3834  0.7142 -0.6468
18457TIP3    H276787   3.785   6.085  16.247  0.3859  0.5314 -0.6883
18458TIP3   OH276788   6.372   2.526  12.837  0.4434 -0.3615 -0.2163
18458TIP3    H176789   6.420   2.497  12.760 -1.9733 -1.9379 -1.1977
18458TIP3    H276790   6.338   2.446  12.876 -0.9041  0.6429  0.7421
18459TIP3   OH276791   1.540   5.059  13.201 -0.0633 -0.5786  0.2001
18459TIP3    H176792   1.619   5.100  13.238 -0.3495  0.4820 -0.3431
18459TIP3    H276793   1.517   4.991  13.264  1.0927 -0.6743  0.5356
18460TIP3   OH276794   3.053   5.466   0.681 -0.0399 -0.1864  0.4936
18460TIP3    H176795   2.986   5.510   0.629  2.2727  0.5493 -1.9763
18460TIP3    H276796   3.044   5.505   0.768 -1.6868  1.1242 -0.2123
18461TIP3   OH276797   5.254   4.719  12.974 -0.0539 -0.1318  0.0195
18461TIP3    H176798   5.206   4.779  12.918 -1.5282  0.9744  2.3931
18461TIP3    H276799   5.257   4.637  12.924  0.8566  1.4936 -2.6884
18462TIP3   OH276800   0.365   3.133   1.006 -0.3882  0.4787 -0.0902
18462TIP3    H176801   0.362   3.213   0.953 -0.1803  0.3831 -0.2484
18462TIP3    H276802   0.379   3.063   0.942  2.1788  0.5953  0.2947
18463TIP3   OH276803   2.288   3.139   4.894  0.1503  0.0796  0.1493
18463TIP3    H176804   2.334   3.136   4.810 -0.1573 -2.3205  0.0285
18463TIP3    H276805   2.291   3.049   4.926 -4.3718 -0.1529  0.1833
18464TIP3   OH276806   4.056   1.898   0.905  0.1892  0.3586  0.0819
18464TIP3    H176807   4.136   1.888   0.853 -1.1768  1.2174 -2.2537
18464TIP3    H276808   4.001   1.824   0.879 -0.6446  0.9801  0.0551
18465TIP3   OH276809   0.152   3.378  16.157 -0.1122  0.0740 -0.2758
18465TIP3    H176810   0.179   3.354  16.069  0.5402 -1.6278  0.3653
18465TIP3    H276811   0.112   3.464  16.148  0.5825  0.2101 -2.1157
18466TIP3   OH276812   2.488   2.575   4.359  0.3072  0.3861  0.0356
18466TIP3    H176813   2.449   2.655   4.394 -1.7418  0.5998 -2.6226
18466TIP3    H276814   2.417   2.511   4.361  1.4235 -0.8733  0.4404
18467TIP3   OH276815   0.991   6.220   0.447 -0.9075  0.4553 -0.0223
18467TIP3    H176816   1.081   6.232   0.480 -1.1321  0.4210  0.6171
18467TIP3    H276817   0.955   6.309   0.444 -1.6949  0.2507  2.1859
18468TIP3   OH276818   4.422   5.766   0.784  0.1788  0.6134  0.0062
18468TIP3    H176819   4.463   5.751   0.699  1.5672  0.7503  0.6408
18468TIP3    H276820   4.428   5.860   0.798 -0.3446  0.6355  0.1148
18469TIP3   OH276821   0.839   2.064   2.230 -0.2413 -0.0406  0.4080
18469TIP3    H176822   0.851   2.122   2.155 -0.3113 -0.6314 -0.0689
18469TIP3    H276823   0.926   2.057   2.269  0.2769 -1.5102 -0.9550
18470TIP3   OH276824   5.530   5.083   5.616 -0.2439  0.0644 -0.0610
18470TIP3    H176825   5.449   5.128   5.641  0.9801  1.8334  0.8500
18470TIP3    H276826   5.579   5.074   5.698 -0.8242 -3.7722 -0.0731
18471TIP3   OH276827   3.542   4.974  13.379 -0.2523 -0.2079 -0.4465
18471TIP3    H176828   3.565   5.055  13.425 -0.3265 -0.8592  0.7617
18471TIP3    H276829   3.447   4.980  13.366 -0.1487  0.2308 -1.0229
18472TIP3   OH276830   1.978   3.761  14.345  0.3137 -0.4509 -0.1509
18472TIP3    H176831   2.009   3.705  14.416  0.6168 -0.5018 -0.3194
18472TIP3    H276832   2.058   3.798  14.308  0.0468  0.9184  0.6209
18473TIP3   OH276833   2.187   2.370  16.460 -0.1453 -0.0944  0.4228
18473TIP3    H176834   2.205   2.377  16.554  0.4250  0.9671  0.2401
18473TIP3    H276835   2.112   2.428  16.446 -0.5142 -0.6018  0.3014
18474TIP3   OH276836   6.249   1.005   5.759 -0.1973  0.2285 -0.1000
18474TIP3    H176837   6.304   0.980   5.833  0.1964  1.2753 -0.0324
18474TIP3    H276838   6.212   1.089   5.784  0.2483  0.7813 -1.2577
18475TIP3   OH276839   2.441   3.410  12.244  0.0940 -0.3180  0.1048
18475TIP3    H176840   2.494   3.361  12.181 -1.1260  0.4659 -1.5760
18475TIP3    H276841   2.415   3.345  12.309  3.6741 -0.5841  1.3917
18476TIP3   OH276842   4.278   1.380  14.283 -0.1748  0.4552  0.1216
18476TIP3    H176843   4.239   1.336  14.358  0.0160 -1.2981 -0.7899
18476TIP3    H276844   4.246   1.470  14.289 -2.0366 -0.2351  1.0008
18477TIP3   OH276845   3.211   0.350   3.867  0.4961 -0.4727 -0.3756
18477TIP3    H176846   3.299   0.386   3.853  0.8657 -0.9758  0.6267
18477TIP3    H276847   3.225   0.272   3.921 -0.3655 -1.7396 -1.9061
18478TIP3   OH276848   0.276   2.909  10.999 -0.3220  0.1322 -0.0421
18478TIP3    H176849   0.322   2.845  10.945 -2.0234 -1.7334  0.6164
18478TIP3    H276850   0.190   2.918  10.957 -0.6689  0.7497  0.7759
18479TIP3   OH276851   0.899   3.132  16.736 -0.0546 -0.0577  0.0781
18479TIP3    H176852   0.969   3.195  16.717  0.3163 -1.0630 -2.0113
18479TIP3    H276853   0.820   3.174  16.704  0.4950 -1.5176 -3.4286
18480TIP3   OH276854   6.473   4.748  10.713 -0.2051  0.4105  0.2873
18480TIP3    H176855   6.565   4.752  10.739  0.0132  0.1171 -0.4434
18480TIP3    H276856   6.470   4.791  10.628 -0.5426 -0.6750 -0.2546
18481TIP3   OH276857   2.149   1.976  15.662 -0.2517 -0.2209 -0.4760
18481TIP3    H176858   2.120   2.066  15.647  1.1556  0.3576  0.1462
18481TIP3    H276859   2.125   1.958  15.753  0.2093 -0.1655 -0.3389
18482TIP3   OH276860   6.576   1.855   3.014  0.4956 -0.9753  0.7436
18482TIP3    H176861   6.599   1.811   3.096  0.2179  0.7426  1.7908
18482TIP3    H276862   6.495   1.812   2.986  1.1045 -2.2194  0.8551
18483TIP3   OH276863   4.951   1.489   5.954  0.0296  0.6079  0.4684
18483TIP3    H176864   4.889   1.557   5.928 -0.1401  0.9307  1.6649
18483TIP3    H276865   4.897   1.426   6.002  0.1448 -0.4986 -0.8648
18484TIP3   OH276866   5.458   0.072  16.062 -0.8418 -0.1115  0.3577
18484TIP3    H176867   5.369   0.107  16.058 -1.6890 -2.2914 -0.4149
18484TIP3    H276868   5.485   0.086  16.153 -2.1660  0.0781  0.7218
18485TIP3   OH276869   0.350   2.359   0.670 -0.2061  0.1452 -0.3229
18485TIP3    H176870   0.423   2.405   0.710 -1.4015  1.2119  0.6584
18485TIP3    H276871   0.357   2.379   0.576  0.2243  0.9920 -0.1123
18486TIP3   OH276872   1.000   0.372  11.989 -0.5736  0.0915  0.2551
18486TIP3    H176873   0.918   0.365  11.940 -0.4448  2.1164 -0.3079
18486TIP3    H276874   0.974   0.401  12.076 -0.3191  3.6995 -0.7649
18487TIP3   OH276875   6.059   2.462  13.741 -0.3907  0.4282 -0.1939
18487TIP3    H176876   6.140   2.430  13.781 -1.0479  0.7100  1.4261
18487TIP3    H276877   5.993   2.398  13.766 -0.5211 -0.2167 -2.1755
18488TIP3   OH276878   4.229   1.383  12.645  0.1074  0.1105 -0.2195
18488TIP3    H176879   4.315   1.349  12.620 -0.4643 -0.2914 -1.7084
18488TIP3    H276880   4.169   1.310  12.629 -0.3749  0.0507  1.8090
18489TIP3   OH276881   4.449   2.463  16.657 -0.0710  0.0013 -0.4429
18489TIP3    H176882   4.464   2.473  16.563  1.3078  2.2049 -0.0330
18489TIP3    H276883   4.403   2.543  16.682  3.4155  1.5063  1.4818
18490TIP3   OH276884   4.853   5.188  16.178 -0.3323 -0.2755  0.2555
18490TIP3    H176885   4.856   5.258  16.114  0.8037 -0.2351  0.3541
18490TIP3    H276886   4.782   5.213  16.237  0.0255  0.7648  0.2610
18491TIP3   OH276887   0.305   4.171   3.973  0.1877 -0.2550  0.6028
18491TIP3    H176888   0.392   4.131   3.968 -0.3038 -1.1415 -1.5021
18491TIP3    H276889   0.291   4.209   3.886 -2.2562 -1.6897  0.3203
18492TIP3   OH276890   2.296   6.708   6.661  0.0198 -0.1977 -0.3286
18492TIP3    H176891   2.375   6.699   6.608 -0.9569 -2.1435 -1.5082
18492TIP3    H276892   2.279   6.619   6.693 -0.7276  0.5293  1.3385
18493TIP3   OH276893   3.546   0.182   3.074  0.1477 -0.1980 -0.1898
18493TIP3    H176894   3.608   0.177   3.147 -0.5472  1.1214  0.5105
18493TIP3    H276895   3.601   0.174   2.996  1.3150  1.5880  0.4048
18494TIP3   OH276896   4.138   3.592  12.942  0.2962 -0.2722 -0.2708
18494TIP3    H176897   4.091   3.628  12.867 -0.3014 -0.7686 -0.1389
18494TIP3    H276898   4.088   3.623  13.018  2.6555  2.8820  0.1087
18495TIP3   OH276899   4.908   4.921  13.214  0.1843 -0.2195  0.5413
18495TIP3    H176900   4.840   4.900  13.277 -0.2322  0.4430  0.3149
18495TIP3    H276901   4.885   5.008  13.182 -0.2115 -0.9977 -1.3296
18496TIP3   OH276902   0.918   2.328  12.936 -0.1897 -0.0451 -0.1124
18496TIP3    H176903   1.001   2.287  12.959 -1.2563 -1.3382  1.5238
18496TIP3    H276904   0.861   2.256  12.912 -1.2655  0.7160  0.1151
18497TIP3   OH276905   0.435   2.770  16.519  0.5940 -0.2467  0.3043
18497TIP3    H176906   0.390   2.821  16.587  0.0675 -0.7753  0.3535
18497TIP3    H276907   0.527   2.793  16.529  0.5232 -0.3550  1.2218
18498TIP3   OH276908   4.421   5.616   5.419 -0.2455 -0.2750 -0.2719
18498TIP3    H176909   4.478   5.636   5.494  0.8675 -0.9247 -0.9371
18498TIP3    H276910   4.427   5.693   5.363 -3.1639  1.3646  1.5342
18499TIP3   OH276911   5.392   3.425  10.672  0.0900 -0.0455  0.5055
18499TIP3    H176912   5.368   3.343  10.715 -1.8253 -0.6652 -1.6474
18499TIP3    H276913   5.483   3.413  10.648 -0.6378 -2.2807 -1.3194
18500TIP3   OH276914   4.193   0.523   2.337  0.3731  0.0761  0.1728
18500TIP3    H176915   4.190   0.475   2.254  2.0766  1.5622 -0.8011
18500TIP3    H276916   4.114   0.578   2.335  0.6104  0.4015 -0.6768
18501TIP3   OH276917   2.993   1.332   5.348 -0.0374 -0.0057  0.3159
18501TIP3    H176918   2.940   1.271   5.296  1.4795 -0.5997 -0.5703
18501TIP3    H276919   2.947   1.338   5.432 -1.1133 -1.0635 -0.1710
18502TIP3   OH276920   6.565   4.233  12.695  0.0051  0.1890 -0.8102
18502TIP3    H176921   6.618   4.313  12.691  0.8774 -0.3510 -0.1956
18502TIP3    H276922   6.613   4.170  12.642 -1.3042  0.4054 -2.3006
18503TIP3   OH276923   1.486   0.419  14.849 -0.2545  0.3196 -0.3187
18503TIP3    H176924   1.522   0.464  14.925 -0.7732 -0.1317  0.1988
18503TIP3    H276925   1.563   0.394  14.797  0.0763  0.9509 -0.1254
18504TIP3   OH276926   1.084   0.007   1.290 -0.7425  0.2005 -0.3340
18504TIP3    H176927   1.104  -0.018   1.200  0.3258  1.0659 -0.3496
18504TIP3    H276928   1.073  -0.076   1.336  0.6962 -0.2854 -0.8408
18505TIP3   OH276929   6.045   5.536   1.985  0.3446 -0.3479  0.0188
18505TIP3    H176930   5.966   5.583   1.959  0.8208  0.0016 -0.8039
18505TIP3    H276931   6.082   5.589   2.055 -0.5743 -0.9394  0.9758
18506TIP3   OH276932   3.060   5.450   4.978 -0.3730  0.2602 -0.1438
18506TIP3    H176933   3.002   5.524   4.993 -2.0856 -1.1251  0.2133
18506TIP3    H276934   3.024   5.380   5.032  0.8284 -1.0438 -1.0006
18507TIP3   OH276935   6.119   5.039   5.554  0.0528 -0.2763 -0.2151
18507TIP3    H176936   6.045   5.023   5.495 -0.7340 -0.1852  0.7334
18507TIP3    H276937   6.190   4.985   5.519 -1.1848 -2.2529  0.2757
18508TIP3   OH276938   0.795   1.554   4.677  0.5139  0.2844  0.3265
18508TIP3    H176939   0.811   1.479   4.735  0.5598  1.6767  2.1385
18508TIP3    H276940   0.705   1.541   4.646  0.2000 -0.0243  1.3568
18509TIP3   OH276941   6.014   6.509   1.723 -0.4024  0.3421 -0.3646
18509TIP3    H176942   6.075   6.436   1.718  0.6199  1.1165  0.4809
18509TIP3    H276943   5.952   6.483   1.792  2.2529  1.8886  2.7521
18510TIP3   OH276944   2.385   2.163   5.333 -0.3439 -0.2548 -0.0188
18510TIP3    H176945   2.458   2.138   5.389  0.4033  0.1526 -0.7886
18510TIP3    H276946   2.378   2.258   5.344 -1.0466 -0.3486  0.3874
18511TIP3   OH276947   6.434   0.850  11.269 -0.5221  0.6525 -0.1831
18511TIP3    H176948   6.420   0.795  11.191  3.1284 -0.5146 -0.1308
18511TIP3    H276949   6.436   0.940  11.235  0.6929  0.1732 -1.4595
18512TIP3   OH276950   0.187   1.699   2.438  0.3080 -0.0772 -0.0278
18512TIP3    H176951   0.232   1.772   2.479 -0.8431  0.7540 -0.2376
18512TIP3    H276952   0.214   1.702   2.346  0.0164  0.2756 -0.1016
18513TIP3   OH276953   1.842   0.878   1.921  0.6286 -0.8569  0.7750
18513TIP3    H176954   1.891   0.858   2.000 -1.7174 -0.0331  2.4925
18513TIP3    H276955   1.844   0.974   1.914 -0.4696 -0.8309  0.7018
18514TIP3   OH276956   1.841   4.801   5.918  0.0349 -0.7675 -0.0996
18514TIP3    H176957   1.831   4.726   5.976 -3.5122 -0.9784 -0.8856
18514TIP3    H276958   1.788   4.780   5.841  1.3809  1.2821 -1.6652
18515TIP3   OH276959   1.249   4.565   0.608 -0.0703  0.1046 -0.0535
18515TIP3    H176960   1.292   4.542   0.525  0.0077 -1.2543  0.3506
18515TIP3    H276961   1.319   4.605   0.660  0.4461 -1.0557  0.1689
18516TIP3   OH276962   6.460   3.922   4.333  0.4366 -0.3893  0.4336
18516TIP3    H176963   6.516   3.998   4.318 -1.0422  0.6645  0.1362
18516TIP3    H276964   6.485   3.860   4.264 -0.2822  0.9554 -1.0638
18517TIP3   OH276965   6.596   2.861   2.628 -0.2516  0.4203  0.2659
18517TIP3    H176966   6.517   2.821   2.590 -2.0164  2.4183  1.7261
18517TIP3    H276967   6.608   2.942   2.577  0.6887  0.2635  0.2386
18518TIP3   OH276968   3.185   5.466  12.703  0.6631  0.2924  0.3458
18518TIP3    H176969   3.138   5.452  12.785 -1.3560 -0.1038 -0.8419
18518TIP3    H276970   3.212   5.378  12.676 -1.8166 -0.0200 -1.2080
18519TIP3   OH276971   1.662   2.971  12.359 -0.3896 -0.0695 -0.8415
18519TIP3    H176972   1.633   3.052  12.317 -1.4580 -0.6599 -1.2393
18519TIP3    H276973   1.612   2.967  12.441  2.0513  1.3408  0.8067
18520TIP3   OH276974   0.021   2.971   2.050 -0.2210  0.1205 -0.2487
18520TIP3    H176975   0.110   2.966   2.015 -0.5111 -1.4217 -0.8117
18520TIP3    H276976  -0.036   2.950   1.976 -1.0030  0.0337  0.3597
18521TIP3   OH276977   5.571   4.742  13.924  0.1675 -0.1354 -0.0742
18521TIP3    H176978   5.639   4.802  13.955  0.6117 -0.7620  0.1983
18521TIP3    H276979   5.496   4.759  13.981  1.4006 -2.1828  2.2589
18522TIP3   OH276980   1.916   4.729   5.482 -0.1259 -0.1353  0.4215
18522TIP3    H176981   1.950   4.639   5.488 -1.1025 -0.5310  0.0345
18522TIP3    H276982   1.995   4.783   5.481  0.4250 -0.8049  3.3218
18523TIP3   OH276983   6.253   0.851   2.268  0.8895  0.2098  0.2876
18523TIP3    H176984   6.326   0.913   2.268  2.6562 -1.7211  3.2047
18523TIP3    H276985   6.220   0.854   2.358 -1.7662  0.0135 -0.6427
18524TIP3   OH276986   6.663   2.605  10.595 -0.1932 -0.0230  0.2041
18524TIP3    H176987   6.682   2.647  10.679  2.1094 -1.4662  0.4456
18524TIP3    H276988   6.576   2.565  10.607  0.0255 -0.0467  1.8325
18525TIP3   OH276989   0.108   2.630  13.342  0.6325  0.0039  0.0214
18525TIP3    H176990   0.123   2.649  13.249  0.3995  0.4765  0.0816
18525TIP3    H276991   0.150   2.703  13.388  0.1569  0.1226  0.2651
18526TIP3   OH276992   4.997   5.980  14.194 -0.0629 -0.0778 -0.3515
18526TIP3    H176993   4.929   5.926  14.234 -2.0765  1.8408 -1.0932
18526TIP3    H276994   5.006   6.055  14.254  0.7188  0.1348 -0.7342
18527TIP3   OH276995   3.187   4.511   1.767 -0.1923 -0.2031 -0.4850
18527TIP3    H176996   3.282   4.519   1.757  0.1816 -0.8242  2.2132
18527TIP3    H276997   3.159   4.595   1.804 -0.8302  0.3038 -2.0971
18528TIP3   OH276998   0.085   4.835  17.051  0.1155  0.1985 -0.5243
18528TIP3    H176999   0.178   4.814  17.061 -0.1336 -0.6376  0.0382
18528TIP3    H277000   0.079   4.873  16.963  0.6654 -1.6155 -1.3735
18529TIP3   OH277001   4.458   6.678   3.724 -0.0350  0.0035  0.7207
18529TIP3    H177002   4.496   6.701   3.639  0.0114  1.4793  1.1360
18529TIP3    H277003   4.531   6.643   3.775 -0.4525 -2.8161 -0.5082
18530TIP3   OH277004   4.432   6.278   5.236 -0.7171 -0.8343 -0.3354
18530TIP3    H177005   4.504   6.262   5.298  0.1028  0.1906 -1.0006
18530TIP3    H277006   4.357   6.301   5.292  0.4596  1.7787  0.2612
18531TIP3   OH277007   6.166   1.054  11.147 -0.5094  0.0556 -0.5337
18531TIP3    H177008   6.261   1.067  11.147 -0.4341 -0.4715  0.3428
18531TIP3    H277009   6.137   1.097  11.228 -0.8408 -1.0376 -0.0685
18532TIP3   OH277010   0.592   4.585  12.904 -0.0661  0.1349  0.6153
18532TIP3    H177011   0.675   4.541  12.888  1.4752  2.6132  1.5329
18532TIP3    H277012   0.616   4.666  12.948 -2.8642  1.5349 -0.3346
18533TIP3   OH277013   2.853   1.142  11.374  0.1674  0.3518 -0.1131
18533TIP3    H177014   2.759   1.158  11.374 -0.1251 -1.2002 -0.5781
18533TIP3    H277015   2.888   1.201  11.308 -0.5898  0.4182 -0.4567
18534TIP3   OH277016   4.274   1.017   4.094  0.2880  0.6723  0.3670
18534TIP3    H177017   4.206   1.006   4.161 -0.0424 -1.1069 -0.2533
18534TIP3    H277018   4.226   1.046   4.016  0.3083 -0.0047  0.1007
18535TIP3   OH277019   1.878   5.084   3.953 -0.1163 -0.8140  0.1127
18535TIP3    H177020   1.928   5.165   3.962  0.2807 -1.1236  0.7120
18535TIP3    H277021   1.937   5.016   3.986 -1.0947 -1.1344  1.1975
18536TIP3   OH277022   5.028   0.047   2.967 -0.1612 -0.5351  0.0199
18536TIP3    H177023   5.117   0.077   2.945  0.3218 -1.8426  0.1260
18536TIP3    H277024   5.017  -0.032   2.915 -0.5781 -1.3788  1.3768
18537TIP3   OH277025   2.491   2.022  12.021 -0.1933 -0.0648  0.7270
18537TIP3    H177026   2.437   2.086  12.067  1.5123  2.0198 -0.1041
18537TIP3    H277027   2.541   1.978  12.089 -0.6996  0.1262  1.2233
18538TIP3   OH277028   5.956   6.447   3.284  0.3285 -0.2412  0.2581
18538TIP3    H177029   5.987   6.357   3.283  0.7857 -0.0830 -0.3650
18538TIP3    H277030   5.985   6.482   3.368  1.4029 -0.2508 -0.0980
18539TIP3   OH277031   3.989   2.823  13.464  0.0666  0.0756 -0.3544
18539TIP3    H177032   4.046   2.788  13.395  0.9794  1.5381 -0.3663
18539TIP3    H277033   4.046   2.827  13.541 -0.0641  1.3498 -0.3141
18540TIP3   OH277034   4.814   4.324   6.003  0.2663 -0.6915  0.2316
18540TIP3    H177035   4.901   4.353   6.032  0.2406  0.0410 -0.4018
18540TIP3    H277036   4.758   4.339   6.080 -0.0340  2.3702 -0.4977
18541TIP3   OH277037   1.928   0.329   6.004  0.1143  0.2730  0.1436
18541TIP3    H177038   1.995   0.382   5.959  0.3721 -0.3503 -0.2089
18541TIP3    H277039   1.919   0.251   5.950 -0.9986  0.4102  0.1208
18542TIP3   OH277040   6.691   3.717  17.087  0.4699  0.0538 -0.0800
18542TIP3    H177041   6.655   3.795  17.045 -1.1129 -0.7728 -0.2966
18542TIP3    H277042   6.647   3.644  17.043  3.0492 -1.0379 -0.9605
18543TIP3   OH277043   6.628   1.920   5.321  0.6400  0.1910 -0.0302
18543TIP3    H177044   6.632   1.881   5.409 -0.2077  0.3548  0.0833
18543TIP3    H277045   6.545   1.967   5.320  0.9912  0.7968 -0.6712
18544TIP3   OH277046   3.565   6.643  15.148  0.0325  0.3509 -0.3190
18544TIP3    H177047   3.643   6.643  15.092  1.1693  1.3532  1.1985
18544TIP3    H277048   3.499   6.689  15.096  0.3949 -0.6124 -1.6757
18545TIP3   OH277049   4.414   0.507   5.591  0.0787  0.0939  0.3816
18545TIP3    H177050   4.481   0.467   5.646  0.5917  0.5761  0.1106
18545TIP3    H277051   4.454   0.512   5.504 -1.4590 -2.5326 -0.5235
18546TIP3   OH277052   3.173   1.471  13.711  1.0479  0.1829  0.3887
18546TIP3    H177053   3.183   1.565  13.718  0.6512  0.1563  1.2980
18546TIP3    H277054   3.079   1.457  13.696  1.3608  0.0375 -1.7044
18547TIP3   OH277055   0.631   4.504  15.643 -0.1614  0.3380 -0.0514
18547TIP3    H177056   0.608   4.451  15.719  2.8106 -0.8822  0.0715
18547TIP3    H277057   0.663   4.586  15.680  0.2610  0.1647 -0.0359
18548TIP3   OH277058   3.014   0.321   4.521  0.0616 -0.0825 -0.2045
18548TIP3    H177059   3.003   0.254   4.589 -1.3663 -1.1871 -1.4931
18548TIP3    H277060   2.925   0.353   4.504  0.5339  0.9563 -0.7944
18549TIP3   OH277061   3.590   5.275  13.190 -0.2421  0.2246 -0.0710
18549TIP3    H177062   3.581   5.265  13.285 -1.9837 -0.4458 -0.2885
18549TIP3    H277063   3.682   5.301  13.177  0.2396 -0.5236  1.7161
18550TIP3   OH277064   6.188   3.942  11.521  0.2614  0.0270 -0.0073
18550TIP3    H177065   6.203   3.975  11.432 -2.9637  0.6722 -0.3737
18550TIP3    H277066   6.247   3.994  11.576  0.3882  1.4560 -1.4536
18551TIP3   OH277067   3.501   2.597   4.809 -0.3002 -0.1700  0.1387
18551TIP3    H177068   3.413   2.569   4.783 -0.7236  0.9752  0.3182
18551TIP3    H277069   3.505   2.690   4.786  1.1907 -0.4264 -0.7180
18552TIP3   OH277070   4.787   4.933  12.891  0.1693 -0.1627  0.6962
18552TIP3    H177071   4.725   4.926  12.963  0.0423 -2.3911  0.4269
18552TIP3    H277072   4.784   4.847  12.849  1.8084  0.4148 -0.6760
18553TIP3   OH277073   3.234   4.117  16.018  0.1492  0.5206 -0.6037
18553TIP3    H177074   3.204   4.122  16.109  0.7281 -0.6816 -0.3369
18553TIP3    H277075   3.177   4.051  15.978 -0.2570  1.2108 -1.1875
18554TIP3   OH277076   2.842   1.651   5.335 -0.2277 -0.2913 -0.0869
18554TIP3    H177077   2.885   1.702   5.404  0.4670 -2.3050  1.0335
18554TIP3    H277078   2.755   1.632   5.370  0.7420 -2.8693  1.1338
18555TIP3   OH277079   5.711   5.470  14.464 -0.0590 -0.3961  0.1195
18555TIP3    H177080   5.712   5.549  14.410 -3.4941 -1.5360 -1.7079
18555TIP3    H277081   5.670   5.498  14.546 -0.3358 -0.0587 -0.1318
18556TIP3   OH277082   5.645   3.465  10.589  0.6640 -0.3600 -0.6405
18556TIP3    H177083   5.691   3.405  10.648  0.5922  0.0257 -0.1905
18556TIP3    H277084   5.675   3.552  10.615 -2.3733  0.1086  1.4480
18557TIP3   OH277085   0.981   0.879  13.836 -0.5745 -0.9154 -0.3171
18557TIP3    H177086   0.930   0.825  13.775 -0.8666  0.8849 -1.6985
18557TIP3    H277087   1.063   0.897  13.789 -0.9780  0.8463 -0.3770
18558TIP3   OH277088   0.743   2.317   2.939 -0.2317 -0.7866  0.1484
18558TIP3    H177089   0.700   2.335   2.855 -1.1227  0.2288  0.8163
18558TIP3    H277090   0.805   2.389   2.950  1.2897 -1.9682 -0.5636
18559TIP3   OH277091   2.351   1.858   2.323 -0.4323 -0.2229  0.0093
18559TIP3    H177092   2.394   1.815   2.249  0.5400  0.6132  0.0817
18559TIP3    H277093   2.267   1.888   2.286 -0.5185 -0.9452 -0.4039
18560TIP3   OH277094   2.066   6.012   2.352 -0.2745  0.6987  0.5643
18560TIP3    H177095   2.015   6.054   2.283 -0.7850 -0.1423  0.4159
18560TIP3    H277096   2.034   6.052   2.433  0.7060  2.0721  0.2769
18561TIP3   OH277097   2.343   0.298  14.186  0.0646 -0.6639 -0.3960
18561TIP3    H177098   2.309   0.235  14.122 -1.4549  0.3654 -0.6260
18561TIP3    H277099   2.327   0.384  14.147 -1.8874  0.0397  1.8121
18562TIP3   OH277100   3.050   4.219  16.699 -0.6894  0.4496  0.4726
18562TIP3    H177101   3.062   4.125  16.685 -1.1150  0.7513 -2.2079
18562TIP3    H277102   3.078   4.234  16.790 -1.1358 -2.3345  1.1086
18563TIP3   OH277103   3.147   3.661   0.384 -0.2600  0.1590 -0.4106
18563TIP3    H177104   3.102   3.713   0.451  0.4948 -0.2196  0.3944
18563TIP3    H277105   3.239   3.685   0.392 -0.0147 -0.7010 -0.5855
18564TIP3   OH277106   2.961   2.564  11.381 -0.8390 -0.2634  0.1042
18564TIP3    H177107   2.944   2.647  11.335  0.5346  0.5303  0.9650
18564TIP3    H277108   2.991   2.505  11.313  1.0424  0.8618 -0.0929
18565TIP3   OH277109   3.775   0.187   2.168  0.0552  0.1145  0.3865
18565TIP3    H177110   3.774   0.165   2.261  2.3328 -0.5801  0.2758
18565TIP3    H277111   3.862   0.225   2.153 -1.4106  3.1487 -0.8200
18566TIP3   OH277112   5.154   1.964  14.357 -0.0406 -0.0847 -0.1003
18566TIP3    H177113   5.225   1.927  14.410  0.9499 -0.4867 -1.6854
18566TIP3    H277114   5.195   2.037  14.311 -0.7193 -0.1726 -0.8386
18567TIP3   OH277115   0.310   1.671  16.527  0.9783 -0.0193  0.3215
18567TIP3    H177116   0.235   1.612  16.536  2.6714 -2.3666 -0.4346
18567TIP3    H277117   0.271   1.756  16.504 -1.4350 -1.1622 -0.0221
18568TIP3   OH277118   3.564   1.598   3.842  0.0688  0.3600  0.8946
18568TIP3    H177119   3.658   1.592   3.826  0.1592 -0.1711  1.6051
18568TIP3    H277120   3.530   1.512   3.815 -0.7453  1.7660 -2.8337
18569TIP3   OH277121   0.796   4.703  17.071  0.0309  0.1583  0.2161
18569TIP3    H177122   0.821   4.704  17.163 -0.8153  0.1298  0.4529
18569TIP3    H277123   0.766   4.613  17.055 -5.0010  1.4555  1.3764
18570TIP3   OH277124   0.911   4.080   3.994  0.2758 -0.1529  0.4631
18570TIP3    H177125   0.931   4.149   4.057 -0.7823  1.2257 -0.6841
18570TIP3    H277126   0.991   4.071   3.942  0.6095 -0.2193  0.9730
18571TIP3   OH277127   0.787   2.175   1.938  0.0793  0.2487  0.3587
18571TIP3    H177128   0.814   2.108   1.875  1.9302 -0.5958  2.0070
18571TIP3    H277129   0.864   2.232   1.946 -0.4293  0.8238  1.2341
18572TIP3   OH277130   3.355   0.077   5.509  0.1329 -0.2191  0.0285
18572TIP3    H177131   3.394   0.160   5.480  2.3543 -0.8397  1.1037
18572TIP3    H277132   3.386   0.067   5.599 -1.3871 -1.4665  0.4179
18573TIP3   OH277133   2.722   2.371  12.994 -0.2712 -0.2802 -0.4792
18573TIP3    H177134   2.630   2.348  12.982 -0.1085 -0.5555 -1.2408
18573TIP3    H277135   2.732   2.453  12.945  0.1209 -0.7683 -1.2107
18574TIP3   OH277136   0.108   2.751   2.657 -0.4314 -0.6771  0.1044
18574TIP3    H177137   0.026   2.800   2.652  0.1421  0.2909  0.0989
18574TIP3    H277138   0.122   2.718   2.568 -1.0445 -1.2383  0.2093
18575TIP3   OH277139   5.378   0.554  13.714 -0.6404 -0.2152 -0.1956
18575TIP3    H177140   5.437   0.597  13.776 -1.6463  0.6987  0.1656
18575TIP3    H277141   5.406   0.585  13.628 -0.8447  0.5512  0.0048
18576TIP3   OH277142   0.572   1.037  16.441  0.1905 -0.0157 -0.1152
18576TIP3    H177143   0.512   1.034  16.366 -0.0071 -1.5898  0.0940
18576TIP3    H277144   0.521   1.080  16.510  0.1974  0.9722 -0.7101
18577TIP3   OH277145   2.240   4.298   5.841 -0.9570 -0.4698 -0.1214
18577TIP3    H177146   2.283   4.216   5.864  0.2099 -0.3738 -1.8673
18577TIP3    H277147   2.252   4.306   5.746  0.2818  2.4655  0.2256
18578TIP3   OH277148   3.327   4.036  12.504 -0.2206 -0.2095 -0.8102
18578TIP3    H177149   3.349   4.049  12.412  0.7692 -0.7125 -0.6596
18578TIP3    H277150   3.404   3.991  12.541 -0.6726 -0.1642  0.2169
18579TIP3   OH277151   3.411   4.404  16.500  0.3856  0.1357  0.1563
18579TIP3    H177152   3.438   4.313  16.494 -0.9491 -0.2106 -0.6681
18579TIP3    H277153   3.355   4.418  16.424 -0.1668  1.3944  0.7761
18580TIP3   OH277154   2.675   5.786  15.993  0.6147 -0.2011  0.0739
18580TIP3    H177155   2.714   5.831  16.067  0.5218  1.7057 -1.0250
18580TIP3    H277156   2.749   5.755  15.941  0.6754 -0.4916  0.3328
18581TIP3   OH277157   2.527   4.788  11.241  0.3640 -0.9785  0.3739
18581TIP3    H177158   2.509   4.760  11.151 -0.8818 -1.1268  0.6588
18581TIP3    H277159   2.465   4.739  11.294  0.0459  0.2606  1.1654
18582TIP3   OH277160   5.692   3.727   6.125 -0.1866  0.6769  0.3059
18582TIP3    H177161   5.755   3.732   6.052 -0.0892  1.0411  0.4163
18582TIP3    H277162   5.698   3.812   6.168  0.5652  0.0727  1.4102
18583TIP3   OH277163   2.490   6.447  15.463  0.1844 -0.0740  0.2611
18583TIP3    H177164   2.423   6.379  15.451  0.2357  0.1599 -1.5239
18583TIP3    H277165   2.477   6.478  15.552 -1.7987 -0.3666  0.0973
18584TIP3   OH277166   4.208   2.635  15.412 -0.4075  0.4659 -0.1967
18584TIP3    H177167   4.115   2.624  15.389 -0.1091 -1.0048 -0.7697
18584TIP3    H277168   4.214   2.604  15.503 -0.4423  0.3113 -0.2464
18585TIP3   OH277169   3.826   3.427   1.339  0.1548 -0.1040  1.1503
18585TIP3    H177170   3.823   3.461   1.429 -2.0643  1.0496  0.6731
18585TIP3    H277171   3.744   3.456   1.300  1.9491  1.0933 -1.8738
18586TIP3   OH277172   1.546   5.735  13.754  0.0138  0.3622  0.5376
18586TIP3    H177173   1.509   5.657  13.794 -0.1534  0.3377  0.3356
18586TIP3    H277174   1.473   5.797  13.750 -0.4937 -0.3246 -1.5500
18587TIP3   OH277175   2.483   5.585   4.407 -0.5567 -0.0641 -0.3859
18587TIP3    H177176   2.466   5.492   4.388  0.1313 -0.0159 -1.2783
18587TIP3    H277177   2.433   5.632   4.340  0.0263  0.1754 -0.6547
18588TIP3   OH277178   6.202   1.967  11.948 -0.0946 -0.6876  0.7983
18588TIP3    H177179   6.112   1.994  11.932 -0.0147 -1.5529 -1.3339
18588TIP3    H277180   6.196   1.873  11.967  0.5519 -1.4014 -2.1504
18589TIP3   OH277181   5.497   3.137  14.283  0.2440  0.0431 -0.3667
18589TIP3    H177182   5.511   3.057  14.335 -0.3685  0.9886  1.2877
18589TIP3    H277183   5.536   3.117  14.198 -0.2261 -2.1568 -0.0971
18590TIP3   OH277184   0.369   2.584  10.925  0.6059  0.5263  0.0344
18590TIP3    H177185   0.440   2.638  10.960  0.9825 -0.4526  0.8106
18590TIP3    H277186   0.340   2.630  10.846  0.7401  2.0015  0.8175
18591TIP3   OH277187   0.438   1.009   4.050 -0.4445  0.0555 -0.0625
18591TIP3    H177188   0.491   0.972   3.979 -2.0253 -0.2715 -1.0977
18591TIP3    H277189   0.482   0.979   4.130  1.2502  0.2663 -0.8800
18592TIP3   OH277190   2.485   3.818   5.767 -0.4096  0.7174  0.2355
18592TIP3    H177191   2.552   3.846   5.704  0.0501  1.0571  0.8668
18592TIP3    H277192   2.523   3.837   5.852 -0.7763 -0.3406  0.6362
18593TIP3   OH277193   1.549   5.636  15.266 -0.1822 -0.3368 -0.0949
18593TIP3    H177194   1.585   5.721  15.243  0.7242 -0.4183  1.0014
18593TIP3    H277195   1.504   5.651  15.350 -1.6277 -0.5197 -0.8152
18594TIP3   OH277196   3.976   4.026  15.156 -0.1930 -0.1433 -0.7036
18594TIP3    H177197   4.069   4.003  15.151 -0.1175  0.2627 -1.1732
18594TIP3    H277198   3.940   3.998  15.072 -0.0743  1.5455 -1.3320
18595TIP3   OH277199   5.153   5.552  17.183 -0.1324 -0.1569 -0.1795
18595TIP3    H177200   5.164   5.629  17.240 -0.3387  0.9551 -1.6156
18595TIP3    H277201   5.241   5.532  17.153 -0.1197 -0.2894 -0.0554
18596TIP3   OH277202   2.991   3.941   1.798 -0.2451  0.3477 -0.9774
18596TIP3    H177203   2.932   4.015   1.784 -0.9173  0.1199  0.6348
18596TIP3    H277204   3.074   3.982   1.824  0.1118  0.6266 -2.4799
18597TIP3   OH277205   0.844   6.021  12.674  0.0406  0.1415 -0.1161
18597TIP3    H177206   0.795   6.064  12.745 -2.3532 -0.3373 -1.4089
18597TIP3    H277207   0.833   5.928  12.691  1.7452  0.0037  0.3542
18598TIP3   OH277208   1.720   2.190  15.728 -0.2645 -0.0768  0.3587
18598TIP3    H177209   1.662   2.260  15.696 -0.3688 -0.5164 -0.4231
18598TIP3    H277210   1.698   2.182  15.821 -3.5045 -2.1729 -0.5108
18599TIP3   OH277211   1.071   6.777   0.989 -0.5752 -0.3623  0.8029
18599TIP3    H177212   1.062   6.815   0.901  0.4718 -1.1000  0.3694
18599TIP3    H277213   1.062   6.682   0.975  1.5480 -0.6487  1.1994
18600TIP3   OH277214   0.914   1.168   5.082  0.2611  0.0647 -0.5175
18600TIP3    H177215   0.915   1.179   5.177 -0.4213 -1.8117 -0.2838
18600TIP3    H277216   0.821   1.173   5.058  0.5145  1.6089 -1.2252
18601TIP3   OH277217   2.115   4.763   5.804 -0.5682 -0.0101  0.2877
18601TIP3    H177218   2.032   4.800   5.833 -1.4074  0.2203 -2.2872
18601TIP3    H277219   2.173   4.839   5.796 -0.4123 -0.0418  1.0570
18602TIP3   OH277220   3.268   6.563   3.905 -0.0668  0.2232  0.6449
18602TIP3    H177221   3.173   6.558   3.891 -0.3488 -0.7940  2.6840
18602TIP3    H277222   3.298   6.473   3.897  0.3721  0.2193  2.2009
18603TIP3   OH277223   1.879   3.715   6.557  0.6300 -0.1398  0.5262
18603TIP3    H177224   1.818   3.788   6.540 -0.3093 -0.9151  0.5202
18603TIP3    H277225   1.932   3.710   6.478  0.2410  0.1122  0.2432
18604TIP3   OH277226   6.656   3.688  13.595  0.5587 -0.3929  0.2314
18604TIP3    H177227   6.592   3.654  13.657  0.7150 -0.1766  0.5139
18604TIP3    H277228   6.678   3.613  13.540 -1.2819 -0.0382 -1.0450
18605TIP3   OH277229   4.077   6.765  13.470  0.2861  0.0225 -0.2838
18605TIP3    H177230   4.073   6.707  13.546  0.9032 -0.8381 -0.8927
18605TIP3    H277231   3.987   6.792  13.455  0.1605  0.2140  0.7615
18606TIP3   OH277232   6.621   4.027  16.923 -0.3702  0.4611  0.3405
18606TIP3    H177233   6.564   4.095  16.957 -1.6913  0.3515 -1.5580
18606TIP3    H277234   6.588   4.011  16.834  0.4149 -2.0806  0.4753
18607TIP3   OH277235   6.195   1.289   4.756  0.3152 -0.1085  0.3452
18607TIP3    H177236   6.279   1.328   4.781  0.8528 -0.6546 -0.5666
18607TIP3    H277237   6.190   1.304   4.661  0.4239 -2.0336  0.0155
18608TIP3   OH277238   0.710   5.941  14.344  0.0944 -0.3782  0.4337
18608TIP3    H177239   0.663   6.015  14.383  0.3247  0.2859 -0.5326
18608TIP3    H277240   0.687   5.866  14.399  2.5713  1.0303  3.4597
18609TIP3   OH277241   2.914   5.556  15.853  0.0928  0.0957  0.6394
18609TIP3    H177242   2.894   5.478  15.905  0.3108 -0.0356  0.5274
18609TIP3    H277243   2.832   5.577  15.809  0.1994 -0.4497  0.1707
18610TIP3   OH277244   0.206   4.910   3.074  0.0262 -0.4761 -0.2468
18610TIP3    H177245   0.281   4.961   3.044  0.1304  0.0544  0.8967
18610TIP3    H277246   0.167   4.874   2.994 -0.0972  1.4603 -1.0698
18611TIP3   OH277247   1.549   4.763  10.445 -0.0835 -0.1462  0.1249
18611TIP3    H177248   1.565   4.676  10.481 -0.0247 -0.4942 -0.7358
18611TIP3    H277249   1.462   4.787  10.476  0.6682  0.2870  1.9381
18612TIP3   OH277250   1.963   3.906   2.744 -0.3669 -0.1680 -0.9464
18612TIP3    H177251   1.884   3.884   2.696  0.2836 -0.8111 -1.7271
18612TIP3    H277252   1.976   3.999   2.726 -1.0922  0.0087 -0.5884
18613TIP3   OH277253   0.507   6.012  17.214  0.2861 -0.3170 -0.3449
18613TIP3    H177254   0.572   5.952  17.177 -0.0114 -1.8892  1.5739
18613TIP3    H277255   0.424   5.985  17.174  0.6438  1.1494 -2.1584
18614TIP3   OH277256   1.091   1.177   4.725  0.0959  0.5113 -0.2178
18614TIP3    H177257   1.149   1.244   4.760 -0.3364  2.1133 -2.4572
18614TIP3    H277258   1.143   1.132   4.659  0.8046 -2.2731  2.1289
18615TIP3   OH277259   4.989   2.701   2.989  0.0246 -0.1710 -0.5673
18615TIP3    H177260   4.931   2.631   3.018 -0.3964  1.0302  1.6004
18615TIP3    H277261   5.034   2.665   2.912 -1.7547 -2.0071 -0.7777
18616TIP3   OH277262   1.066   1.591  16.860  0.5703 -0.0771  0.2479
18616TIP3    H177263   1.089   1.556  16.773  1.4117  0.7613  0.1259
18616TIP3    H277264   1.073   1.686  16.850 -0.2157  0.0572  0.9941
18617TIP3   OH277265   2.061   0.145   1.254  0.5006 -0.4373  0.2550
18617TIP3    H177266   2.012   0.090   1.193 -2.7474  3.3255 -0.7498
18617TIP3    H277267   2.011   0.141   1.336 -0.3762  1.6678 -0.1258
18618TIP3   OH277268   2.996   1.280   4.100  0.3447  0.3427 -0.3888
18618TIP3    H177269   2.969   1.203   4.149 -1.6518  1.3187  0.0798
18618TIP3    H277270   3.042   1.334   4.164 -1.3166  1.1277  0.1378
18619TIP3   OH277271   3.712   4.638   2.884  0.2133 -0.6633 -0.1327
18619TIP3    H177272   3.717   4.712   2.823 -3.1635 -1.5333 -1.5355
18619TIP3    H277273   3.648   4.665   2.949 -0.6675 -2.1661 -0.3741
18620TIP3   OH277274   2.336   6.634   3.382  0.3007 -0.6068 -0.1273
18620TIP3    H177275   2.251   6.654   3.342 -0.6228 -0.5408  1.7840
18620TIP3    H277276   2.397   6.627   3.309 -1.3463 -0.5643 -1.5200
18621TIP3   OH277277   3.084   2.431   2.221 -0.2903 -0.0470 -0.5562
18621TIP3    H177278   3.035   2.432   2.303  2.1909 -0.5681  0.9767
18621TIP3    H277279   3.070   2.344   2.185  1.3461 -1.0245  1.0668
18622TIP3   OH277280   0.673   3.491  13.097 -0.5450 -0.5838  0.1125
18622TIP3    H177281   0.697   3.567  13.150 -0.7791 -0.3035 -0.1799
18622TIP3    H277282   0.757   3.455  13.068 -0.4723  0.6434 -1.2583
18623TIP3   OH277283   3.750   6.034  12.659 -0.0243 -0.0597 -0.3751
18623TIP3    H177284   3.761   6.074  12.746 -0.1245  1.1952 -0.9264
18623TIP3    H277285   3.671   6.076  12.624  0.1940 -0.3365 -1.1940
18624TIP3   OH277286   1.534   4.197  12.506 -0.0543 -0.2741  0.3915
18624TIP3    H177287   1.566   4.171  12.420 -1.2637 -0.1019 -0.1134
18624TIP3    H277288   1.449   4.153  12.514  0.2354 -0.6294  1.6655
18625TIP3   OH277289   5.181   6.125  16.820  0.3200  0.0040  0.9181
18625TIP3    H177290   5.152   6.198  16.766 -0.0400 -0.7995  0.0174
18625TIP3    H277291   5.262   6.094  16.779 -0.7419 -1.5622 -0.0736
18626TIP3   OH277292   3.949   0.518  13.037 -0.5087  0.2173 -0.0668
18626TIP3    H177293   3.964   0.515  13.131 -1.5783 -0.1360  0.0996
18626TIP3    H277294   4.036   0.532  12.999  0.0876 -0.8509  0.8943
18627TIP3   OH277295   2.960   6.053  11.538  0.8740  0.0697  0.0030
18627TIP3    H177296   2.920   6.088  11.617  0.9192 -0.3441  0.2069
18627TIP3    H277297   2.975   6.130  11.483 -0.6344  0.1938 -0.2710
18628TIP3   OH277298   4.735   6.018  12.266  0.0643 -0.1095 -0.2608
18628TIP3    H177299   4.729   6.030  12.171  0.1664  2.0777 -0.0212
18628TIP3    H277300   4.710   6.103  12.302 -0.8023 -1.1726  1.7029
18629TIP3   OH277301   4.651   4.526   5.903  0.0801 -0.2508 -0.1432
18629TIP3    H177302   4.710   4.600   5.892 -0.3331  0.3770  1.5805
18629TIP3    H277303   4.709   4.450   5.912  0.5689  0.1298 -0.0655
18630TIP3   OH277304   4.618   4.738   2.289 -0.3423  0.2941 -0.2480
18630TIP3    H177305   4.641   4.646   2.302 -0.4429  0.3117  0.0758
18630TIP3    H277306   4.700   4.786   2.299 -0.0382  0.1110 -1.8532
18631TIP3   OH277307   1.257   0.931  13.770 -0.3455  0.0047  0.0400
18631TIP3    H177308   1.275   1.011  13.722  0.2412 -0.4438 -0.4850
18631TIP3    H277309   1.336   0.916  13.823  0.7984 -1.8551 -2.1244
18632TIP3   OH277310   1.072   0.213  15.612  0.0877  0.3677 -0.4661
18632TIP3    H177311   1.101   0.122  15.606 -1.1806 -0.0349 -0.8095
18632TIP3    H277312   1.143   0.259  15.656 -0.3074 -1.2867  1.9750
18633TIP3   OH277313   2.466   2.395   2.675  0.7239  0.4964  0.4189
18633TIP3    H177314   2.520   2.399   2.754  0.6191  3.0353  0.4160
18633TIP3    H277315   2.380   2.425   2.703 -0.0886 -1.3678 -0.0541
18634TIP3   OH277316   6.112   3.426  15.046 -0.2177 -0.3755  0.2353
18634TIP3    H177317   6.087   3.516  15.067  1.2877  0.1305 -0.0991
18634TIP3    H277318   6.193   3.411  15.095  0.9725 -0.6476 -1.7420
18635TIP3   OH277319   3.605   5.028  12.768 -0.0148 -0.4998  0.1846
18635TIP3    H177320   3.693   4.999  12.741  0.7276  0.8608  1.0947
18635TIP3    H277321   3.607   5.026  12.863 -0.5951  0.6580  0.2280
18636TIP3   OH277322   3.885   1.217  11.641 -0.5549  0.4189  0.6194
18636TIP3    H177323   3.836   1.138  11.621  0.1790 -0.8347  3.5220
18636TIP3    H277324   3.826   1.267  11.698  0.7016 -0.1569  2.4598
18637TIP3   OH277325   0.604   3.586   5.258  0.0685 -0.2416 -0.0637
18637TIP3    H177326   0.531   3.529   5.283  0.2535  0.2640  1.7049
18637TIP3    H277327   0.681   3.545   5.297  0.1578  1.3683  1.4950
18638TIP3   OH277328   5.230   3.359   3.973  0.0001 -0.8064  0.1004
18638TIP3    H177329   5.245   3.341   3.880  1.0086  2.2753 -0.3783
18638TIP3    H277330   5.297   3.307   4.018  0.1743 -1.5168 -0.9550
18639TIP3   OH277331   6.202   6.671  12.336  0.2025  0.2284 -0.0762
18639TIP3    H177332   6.121   6.688  12.384 -1.2726 -1.5353 -1.8878
18639TIP3    H277333   6.222   6.579  12.355  0.5545  0.0223 -1.4101
18640TIP3   OH277334   1.377   2.845  10.112  0.8101 -0.4950  0.4446
18640TIP3    H177335   1.347   2.813  10.197  1.3515  0.9537  1.1911
18640TIP3    H277336   1.296   2.868  10.066  0.5204 -1.2105  0.5718
18641TIP3   OH277337   1.068   5.333  16.134 -0.1689  0.5036  0.5384
18641TIP3    H177338   1.064   5.276  16.057 -1.4475 -0.2409  1.1454
18641TIP3    H277339   1.079   5.273  16.207  2.1666  1.2766  0.8626
18642TIP3   OH277340   1.496   2.410  14.095  0.1947 -0.4443 -0.2960
18642TIP3    H177341   1.585   2.375  14.093  0.2559 -0.4927  1.9831
18642TIP3    H277342   1.507   2.502  14.117 -0.3615 -0.8318  1.7721
18643TIP3   OH277343   5.553   4.094   6.004  0.4305  0.2109  0.3882
18643TIP3    H177344   5.627   4.070   6.059  2.2294 -0.2823 -2.1428
18643TIP3    H277345   5.568   4.046   5.922 -0.7457  2.9457 -1.4827
18644TIP3   OH277346   0.356   1.201   6.008 -0.1112 -0.1782 -0.4318
18644TIP3    H177347   0.426   1.263   5.988  0.0359 -0.4594 -0.8090
18644TIP3    H277348   0.402   1.125   6.044 -0.4836  0.8679  2.3773
18645TIP3   OH277349   0.680   3.268   5.460  0.8960 -0.0670 -0.0334
18645TIP3    H177350   0.751   3.274   5.396 -0.6831 -1.7557 -2.0100
18645TIP3    H277351   0.603   3.297   5.412 -0.3593 -1.5368  1.0728
18646TIP3   OH277352   3.893   6.282  14.634  0.0318 -0.1560  0.5040
18646TIP3    H177353   3.875   6.253  14.545 -0.6428 -0.7440  0.8294
18646TIP3    H277354   3.811   6.267  14.682  0.4432 -0.0161  1.2704
18647TIP3   OH277355   4.429   5.437  14.353  0.0879  0.3489  0.9204
18647TIP3    H177356   4.494   5.371  14.330  0.4605  0.6641  1.0703
18647TIP3    H277357   4.415   5.486  14.272 -1.3759 -0.9209  0.3689
18648TIP3   OH277358   2.393   0.830   1.232  0.0547  0.0487  0.5307
18648TIP3    H177359   2.430   0.875   1.308  1.0076 -3.4574  2.2302
18648TIP3    H277360   2.298   0.832   1.247  0.0443  1.8597  0.3318
18649TIP3   OH277361   5.397   6.077   2.490 -0.2381  0.3082  0.2202
18649TIP3    H177362   5.385   6.138   2.563  2.9478 -0.2947  1.3519
18649TIP3    H277363   5.367   5.993   2.525 -0.5507  0.3899  0.1511
18650TIP3   OH277364   4.754   0.358  11.417  0.0965  0.7606  0.2761
18650TIP3    H177365   4.690   0.408  11.468 -0.1692  0.2359  0.4609
18650TIP3    H277366   4.725   0.267  11.426  1.1095  0.4765  0.6992
18651TIP3   OH277367   4.033   2.146   2.065 -0.6639  0.1334 -0.0734
18651TIP3    H177368   4.007   2.226   2.111 -0.7640  0.0893 -0.0520
18651TIP3    H277369   4.111   2.170   2.016 -0.8786  0.3290 -0.3177
18652TIP3   OH277370   6.711   4.916  15.219 -0.5247  0.3939  0.2601
18652TIP3    H177371   6.760   4.874  15.148  1.9260  2.3432  0.7153
18652TIP3    H277372   6.670   4.843  15.266 -0.2803 -1.0879 -1.7581
18653TIP3   OH277373   5.238   0.925  11.960 -0.2663 -0.6365 -0.2383
18653TIP3    H177374   5.269   0.841  11.926  1.3445  0.0584 -0.5357
18653TIP3    H277375   5.237   0.983  11.884 -2.0437 -0.5738 -0.1689
18654TIP3   OH277376   0.040   4.836   1.556  0.1153 -0.3705 -0.1662
18654TIP3    H177377   0.129   4.801   1.560 -0.1956 -1.1252  0.4547
18654TIP3    H277378   0.029   4.882   1.639 -0.1997 -0.6057 -0.0753
18655TIP3   OH277379   4.467   5.196  16.772 -0.3662  0.3322  0.1759
18655TIP3    H177380   4.392   5.155  16.730 -0.3091  0.8468 -0.4431
18655TIP3    H277381   4.543   5.158  16.728 -0.2874  0.4057  0.2485
18656TIP3   OH277382   4.984   2.590  12.071  0.3956  0.2164 -0.4366
18656TIP3    H177383   4.906   2.571  12.123  2.1912 -0.9397  1.9834
18656TIP3    H277384   4.984   2.523  12.003  0.0089 -0.6847  0.4268
18657TIP3   OH277385   3.105   0.170   0.767  0.1066  0.6183 -0.1777
18657TIP3    H177386   3.142   0.089   0.734 -1.1406 -0.7766  1.7261
18657TIP3    H277387   3.180   0.228   0.779  1.3300 -1.1501  0.8821
18658TIP3   OH277388   5.698   5.552   5.375 -0.1019  0.5655  0.9702
18658TIP3    H177389   5.710   5.506   5.457  1.0018 -0.7014  0.1257
18658TIP3    H277390   5.775   5.610   5.369 -0.4627  1.0591  1.0874
18659TIP3   OH277391   1.967   2.589   3.347 -0.3721 -0.4089 -0.2243
18659TIP3    H177392   2.040   2.532   3.322 -0.4095 -0.4897 -0.1473
18659TIP3    H277393   1.978   2.667   3.292  0.7444  0.3052  0.9984
18660TIP3   OH277394   5.939   4.118   4.357 -0.0865 -0.4559 -0.3108
18660TIP3    H177395   5.968   4.129   4.448 -0.6760 -2.2352  0.1251
18660TIP3    H277396   5.996   4.049   4.322 -0.7299 -0.7130 -0.8776
18661TIP3   OH277397   5.010   5.328   0.457 -0.5208 -0.3347 -0.3253
18661TIP3    H177398   5.007   5.274   0.378  0.5072 -0.8968  0.0003
18661TIP3    H277399   4.930   5.305   0.505  1.2533 -3.7636  1.1907
18662TIP3   OH277400   5.861   0.351   1.995  0.5805  0.2478 -0.0445
18662TIP3    H177401   5.859   0.440   2.030 -0.4818 -0.0609  0.7125
18662TIP3    H277402   5.822   0.358   1.908 -1.0984  0.2622  0.6789
18663TIP3   OH277403   2.434   0.639  15.957  0.0728  0.4828 -0.0775
18663TIP3    H177404   2.389   0.573  15.904  1.3527 -1.1934  0.8746
18663TIP3    H277405   2.363   0.682  16.005 -0.4896 -2.7794  2.1507
18664TIP3   OH277406   4.910   6.189   6.127 -0.0998  0.1348  0.0952
18664TIP3    H177407   4.909   6.132   6.204  1.5535 -1.1976 -0.8678
18664TIP3    H277408   4.980   6.252   6.144  1.0827 -0.9187 -0.8707
18665TIP3   OH277409   2.118   2.298   0.843  0.3758 -0.1262  0.0985
18665TIP3    H177410   2.042   2.266   0.794 -0.0920  0.3207  0.5191
18665TIP3    H277411   2.120   2.392   0.823  0.2432  0.0393  0.8442
18666TIP3   OH277412   0.209   4.780   1.888  0.7230 -0.1155 -0.1651
18666TIP3    H177413   0.195   4.849   1.823  0.8664  0.3237  0.2627
18666TIP3    H277414   0.148   4.711   1.864 -0.2540  0.6453  0.0762
18667TIP3   OH277415   1.799   6.505   5.447 -0.5981 -0.3560  0.2595
18667TIP3    H177416   1.880   6.488   5.399 -1.6674 -0.3755 -1.6134
18667TIP3    H277417   1.800   6.599   5.463  0.4559 -0.5691  1.4999
18668TIP3   OH277418   5.223   3.728   0.291  0.2093 -0.0267 -0.2616
18668TIP3    H177419   5.137   3.688   0.294  0.0537  0.3485  0.7690
18668TIP3    H277420   5.229   3.777   0.374  1.2362  0.2897 -0.5142
18669TIP3   OH277421   2.899   1.884   4.893  0.0067  0.0266 -0.3549
18669TIP3    H177422   2.903   1.860   4.985  0.3872  0.3311 -0.2932
18669TIP3    H277423   2.990   1.897   4.867  0.1085 -2.7008 -1.4772
18670TIP3   OH277424   0.640   4.014  14.283  0.0433 -0.6519 -0.0786
18670TIP3    H177425   0.559   3.971  14.255 -0.0269 -0.9516  0.5728
18670TIP3    H277426   0.682   3.951  14.341 -0.1280  0.2075  0.9955
18671TIP3   OH277427   1.236   5.578  15.905 -0.5627  0.1884  0.4717
18671TIP3    H177428   1.187   5.601  15.984 -0.5595 -0.7214  0.7494
18671TIP3    H277429   1.327   5.570  15.935 -0.6047 -0.4400  0.4334
18672TIP3   OH277430   0.281   2.410   3.358  0.0501 -0.1824  0.2577
18672TIP3    H177431   0.298   2.492   3.311 -3.6991  1.7194  1.9193
18672TIP3    H277432   0.221   2.362   3.301  0.0624 -0.4992  0.5145
18673TIP3   OH277433   5.155   6.137  14.906  1.0324 -0.2655  0.0982
18673TIP3    H177434   5.133   6.155  14.997 -1.1189  1.2329 -0.6770
18673TIP3    H277435   5.144   6.043  14.896 -3.3699  0.1345  0.2528
18674TIP3   OH277436   3.862   2.789  11.507  0.6644  0.3804 -0.0469
18674TIP3    H177437   3.917   2.767  11.432 -0.7682  0.9280 -1.2714
18674TIP3    H277438   3.813   2.866  11.479 -1.4178 -0.6487  0.6767
18675TIP3   OH277439   0.642   2.592   3.481 -0.5191 -0.3495  0.3199
18675TIP3    H177440   0.584   2.659   3.443 -0.3212 -0.3771 -0.0330
18675TIP3    H277441   0.618   2.512   3.434 -0.1039 -0.3339  0.0797
18676TIP3   OH277442   1.381   0.711   3.253 -0.2497  0.3740  0.1468
18676TIP3    H177443   1.403   0.803   3.234  0.2983 -0.0261 -1.2394
18676TIP3    H277444   1.381   0.706   3.349 -0.7361  1.9235  0.2480
18677TIP3   OH277445   4.193   0.156  17.210  0.5757  0.7803 -0.1661
18677TIP3    H177446   4.132   0.226  17.233  0.1744  0.7382 -1.0716
18677TIP3    H277447   4.137   0.087  17.173  1.0501  0.2936  0.0218
18678TIP3   OH277448   0.860   1.262   1.049  0.2211  0.1214 -0.0464
18678TIP3    H177449   0.841   1.221   1.133 -0.4438  2.4894  0.9886
18678TIP3    H277450   0.773   1.276   1.010  0.5459 -1.5240 -1.4326
18679TIP3   OH277451   6.764   2.543   4.334  0.2031 -0.2723 -0.7154
18679TIP3    H177452   6.846   2.590   4.324 -0.2163  0.5041 -0.5749
18679TIP3    H277453   6.696   2.610   4.319 -0.4019 -0.6043  0.4250
18680TIP3   OH277454   3.901   3.103  16.411 -0.4837 -0.4027  0.2283
18680TIP3    H177455   3.875   3.045  16.339  1.3888  0.8411 -1.5053
18680TIP3    H277456   3.988   3.072  16.436  0.1177  1.0516 -0.0562
18681TIP3   OH277457   2.773   3.324  17.212  0.2024 -0.4419 -0.5008
18681TIP3    H177458   2.801   3.391  17.149  2.3231  0.0347  0.8904
18681TIP3    H277459   2.694   3.361  17.252  0.2365  0.3539 -1.1511
18682TIP3   OH277460   2.585   6.727  16.288 -0.3332  0.9811  0.1550
18682TIP3    H177461   2.530   6.745  16.212 -1.9103  0.5862  1.1778
18682TIP3    H277462   2.567   6.636  16.310  1.4715  0.5554 -0.0690
18683TIP3   OH277463   4.323   2.176   4.068  0.0507 -0.0111  0.4768
18683TIP3    H177464   4.324   2.269   4.044 -2.4594 -0.3407 -1.0579
18683TIP3    H277465   4.313   2.175   4.163  0.1738  1.2764  0.5049
18684TIP3   OH277466   5.924   4.629   0.655 -0.1763  0.1854  1.4383
18684TIP3    H177467   5.951   4.569   0.585  1.4959  3.1999 -0.6380
18684TIP3    H277468   5.828   4.627   0.652 -0.1322 -0.1927 -0.5485
18685TIP3   OH277469   6.308   1.041  14.466 -0.1499 -0.5859  0.1113
18685TIP3    H177470   6.362   1.011  14.393  0.0052 -0.9223  0.3637
18685TIP3    H277471   6.370   1.067  14.533 -0.2252  2.1399 -0.7958
18686TIP3   OH277472   2.639   6.450   0.755  0.0544  0.4982  0.2960
18686TIP3    H177473   2.615   6.433   0.664  0.8665  0.3308  0.1087
18686TIP3    H277474   2.726   6.411   0.765  0.1151  0.8119  1.0486
18687TIP3   OH277475   3.347   1.510  14.507 -0.0588 -0.3588 -0.7617
18687TIP3    H177476   3.332   1.502  14.601  1.8812 -0.9437 -0.4725
18687TIP3    H277477   3.301   1.590  14.482  2.3521  1.7947  1.3671
18688TIP3   OH277478   1.486   0.868  15.978  0.0310 -0.2170  0.1448
18688TIP3    H177479   1.454   0.948  16.021  1.1920 -0.3569  1.2906
18688TIP3    H277480   1.541   0.900  15.907  1.4258  0.0189  1.3095
18689TIP3   OH277481   1.856   2.370   3.481  0.3389  0.6108 -0.6594
18689TIP3    H177482   1.896   2.447   3.440  0.9251  0.6721  0.0198
18689TIP3    H277483   1.928   2.308   3.492 -0.0347  0.1512 -0.7422
18690TIP3   OH277484   2.141   3.183   0.566  0.2745  0.3443 -0.3323
18690TIP3    H177485   2.089   3.240   0.623 -1.4314  1.3572 -2.7901
18690TIP3    H277486   2.229   3.220   0.568  0.2542  0.3224  1.6508
18691TIP3   OH277487   1.217   0.759  13.133  0.4482  0.1205  0.2101
18691TIP3    H177488   1.202   0.828  13.198 -1.8156 -0.3282  0.2281
18691TIP3    H277489   1.307   0.773  13.103  0.7197  1.7992  1.7083
18692TIP3   OH277490   3.561   4.480  13.588  0.6360 -0.5097  0.2781
18692TIP3    H177491   3.590   4.511  13.674  0.2569  0.8032 -0.0460
18692TIP3    H277492   3.528   4.392  13.603  1.3829 -0.6217  1.3169
18693TIP3   OH277493   6.372   2.056  15.392  0.1104  0.2675  0.0139
18693TIP3    H177494   6.281   2.038  15.371  0.2148  0.7400 -0.8779
18693TIP3    H277495   6.390   2.140  15.351  1.7327 -1.1241 -2.2170
18694TIP3   OH277496   2.611   4.017  14.233 -0.4153 -0.2685 -0.2117
18694TIP3    H177497   2.687   4.067  14.204  0.7498 -1.2427  1.0683
18694TIP3    H277498   2.536   4.072  14.212  0.7944  1.7188  0.5307
18695TIP3   OH277499   6.592   6.148  15.680  0.3132 -0.2096 -0.0682
18695TIP3    H177500   6.640   6.086  15.734  0.0596  0.1543  0.5784
18695TIP3    H277501   6.591   6.109  15.593 -0.8891 -1.7008  0.5860
18696TIP3   OH277502   3.848   5.920   5.039 -0.4910 -0.2619  0.1322
18696TIP3    H177503   3.792   5.936   5.115 -0.2396  0.4587  0.1698
18696TIP3    H277504   3.798   5.859   4.985 -0.6953 -0.7321  0.8422
18697TIP3   OH277505   6.169   1.818   1.504 -0.1329  0.0983  0.1405
18697TIP3    H177506   6.204   1.774   1.581 -0.0558 -0.0926 -0.0045
18697TIP3    H277507   6.141   1.904   1.536  3.4510  1.5451 -0.3395
18698TIP3   OH277508   1.978   1.569   3.358 -0.0112  0.4517  0.5753
18698TIP3    H177509   1.970   1.540   3.449 -1.6447 -0.8130  0.0450
18698TIP3    H277510   1.913   1.639   3.348 -0.9191 -0.4729 -0.0381
18699TIP3   OH277511   4.715   5.777  10.722  0.2055  0.3732 -0.3983
18699TIP3    H177512   4.787   5.766  10.659  0.8359 -1.4265  0.5846
18699TIP3    H277513   4.636   5.754  10.673  0.2443  2.5310 -1.5393
18700TIP3   OH277514   1.847   0.050   1.935 -0.6235  0.4683  0.7388
18700TIP3    H177515   1.780   0.017   1.876 -0.6241  0.9763  0.4507
18700TIP3    H277516   1.895   0.114   1.883  1.3223 -1.2587  0.3115
18701TIP3   OH277517   4.561   0.477  15.051 -0.1611 -0.0019  0.0101
18701TIP3    H177518   4.545   0.568  15.024 -3.0235 -0.6525 -0.6124
18701TIP3    H277519   4.542   0.425  14.974  3.0035 -1.0966 -0.1177
18702TIP3   OH277520   1.427   4.563   5.730 -1.0961  0.6243  0.3645
18702TIP3    H177521   1.381   4.489   5.691  0.9354 -1.0900  1.1372
18702TIP3    H277522   1.507   4.572   5.679  0.4825 -0.1787  2.6355
18703TIP3   OH277523   5.645   3.859   2.643 -0.1897 -0.1634 -0.0305
18703TIP3    H177524   5.598   3.925   2.694  1.9931  1.3335  0.1418
18703TIP3    H277525   5.580   3.792   2.624 -1.7928  0.6991  2.1660
18704TIP3   OH277526   4.197   5.566  15.669 -0.3137 -0.6209  0.0160
18704TIP3    H177527   4.257   5.559  15.744 -1.5053  0.1607  1.0604
18704TIP3    H277528   4.142   5.488  15.676 -1.0277 -0.0802  0.5027
18705TIP3   OH277529   2.427   3.341  11.623 -0.3071 -0.3750 -0.0230
18705TIP3    H177530   2.506   3.294  11.596 -0.3267 -0.0897 -0.5890
18705TIP3    H277531   2.358   3.306  11.567 -0.3993  0.0401 -0.1682
18706TIP3   OH277532   3.394   0.412  11.210 -0.0286 -0.0042 -1.1256
18706TIP3    H177533   3.453   0.436  11.139  0.8424 -0.1472 -0.4629
18706TIP3    H277534   3.442   0.345  11.259 -0.2885  0.6643  0.0606
18707TIP3   OH277535   5.605   2.721  16.341  0.4154 -0.5173  0.7225
18707TIP3    H177536   5.619   2.790  16.406  0.7781 -0.1673  0.2757
18707TIP3    H277537   5.661   2.745  16.267 -0.2191 -0.7576  0.1582
18708TIP3   OH277538   3.930   3.028  13.809 -0.3321 -0.1094 -0.2677
18708TIP3    H177539   3.992   3.101  13.803  0.3281 -0.5922  0.6010
18708TIP3    H277540   3.971   2.958  13.759 -0.0907 -0.4889  0.4614
18709TIP3   OH277541   3.511   2.081   4.109 -0.5875  0.0114 -0.5597
18709TIP3    H177542   3.515   2.119   4.021 -0.6586  1.5233  0.0880
18709TIP3    H277543   3.421   2.051   4.118 -0.1356 -1.7652 -1.6605
18710TIP3   OH277544   2.474   4.081  16.898  0.4057  0.6944 -0.5749
18710TIP3    H177545   2.385   4.054  16.917 -0.5199  2.8452 -1.6930
18710TIP3    H277546   2.493   4.043  16.812  0.6790  0.0535 -0.2416
18711TIP3   OH277547   3.364   3.131   0.538 -0.3151 -0.0503  0.4055
18711TIP3    H177548   3.295   3.156   0.477 -0.0755  1.4432  0.7313
18711TIP3    H277549   3.443   3.172   0.504 -0.0968  0.4448  1.4842
18712TIP3   OH277550   4.112   5.861  17.009  0.2953  0.4545  0.2764
18712TIP3    H177551   4.131   5.937  16.954 -0.9842  0.9304  0.4764
18712TIP3    H277552   4.061   5.802  16.953  0.0717  0.3705  0.5653
18713TIP3   OH277553   2.251   6.764  16.571 -0.4844 -0.4815 -0.3144
18713TIP3    H177554   2.232   6.744  16.479 -0.7655  1.3300 -0.6681
18713TIP3    H277555   2.258   6.860  16.574  0.9160 -0.6158  1.2886
18714TIP3   OH277556   2.713   1.802   3.733  0.1670  0.0865 -0.6317
18714TIP3    H177557   2.676   1.755   3.658 -0.6252  2.9234 -2.0872
18714TIP3    H277558   2.638   1.841   3.776  0.9239  1.0468 -0.1830
18715TIP3   OH277559   3.623   6.777   5.287  0.0559 -0.2876  0.2148
18715TIP3    H177560   3.568   6.757   5.212 -1.9283 -0.4950  1.6719
18715TIP3    H277561   3.660   6.693   5.314  1.7143 -0.0352 -1.2204
18716TIP3   OH277562   6.431   2.313  14.594 -0.4060  0.0775 -0.4589
18716TIP3    H177563   6.405   2.392  14.641 -0.4026 -0.4518  0.4677
18716TIP3    H277564   6.519   2.293  14.627  0.9912  1.5674 -3.1980
18717TIP3   OH277565   4.743   4.465   6.232 -0.6337  0.2592 -0.7529
18717TIP3    H177566   4.791   4.541   6.198 -0.0396 -0.0391 -0.5981
18717TIP3    H277567   4.735   4.482   6.326 -2.7896  1.3621 -1.1143
18718TIP3   OH277568   4.680   4.204   5.478 -0.4618 -0.3831 -0.3405
18718TIP3    H177569   4.635   4.278   5.519  1.0990  0.1227  0.4843
18718TIP3    H277570   4.663   4.130   5.536  0.3337 -0.0409  0.3299
18719TIP3   OH277571   0.501   1.195  14.566 -0.2979 -0.6238  1.0841
18719TIP3    H177572   0.530   1.280  14.535 -0.4743 -0.6558  0.8324
18719TIP3    H277573   0.412   1.209  14.598 -0.5379 -0.8363  0.5096
18720TIP3   OH277574   5.784   0.838  16.989 -0.1782 -0.3223 -0.4650
18720TIP3    H177575   5.848   0.804  17.050 -0.7135  0.1510  0.3743
18720TIP3    H277576   5.830   0.843  16.905  1.0905  0.7404  0.2931
18721TIP3   OH277577   5.402   6.708   2.234 -0.3757 -1.3305 -0.1101
18721TIP3    H177578   5.317   6.709   2.278 -1.9464  0.4655 -3.0599
18721TIP3    H277579   5.404   6.623   2.189 -0.3082 -1.6483  0.4827
18722TIP3   OH277580   4.380   3.808   2.805 -0.3525 -0.6391 -0.0008
18722TIP3    H177581   4.346   3.828   2.718 -0.4873 -1.5859 -0.1657
18722TIP3    H277582   4.472   3.788   2.791  0.2469  1.6695  0.4122
18723TIP3   OH277583   5.511   2.496  11.873 -0.4472 -0.3524  0.8685
18723TIP3    H177584   5.600   2.508  11.840 -0.0737 -0.3143  1.8956
18723TIP3    H277585   5.481   2.415  11.831  1.1864 -2.0511  2.8705
18724TIP3   OH277586   6.532   0.995  11.631 -0.0742  0.3764 -0.0338
18724TIP3    H177587   6.457   0.942  11.658  0.2831  0.4205  1.0674
18724TIP3    H277588   6.503   1.040  11.552 -1.2457  0.4547  0.4361
18725TIP3   OH277589   1.104   5.631   2.960 -0.5143 -0.0318  0.1218
18725TIP3    H177590   1.123   5.708   2.906 -0.8411 -0.5771 -0.7805
18725TIP3    H277591   1.086   5.667   3.047 -0.3535  0.8856 -0.2136
18726TIP3   OH277592   0.362   3.312   6.277  0.1591 -0.3411 -1.1976
18726TIP3    H177593   0.314   3.394   6.291 -1.1401 -0.7554 -3.0967
18726TIP3    H277594   0.302   3.257   6.227  0.9606 -2.5260  0.1515
18727TIP3   OH277595   3.714   0.166   2.843  0.7447  0.2339 -0.5946
18727TIP3    H177596   3.772   0.241   2.829  0.9958  0.0067 -0.7957
18727TIP3    H277597   3.746   0.100   2.781  1.1580 -0.3959  0.2780
18728TIP3   OH277598   4.212   4.267   1.735 -0.0918 -0.6992  0.2701
18728TIP3    H177599   4.197   4.279   1.829  0.3512 -0.3127  0.2936
18728TIP3    H277600   4.213   4.356   1.699  1.5196 -0.7261  0.1779
18729TIP3   OH277601   3.722   3.721  11.321  0.4914  0.4742  0.3370
18729TIP3    H177602   3.751   3.812  11.311 -0.5763  0.7682 -0.1490
18729TIP3    H277603   3.764   3.675  11.248 -0.2568  0.8938 -0.3612
18730TIP3   OH277604   6.493   1.760  13.349 -0.0064 -0.7129  0.4485
18730TIP3    H177605   6.526   1.800  13.269 -0.1967  0.8716  1.1563
18730TIP3    H277606   6.397   1.763  13.340 -0.0300 -0.4599  0.7739
18731TIP3   OH277607   4.007   6.382   5.233  0.3056  0.3061  0.0810
18731TIP3    H177608   4.019   6.296   5.194  3.6943  0.9505 -0.4480
18731TIP3    H277609   4.031   6.443   5.163 -1.4671  1.6970  0.6447
18732TIP3   OH277610   6.698   1.684  12.732 -0.8887  0.5598  0.4893
18732TIP3    H177611   6.683   1.669  12.825 -1.6480 -0.8664  0.1391
18732TIP3    H277612   6.677   1.601  12.690 -0.0637  1.0395 -0.9093
18733TIP3   OH277613   4.353   4.301  16.154  0.2411 -0.5594  0.3285
18733TIP3    H177614   4.397   4.342  16.079  0.9802 -1.0470  0.4908
18733TIP3    H277615   4.424   4.258  16.203 -0.1540  0.2223  1.6175
18734TIP3   OH277616   1.406   5.265  16.053  0.8018  0.2442  0.5531
18734TIP3    H177617   1.352   5.319  16.111  2.7063  0.7308  1.9267
18734TIP3    H277618   1.476   5.232  16.110  0.2159 -2.9076 -0.4770
18735TIP3   OH277619   1.907   0.954  14.143  0.3400 -0.1959  0.0881
18735TIP3    H177620   1.832   0.974  14.198  0.1855  1.2608 -0.6149
18735TIP3    H277621   1.934   1.039  14.109  1.0441 -0.9583 -1.2781
18736TIP3   OH277622   4.008   1.737  12.889 -0.1562  0.4546 -0.4400
18736TIP3    H177623   4.086   1.738  12.834  0.4068  0.0226  0.3490
18736TIP3    H277624   3.959   1.660  12.861 -0.0159  0.4006 -0.5358
18737TIP3   OH277625   2.781   0.242  16.626  0.0487 -0.4120 -0.2139
18737TIP3    H177626   2.876   0.229  16.621  0.1599  0.5144 -0.6548
18737TIP3    H277627   2.771   0.325  16.672 -0.5167 -0.0728 -0.9285
18738TIP3   OH277628   6.342   2.021  13.047  0.7979  0.0366  0.2598
18738TIP3    H177629   6.412   2.064  12.998  1.3351 -1.4865 -0.3446
18738TIP3    H277630   6.274   2.005  12.983  0.5753  0.0479  0.4929
18739TIP3   OH277631   2.866   2.690   2.373  0.6603  0.2780  0.5422
18739TIP3    H177632   2.959   2.686   2.352  0.7956 -0.3764  1.2378
18739TIP3    H277633   2.837   2.599   2.370 -0.3325  0.6392 -1.2886
18740TIP3   OH277634   1.549   3.238  12.223 -0.6176 -0.1908 -0.0801
18740TIP3    H177635   1.479   3.252  12.159 -0.8476  0.0181  0.2093
18740TIP3    H277636   1.627   3.221  12.171 -0.7518  0.2133 -0.4228
18741TIP3   OH277637   5.929   4.533   2.849 -0.3181 -0.5034  0.3368
18741TIP3    H177638   5.845   4.489   2.843  0.0857 -1.3524  0.7269
18741TIP3    H277639   5.973   4.491   2.924  0.7067 -0.5296 -0.2662
18742TIP3   OH277640   1.158   3.270  16.067  0.2548 -0.0901  0.2184
18742TIP3    H177641   1.135   3.179  16.087  0.6414 -0.1168  0.5667
18742TIP3    H277642   1.237   3.286  16.119  0.6149  0.2122 -0.4204
18743TIP3   OH277643   5.279   4.186   0.532 -0.1138  0.4612 -0.4802
18743TIP3    H177644   5.296   4.276   0.560 -0.5920  0.6479 -0.7768
18743TIP3    H277645   5.341   4.171   0.460  0.1812  0.4461 -0.2243
18744TIP3   OH277646   5.774   5.948   1.253 -0.0563  0.2379  0.3741
18744TIP3    H177647   5.756   5.987   1.339 -0.8213  1.7275 -0.4526
18744TIP3    H277648   5.755   5.855   1.265  0.0583  0.3914  1.8769
18745TIP3   OH277649   0.286   2.309  15.967 -0.3351  0.1002 -0.3564
18745TIP3    H177650   0.274   2.368  15.893  4.3172  1.1372 -0.4525
18745TIP3    H277651   0.322   2.229  15.929 -1.4968 -0.8123  0.4013
18746TIP3   OH277652   4.636   5.499  11.277  0.2781  0.6607 -0.2035
18746TIP3    H177653   4.634   5.484  11.183 -0.4695  1.4248 -0.3198
18746TIP3    H277654   4.585   5.426  11.314 -1.1696  1.4602 -0.5631
18747TIP3   OH277655   1.233   5.741  14.977  0.2620 -0.1214  0.6743
18747TIP3    H177656   1.178   5.796  15.033  1.1938  0.9001  0.5972
18747TIP3    H277657   1.302   5.799  14.947  1.4172 -1.4121  0.8025
18748TIP3   OH277658   1.834   0.197   1.453  0.0012 -0.2189 -0.2202
18748TIP3    H177659   1.744   0.208   1.424  0.0037 -0.0706 -0.1730
18748TIP3    H277660   1.843   0.258   1.526  0.8703  1.5629 -1.7823
18749TIP3   OH277661   1.068   4.020   1.967 -0.1140 -0.0601 -0.5165
18749TIP3    H177662   1.123   3.981   1.899  1.0340  1.9139 -0.7467
18749TIP3    H277663   1.080   3.963   2.043 -0.2680 -1.4485 -1.5045
18750TIP3   OH277664   2.057   0.254  11.994  0.0896 -0.0154  0.0833
18750TIP3    H177665   2.109   0.250  12.075  0.3159  0.6939 -0.0220
18750TIP3    H277666   1.981   0.198  12.012 -0.4284  1.0011  1.2103
18751TIP3   OH277667   2.775   6.333  12.440 -0.0254  0.3841  0.3552
18751TIP3    H177668   2.798   6.339  12.347 -1.1301 -0.5630  0.0238
18751TIP3    H277669   2.814   6.412  12.479 -1.3788  1.8962 -1.2856
18752TIP3   OH277670   4.538   1.704   5.544  0.8404 -0.1776  0.8063
18752TIP3    H177671   4.472   1.772   5.554 -0.6578 -1.5014  0.1928
18752TIP3    H277672   4.621   1.747   5.567 -0.2980  1.3279  2.2179
18753TIP3   OH277673   2.618   3.480   3.943 -0.0273  0.3356 -0.2808
18753TIP3    H177674   2.656   3.437   3.866 -0.5421  1.3211 -1.1064
18753TIP3    H277675   2.688   3.481   4.008 -0.2115 -2.3474  0.0002
18754TIP3   OH277676   5.851   3.608  13.841 -0.4694 -0.3073  0.2505
18754TIP3    H177677   5.848   3.519  13.876 -0.2631 -0.3616  0.1290
18754TIP3    H277678   5.875   3.597  13.749 -1.9041 -0.2280 -0.1463
18755TIP3   OH277679   5.493   3.056  16.751 -0.0198  0.2124 -0.3271
18755TIP3    H177680   5.567   3.106  16.786 -0.0129 -0.6848  0.9512
18755TIP3    H277681   5.427   3.060  16.819  0.1070 -1.7938 -0.0660
18756TIP3   OH277682   5.593   4.251  15.312  0.5748 -0.3801 -0.3655
18756TIP3    H177683   5.577   4.205  15.230  4.7135  1.4183 -2.3357
18756TIP3    H277684   5.546   4.334  15.302  0.4882 -0.4628 -0.6576
18757TIP3   OH277685   3.320   2.955  16.504 -0.0635  0.1643 -0.5511
18757TIP3    H177686   3.330   2.979  16.412  0.2605 -1.2445 -0.8884
18757TIP3    H277687   3.359   2.868  16.511 -1.5844 -0.4584  0.5708
18758TIP3   OH277688   4.876   5.707   1.834 -0.7380 -0.6087  0.2843
18758TIP3    H177689   4.801   5.745   1.789 -0.6149  0.1772  0.7372
18758TIP3    H277690   4.921   5.655   1.767 -0.2714  0.9444 -0.6195
18759TIP3   OH277691   4.458   6.062  13.529 -0.4596 -0.4249  0.0190
18759TIP3    H177692   4.382   6.112  13.559 -0.2951  0.6789 -1.3748
18759TIP3    H277693   4.520   6.128  13.499  0.7941 -1.3552  0.5331
18760TIP3   OH277694   6.593   3.708   4.853  0.0120  0.0488 -0.4903
18760TIP3    H177695   6.529   3.691   4.784  0.7033 -1.1212 -0.8673
18760TIP3    H277696   6.543   3.701   4.934 -0.4396 -0.3727 -0.8012
18761TIP3   OH277697   4.283   0.140   2.431  0.0640 -0.0815 -0.1665
18761TIP3    H177698   4.265   0.051   2.401  0.5074 -0.1825 -0.1333
18761TIP3    H277699   4.210   0.192   2.396  0.5519 -0.2015 -1.3955
18762TIP3   OH277700   4.877   1.389  12.693 -0.5782  0.3086 -0.4994
18762TIP3    H177701   4.927   1.405  12.773 -0.5227 -0.1300 -0.4453
18762TIP3    H277702   4.869   1.294  12.689 -0.8057  0.3453 -0.8796
18763TIP3   OH277703   4.281   6.642   0.031 -0.1505 -0.2493  0.6444
18763TIP3    H177704   4.196   6.612  -0.001 -0.2805  1.2885 -0.4855
18763TIP3    H277705   4.299   6.586   0.107 -1.3521 -1.7536 -0.1496
18764TIP3   OH277706   2.008   0.696  13.498 -0.5118  0.1221 -0.0049
18764TIP3    H177707   1.914   0.691  13.515 -1.2496  1.8279 -3.1283
18764TIP3    H277708   2.025   0.629  13.432  0.6073 -0.5642  0.9492
18765TIP3   OH277709   4.586   5.062   5.361  0.4784 -0.3190 -0.1447
18765TIP3    H177710   4.568   5.109   5.441  0.6610  0.1282 -0.3663
18765TIP3    H277711   4.527   4.987   5.363  0.0089  0.0592  0.0805
18766TIP3   OH277712   6.142   3.809   1.885 -1.1061 -1.0467 -0.5321
18766TIP3    H177713   6.052   3.839   1.874 -1.3368 -1.9269 -1.1058
18766TIP3    H277714   6.155   3.744   1.815 -0.6255 -2.2924  0.6878
18767TIP3   OH277715   5.730   5.462   4.593  0.2745  0.4613  0.2185
18767TIP3    H177716   5.662   5.480   4.657  0.2443  3.7283 -0.6426
18767TIP3    H277717   5.797   5.529   4.610  0.1851  1.5111 -3.2222
18768TIP3   OH277718   0.815   1.722  13.056  0.1593 -0.3038 -0.0838
18768TIP3    H177719   0.827   1.784  13.127  1.1939  0.1246 -0.6173
18768TIP3    H277720   0.762   1.652  13.094  0.7200 -0.0968  1.1130
18769TIP3   OH277721   4.058   6.574   5.050  0.0834 -0.0953  0.1850
18769TIP3    H177722   4.000   6.611   4.983 -1.3857 -1.9825  0.4003
18769TIP3    H277723   4.146   6.580   5.011 -0.4075  1.4482 -0.7257
18770TIP3   OH277724   1.809   3.181  16.928 -0.1273  0.4197  0.3076
18770TIP3    H177725   1.803   3.177  17.024  0.3293 -1.1704  0.2756
18770TIP3    H277726   1.769   3.100  16.898  2.0311 -0.2944 -0.7335
18771TIP3   OH277727   3.999   2.110   3.176  0.1370  0.9503  0.2580
18771TIP3    H177728   3.977   2.090   3.085 -0.5100  1.2245  0.3558
18771TIP3    H277729   3.973   2.033   3.226  1.5981  0.3100  0.0529
18772TIP3   OH277730   1.925   1.037  16.239  0.0646 -0.1880 -0.4306
18772TIP3    H177731   1.977   0.957  16.248 -0.1211 -0.3648 -0.9129
18772TIP3    H277732   1.990   1.106  16.228  0.2163 -0.3184 -0.3596
18773TIP3   OH277733   2.612   0.567  12.750 -0.5337 -0.3892 -0.3068
18773TIP3    H177734   2.626   0.526  12.665 -0.1313 -1.4175  0.2489
18773TIP3    H277735   2.696   0.558  12.796 -0.6896  0.3210  0.1319
18774TIP3   OH277736   6.021   0.931  14.435 -0.0479  0.1515 -0.5188
18774TIP3    H177737   6.099   0.983  14.456 -0.2994  0.2270  0.2343
18774TIP3    H277738   5.991   0.897  14.519 -1.0863  0.4785 -0.7574
18775TIP3   OH277739   0.277   3.375   0.446  0.2772 -0.0254 -0.0921
18775TIP3    H177740   0.269   3.280   0.457 -0.4595 -0.1875 -1.8872
18775TIP3    H277741   0.323   3.386   0.363  1.6216  1.1865  0.7962
18776TIP3   OH277742   5.081   1.486  11.511  0.0257  0.1041  0.2004
18776TIP3    H177743   5.135   1.551  11.467 -0.7812  0.7210  0.1070
18776TIP3    H277744   5.136   1.453  11.582  0.4759  0.8285  0.1937
18777TIP3   OH277745   5.078   2.108  15.496 -0.1615 -0.3478  0.3039
18777TIP3    H177746   4.984   2.104  15.514 -0.8331  2.6860 -2.1034
18777TIP3    H277747   5.115   2.151  15.574 -0.7127 -1.5456  1.2563
18778TIP3   OH277748   1.902   5.596  12.519  0.1338  0.2054 -0.3897
18778TIP3    H177749   1.904   5.560  12.430 -1.1573 -2.0223  0.4520
18778TIP3    H277750   1.901   5.691  12.505  1.2817 -0.0706 -2.7134
18779TIP3   OH277751   1.701   2.383   0.851 -0.2982 -0.2504  0.0109
18779TIP3    H177752   1.631   2.325   0.821  1.5981 -2.8332  0.4666
18779TIP3    H277753   1.696   2.380   0.946  0.8179 -0.9146  0.0488
18780TIP3   OH277754   6.783   1.747   3.443  0.1440  0.0562 -0.1763
18780TIP3    H177755   6.864   1.730   3.395  0.5007  0.6101  0.2327
18780TIP3    H277756   6.718   1.692   3.399  0.8385 -0.7730 -0.1930
18781TIP3   OH277757   5.447   4.786   0.661 -0.6047 -0.3241 -0.3039
18781TIP3    H177758   5.468   4.839   0.584 -1.2138 -0.1471 -0.3564
18781TIP3    H277759   5.439   4.850   0.733  2.1538 -0.7071  0.3910
18782TIP3   OH277760   1.098   3.708   0.082 -0.8400  0.0521  0.0632
18782TIP3    H177761   1.137   3.786   0.044  2.4643 -0.5254  2.0739
18782TIP3    H277762   1.145   3.635   0.042 -2.4842 -0.8487 -0.2789
18783TIP3   OH277763   2.797   6.164  16.297  0.0155 -0.7489  0.0532
18783TIP3    H177764   2.879   6.176  16.249  0.0105 -0.4385  0.1223
18783TIP3    H277765   2.763   6.080  16.265  0.5248 -1.0421  0.2623
18784TIP3   OH277766   4.332   1.419   1.242  0.0310  0.0675  0.0948
18784TIP3    H177767   4.418   1.419   1.199  0.5659  2.0112  1.1255
18784TIP3    H277768   4.280   1.480   1.190  0.1689  1.1249  1.1737
18785TIP3   OH277769   3.947   4.944   4.017 -0.0646  0.2486  0.1958
18785TIP3    H177770   3.885   4.985   4.078 -1.3906 -1.5378  0.1075
18785TIP3    H277771   3.929   4.986   3.933 -0.5252  0.4043  0.3700
18786TIP3   OH277772   2.306   2.722   3.445  0.2525 -0.4237 -0.1207
18786TIP3    H177773   2.377   2.704   3.383 -1.3321 -0.9323 -1.8295
18786TIP3    H277774   2.272   2.807   3.417  0.1991 -0.1758  0.6993
18787TIP3   OH277775   1.117   4.682  11.536 -0.3666  0.2185 -0.5835
18787TIP3    H177776   1.059   4.630  11.480 -0.9571  0.3158 -0.0640
18787TIP3    H277777   1.196   4.694  11.483 -0.7591 -0.0380 -1.2407
18788TIP3   OH277778   5.082   1.766  12.504 -0.0263 -0.3444  0.7239
18788TIP3    H177779   5.108   1.793  12.592  0.7809  1.1850  0.0329
18788TIP3    H277780   5.036   1.843  12.469 -1.6613 -1.4684  0.3424
18789TIP3   OH277781   3.187   4.019   3.344  1.0163  0.0254 -0.7842
18789TIP3    H177782   3.136   3.979   3.273  0.5036 -1.7347  0.5452
18789TIP3    H277783   3.255   4.070   3.299 -0.1562  0.0847 -2.5485
18790TIP3   OH277784   1.512   0.367  16.978  0.1051  0.1597  0.2226
18790TIP3    H177785   1.522   0.433  16.909 -1.4219 -1.1792 -1.3607
18790TIP3    H277786   1.601   0.337  16.997  0.5261  0.3423 -1.4007
18791TIP3   OH277787   4.376   4.906  11.138  0.4807 -0.5047 -0.2950
18791TIP3    H177788   4.428   4.830  11.114  3.7755  1.8407 -1.0489
18791TIP3    H277789   4.377   4.961  11.060  1.2445  1.8811  1.3267
18792TIP3   OH277790   2.193   5.623   5.497 -0.0965  0.0809 -0.7589
18792TIP3    H177791   2.281   5.660   5.489  1.0188 -2.6924 -1.7995
18792TIP3    H277792   2.180   5.614   5.592  0.6036  0.8446 -0.5886
18793TIP3   OH277793   2.738   5.651   6.164 -0.1132  0.2766 -0.5201
18793TIP3    H177794   2.655   5.606   6.178 -0.1029  0.7167  1.1013
18793TIP3    H277795   2.716   5.727   6.111 -0.6103 -0.0698 -0.8075
18794TIP3   OH277796   2.154   3.210  14.202 -0.5402  0.0964 -0.9284
18794TIP3    H177797   2.070   3.166  14.217 -0.4429 -0.3483 -1.6385
18794TIP3    H277798   2.167   3.264  14.280 -1.1875 -0.3060 -0.5324
18795TIP3   OH277799   5.280   5.795   4.464 -0.0912  0.6129  0.1246
18795TIP3    H177800   5.352   5.845   4.425  1.1115 -0.7786  0.4957
18795TIP3    H277801   5.231   5.761   4.390 -0.5997  1.8725 -0.1313
18796TIP3   OH277802   2.270   1.497   3.047  0.3917 -0.1622 -0.6275
18796TIP3    H177803   2.186   1.451   3.041  0.2616 -0.0761  0.4217
18796TIP3    H277804   2.287   1.504   3.141  1.0369  0.8069 -0.8058
18797TIP3   OH277805   1.907   5.915   0.271  0.4078 -0.0494 -0.1909
18797TIP3    H177806   1.912   5.989   0.211 -0.8683 -0.0311 -0.2858
18797TIP3    H277807   1.941   5.841   0.222 -1.4286 -0.2149 -1.2498
18798TIP3   OH277808   6.712   5.153   0.256  0.3198 -0.0576 -0.5820
18798TIP3    H177809   6.749   5.066   0.272 -0.5668 -0.3362 -0.0145
18798TIP3    H277810   6.758   5.185   0.179  0.2012 -1.3062 -1.1815
18799TIP3   OH277811   1.288   3.497   3.905  0.1754  0.3884 -0.0340
18799TIP3    H177812   1.262   3.529   3.991 -0.4137  1.1499 -0.4854
18799TIP3    H277813   1.324   3.574   3.861  0.2388  0.0600 -0.5592
18800TIP3   OH277814   4.796   1.549   1.984  0.0706  0.2107  0.2384
18800TIP3    H177815   4.768   1.461   2.011  1.5681 -0.6322 -0.8678
18800TIP3    H277816   4.726   1.579   1.925 -0.0783 -0.5656  0.0022
18801TIP3   OH277817   5.977   0.206  14.469 -0.1755 -0.1135  0.2044
18801TIP3    H177818   5.973   0.162  14.384  0.2649 -0.4064  0.3329
18801TIP3    H277819   6.071   0.215  14.487 -0.2683  0.0610  0.5975
18802TIP3   OH277820   1.284   2.072  16.927 -0.1521 -0.5978 -0.4375
18802TIP3    H177821   1.306   2.136  16.859 -1.2200  0.1280 -0.1244
18802TIP3    H277822   1.316   2.112  17.008  0.7639 -1.2803 -0.4538
18803TIP3   OH277823   4.630   6.383   2.600 -0.3502 -0.1308  0.3251
18803TIP3    H177824   4.687   6.306   2.594 -0.6637 -0.3701  0.3919
18803TIP3    H277825   4.541   6.347   2.597 -0.5166  0.3870 -1.7923
18804TIP3   OH277826   5.681   1.025  14.426 -0.2228 -0.3678 -0.1980
18804TIP3    H177827   5.599   1.067  14.402 -1.3123 -2.0590  0.4653
18804TIP3    H277828   5.686   1.032  14.521  0.3629 -0.3209 -0.2306
18805TIP3   OH277829   4.485   3.051   5.193 -0.7845  0.0312  0.1427
18805TIP3    H177830   4.421   2.985   5.168 -0.9285  0.1980  0.0686
18805TIP3    H277831   4.437   3.111   5.250 -1.0506  0.9131 -1.0082
18806TIP3   OH277832   2.487   5.933   1.835  0.0180  0.1788  0.4118
18806TIP3    H177833   2.427   5.972   1.898 -0.7802 -0.9665  0.3698
18806TIP3    H277834   2.448   5.848   1.814  1.9834 -0.8653  0.8727
18807TIP3   OH277835   2.634   4.768   5.977  0.0413  0.0634 -0.2663
18807TIP3    H177836   2.580   4.838   6.014 -1.0499 -0.9636  0.1570
18807TIP3    H277837   2.665   4.719   6.054 -0.9323 -1.1447 -0.6148
18808TIP3   OH277838   5.714   2.645  11.326 -0.1969  0.1377 -0.5466
18808TIP3    H177839   5.647   2.624  11.391  0.0152  0.7546 -0.1234
18808TIP3    H277840   5.784   2.687  11.376  0.2878 -0.0479 -1.0638
18809TIP3   OH277841   2.966   1.388  12.041 -0.1378 -0.3917  0.5936
18809TIP3    H177842   3.003   1.374  12.128 -0.0252 -0.1093  0.5912
18809TIP3    H277843   2.981   1.481  12.023 -0.1639 -0.4489  0.2740
18810TIP3   OH277844   3.866   0.247  10.721  0.0726  0.1058 -0.4723
18810TIP3    H177845   3.852   0.314  10.654 -0.4259  0.0647 -0.4105
18810TIP3    H277846   3.780   0.206  10.733  0.0313  0.4680  0.5763
18811TIP3   OH277847   4.776   2.796  16.861  0.4362 -0.1142  0.9986
18811TIP3    H177848   4.744   2.724  16.916 -0.0034 -1.3145 -0.7871
18811TIP3    H277849   4.774   2.761  16.772  0.2270  2.1117  0.0945
18812TIP3   OH277850   2.183   5.262  14.221  0.0693 -0.6639  0.0168
18812TIP3    H177851   2.089   5.243  14.213 -0.3203  1.2741 -0.1042
18812TIP3    H277852   2.199   5.334  14.160  1.5676 -0.7124  0.3212
18813TIP3   OH277853   3.943   3.664   2.901  0.0628  0.1427 -0.2996
18813TIP3    H177854   3.879   3.614   2.951  0.3765 -0.9094 -0.9265
18813TIP3    H277855   3.946   3.749   2.944  0.4965 -0.8060  1.6162
18814TIP3   OH277856   3.941   1.356   5.157  0.3436  0.2577 -0.3503
18814TIP3    H177857   3.976   1.268   5.164 -3.3215 -1.1149  2.3198
18814TIP3    H277858   3.979   1.404   5.231 -0.1095 -0.0195  0.0662
18815TIP3   OH277859   1.754   3.680  11.995 -0.0654  0.1430  0.7931
18815TIP3    H177860   1.720   3.704  12.081  0.9915  3.1307  0.4546
18815TIP3    H277861   1.840   3.643  12.012 -0.2303 -0.0932  1.1013
18816TIP3   OH277862   2.920   4.127  13.201 -0.0204 -0.2866 -0.4804
18816TIP3    H177863   2.999   4.106  13.151 -0.8233 -1.3886 -1.3183
18816TIP3    H277864   2.950   4.132  13.292  1.0652 -0.4283 -0.8170
18817TIP3   OH277865   2.590   6.552  16.054  0.3148  0.1226 -0.0494
18817TIP3    H177866   2.629   6.511  16.131  0.6058  0.2386 -0.1347
18817TIP3    H277867   2.513   6.498  16.035 -0.8994  1.2953  1.5130
18818TIP3   OH277868   0.780   1.537  11.829 -0.4404  0.0376  0.3022
18818TIP3    H177869   0.743   1.611  11.780  0.1256  1.9508  2.6154
18818TIP3    H277870   0.836   1.492  11.766  0.9504  2.9164 -0.6305
18819TIP3   OH277871   0.865   6.656   2.971 -0.2403  0.4720  0.1132
18819TIP3    H177872   0.798   6.615   2.915 -0.2216 -0.9144  1.0768
18819TIP3    H277873   0.948   6.633   2.929 -0.2877  0.7865 -0.1596
18820TIP3   OH277874   5.417   3.686  15.605 -0.0795 -0.5341  0.0641
18820TIP3    H177875   5.485   3.742  15.642  1.1249 -1.3869 -0.8522
18820TIP3    H277876   5.406   3.717  15.515  0.4490 -1.6318 -0.3808
18821TIP3   OH277877   5.035   5.422  15.081 -0.1715  0.1785  0.2820
18821TIP3    H177878   5.074   5.442  15.166  1.1510  1.1374 -0.5208
18821TIP3    H277879   4.959   5.480  15.075  0.4710  1.0328  0.2881
18822TIP3   OH277880   4.813   3.471   6.053 -0.0203 -0.0388 -0.0392
18822TIP3    H177881   4.785   3.455   6.144  0.0133  1.5826  0.2722
18822TIP3    H277882   4.738   3.445   6.000 -0.4381  0.0028  0.5241
18823TIP3   OH277883   0.568   3.493  14.561  0.0352 -0.4819 -0.4739
18823TIP3    H177884   0.611   3.419  14.606 -0.4391 -0.2133  0.4417
18823TIP3    H277885   0.600   3.570  14.607 -0.7506 -0.2283 -0.3421
18824TIP3   OH277886   2.708   2.932  14.903 -0.1520 -0.0686  0.0746
18824TIP3    H177887   2.665   2.987  14.838  0.4936 -0.9311 -1.0839
18824TIP3    H277888   2.665   2.847  14.895  0.7235 -0.5057 -0.0214
18825TIP3   OH277889   6.747   6.456   5.286 -0.3018  0.6178 -0.2441
18825TIP3    H177890   6.834   6.454   5.325 -0.4852  0.6884  0.1786
18825TIP3    H277891   6.762   6.477   5.194 -0.0207  2.9236  0.2943
18826TIP3   OH277892   4.533   5.993  14.715 -0.0629  0.0223 -0.3180
18826TIP3    H177893   4.617   5.975  14.672  0.1751 -2.6375  1.1101
18826TIP3    H277894   4.497   5.906  14.732 -2.5203  1.1250  0.2353
18827TIP3   OH277895   3.280   2.628   2.283  0.6304  0.2581  0.2957
18827TIP3    H177896   3.316   2.611   2.370 -0.8677 -2.0892  0.4999
18827TIP3    H277897   3.221   2.554   2.266 -1.0673  2.0002 -1.6465
18828TIP3   OH277898   4.455   4.089  14.198 -0.2756 -0.2615 -0.2804
18828TIP3    H177899   4.362   4.068  14.185 -0.0487 -1.9626  0.7084
18828TIP3    H277900   4.492   4.011  14.240  1.9446 -0.2415 -2.0697
18829TIP3   OH277901   1.501   2.711  12.102  0.0314  0.2090  0.2313
18829TIP3    H177902   1.579   2.728  12.048  0.9400  1.8016  1.9825
18829TIP3    H277903   1.428   2.742  12.049  0.6986 -0.0883 -0.8935
18830TIP3   OH277904   3.915   2.327  12.336  0.1368  0.0679  0.0500
18830TIP3    H177905   3.862   2.300  12.261  0.1658  0.7729 -0.2250
18830TIP3    H277906   3.951   2.245  12.371 -2.3757 -0.6245  1.1698
18831TIP3   OH277907   1.111   5.554   4.131  0.1478  0.4923 -0.5968
18831TIP3    H177908   1.120   5.523   4.041  0.9038  0.8008 -0.6292
18831TIP3    H277909   1.196   5.537   4.171 -0.8452 -1.7122  0.7143
18832TIP3   OH277910   4.783   5.368  13.827 -0.2076 -0.6206 -0.4428
18832TIP3    H177911   4.862   5.314  13.816 -0.4614 -0.7062 -1.9618
18832TIP3    H277912   4.799   5.417  13.908  0.8300 -1.6054 -0.0338
18833TIP3   OH277913   6.408   3.541   4.157 -0.0856  0.0687 -0.4355
18833TIP3    H177914   6.366   3.530   4.072  1.0486  0.4779 -1.0553
18833TIP3    H277915   6.437   3.632   4.158 -1.2134  0.4219  0.9058
18834TIP3   OH277916   4.059   3.115  16.906 -0.6248  0.2803 -0.5450
18834TIP3    H177917   4.095   3.050  16.846 -0.1938  0.5919 -0.6245
18834TIP3    H277918   4.131   3.176  16.923 -0.9648  0.6279 -0.3149
18835TIP3   OH277919   2.406   3.520   2.231 -0.4557  0.5291 -0.3526
18835TIP3    H177920   2.351   3.463   2.284 -1.4837  1.4440 -0.4205
18835TIP3    H277921   2.395   3.487   2.141 -1.2652  0.9991 -0.4292
18836TIP3   OH277922   2.156   1.996   0.850 -0.4159 -0.7554  0.0038
18836TIP3    H177923   2.250   1.981   0.846 -0.3386 -1.0887  2.1458
18836TIP3    H277924   2.134   1.981   0.942 -2.5157 -0.4185 -0.4214
18837TIP3   OH277925   5.705   4.999  12.179  0.5783  0.2287  0.1671
18837TIP3    H177926   5.793   4.963  12.192  0.2375 -0.8354 -0.3998
18837TIP3    H277927   5.671   5.009  12.268  1.6193  1.5679  0.4353
18838TIP3   OH277928   1.461   1.014  11.739  0.0908  0.4254  0.6466
18838TIP3    H177929   1.500   0.970  11.815  0.2582  0.1033  0.3763
18838TIP3    H277930   1.418   1.092  11.776 -0.5506 -0.1749  1.1760
18839TIP3   OH277931   1.362   1.829   2.905  1.0601 -0.6024  0.6530
18839TIP3    H177932   1.366   1.915   2.946 -0.0144 -0.6568  0.8994
18839TIP3    H277933   1.268   1.808   2.903  0.9636 -0.2194 -2.5756
18840TIP3   OH277934   1.210   3.683   1.455  0.3535  0.2229 -0.3396
18840TIP3    H177935   1.276   3.685   1.385  0.2709 -0.1984 -0.4301
18840TIP3    H277936   1.129   3.656   1.411  0.7388 -2.0224  0.2673
18841TIP3   OH277937   2.175   0.166  12.221 -0.1043  0.0071 -0.3066
18841TIP3    H177938   2.223   0.169  12.304 -1.1309  1.2411  0.2591
18841TIP3    H277939   2.186   0.076  12.191  0.8873 -0.2671  0.8027
18842TIP3   OH277940   0.866   5.017   0.827  0.1732  0.3908 -0.2767
18842TIP3    H177941   0.906   4.983   0.748 -0.5015  0.1239 -0.5092
18842TIP3    H277942   0.838   5.106   0.805 -0.4901  0.1302 -0.5099
18843TIP3   OH277943   4.810   3.125  12.695 -0.1691 -0.3933 -0.0677
18843TIP3    H177944   4.871   3.053  12.679  0.6151  0.2167  0.1392
18843TIP3    H277945   4.765   3.102  12.776 -0.0996 -0.7661 -0.1353
18844TIP3   OH277946   3.771   5.644  11.631  0.0863 -0.2032  0.4151
18844TIP3    H177947   3.777   5.548  11.629  0.0162 -0.2244 -3.0814
18844TIP3    H277948   3.686   5.662  11.670 -0.9277 -1.6733 -1.0336
18845TIP3   OH277949   1.337   5.277  16.884 -0.8009  0.1914 -0.0955
18845TIP3    H177950   1.246   5.259  16.863 -0.5521 -0.4947 -0.6007
18845TIP3    H277951   1.344   5.373  16.880 -1.8381  0.3423  1.4155
18846TIP3   OH277952   5.995   0.859   3.151  0.6733 -0.3001  0.0125
18846TIP3    H177953   6.060   0.832   3.215  0.7674 -0.2374 -0.0558
18846TIP3    H277954   5.969   0.778   3.107  1.0142 -0.2727 -0.2482
18847TIP3   OH277955   4.804   0.593   6.606  0.1319  0.1058 -0.0648
18847TIP3    H177956   4.856   0.521   6.572  1.9905  1.4870 -0.2067
18847TIP3    H277957   4.868   0.657   6.637 -1.4700  1.7879 -0.1302
18848TIP3   OH277958   2.974   3.250   6.088 -0.0901 -0.2297  0.0655
18848TIP3    H177959   2.964   3.234   6.182 -0.0939 -0.2510  0.0617
18848TIP3    H277960   3.030   3.178   6.057 -1.3069 -1.0850 -0.2173
18849TIP3   OH277961   3.036   2.598   3.789  0.0541 -0.1486 -0.3462
18849TIP3    H177962   3.078   2.628   3.708  0.5313  0.2323  0.0366
18849TIP3    H277963   2.945   2.626   3.780  0.3418  0.8179 -0.2965
18850TIP3   OH277964   2.904   3.325  12.450 -0.0922 -0.1576 -0.4235
18850TIP3    H177965   2.847   3.401  12.463  0.0836 -0.1196  0.1665
18850TIP3    H277966   2.884   3.267  12.524  0.5766 -0.1795 -0.2541
18851TIP3   OH277967   0.585   6.618  10.956  0.0872  0.2766  0.1331
18851TIP3    H177968   0.489   6.617  10.955  0.1020 -0.5903 -1.0052
18851TIP3    H277969   0.610   6.647  10.868  0.8754 -1.8990 -0.4036
18852TIP3   OH277970   6.395   0.949  15.251 -0.1491 -0.4047  0.4235
18852TIP3    H177971   6.470   0.896  15.223  0.1760 -0.6042  1.6504
18852TIP3    H277972   6.434   1.019  15.304 -0.5531  1.1920 -1.3230
18853TIP3   OH277973   0.692   6.017   3.989 -0.0177 -0.3394  0.5961
18853TIP3    H177974   0.751   6.092   4.002  0.4431 -0.5001 -0.5303
18853TIP3    H277975   0.663   6.024   3.898 -0.1305 -1.4144  0.5388
18854TIP3   OH277976   3.485   5.810   1.187 -0.3872  0.1939 -0.4351
18854TIP3    H177977   3.557   5.797   1.248 -1.8287  0.7162  1.4467
18854TIP3    H277978   3.488   5.734   1.129 -0.1113 -1.2793  1.4637
18855TIP3   OH277979   1.167   3.405  14.276 -0.4791 -0.1349 -0.2577
18855TIP3    H177980   1.114   3.418  14.355 -1.6379 -1.7877 -0.7171
18855TIP3    H277981   1.255   3.433  14.301 -1.1826  0.9354  1.0943
18856TIP3   OH277982   3.632   0.543   4.782 -0.4308 -0.5111 -0.3389
18856TIP3    H177983   3.573   0.610   4.817  0.7658 -0.1326  1.0168
18856TIP3    H277984   3.706   0.542   4.843  0.2184 -2.1000 -1.1153
18857TIP3   OH277985   0.304   0.786  12.206  0.2814  0.0511 -0.1804
18857TIP3    H177986   0.265   0.741  12.281  0.3786  1.3750  0.6935
18857TIP3    H277987   0.229   0.823  12.159  0.2757  0.0058 -0.2073
18858TIP3   OH277988   4.781   5.524   5.399 -0.6812  0.2123 -0.2919
18858TIP3    H177989   4.858   5.572   5.430 -0.7611 -0.2034  0.5558
18858TIP3    H277990   4.711   5.550   5.458 -1.2807  0.8396 -1.2606
18859TIP3   OH277991   0.870   3.273   2.060  0.5171 -0.3087  0.5026
18859TIP3    H177992   0.900   3.245   1.973 -1.0834  1.9310 -0.8170
18859TIP3    H277993   0.820   3.199   2.093  0.3906 -0.8522 -0.8675
18860TIP3   OH277994   2.383   1.950   0.643 -0.1579  0.1804 -0.1883
18860TIP3    H177995   2.462   1.937   0.590 -0.1809  0.1065 -0.2050
18860TIP3    H277996   2.332   1.870   0.630 -0.6301  0.5779 -0.8425
18861TIP3   OH277997   6.017   3.905   5.046 -0.1512  0.0067 -0.4935
18861TIP3    H177998   6.085   3.843   5.020  1.2225  1.1206  0.3699
18861TIP3    H277999   6.020   3.973   4.978  0.8905  0.9989  0.5084
18862TIP3   OH278000   6.081   6.073  11.446  0.4427 -0.4001 -0.3911
18862TIP3    H178001   6.097   5.994  11.496  0.1764  0.7594  1.5710
18862TIP3    H278002   6.166   6.116  11.440  0.3743 -0.2742 -0.4659
18863TIP3   OH278003   1.376   6.089   3.676 -0.1050  0.1086  0.3746
18863TIP3    H178004   1.346   6.180   3.667 -1.6306 -0.0055  3.2953
18863TIP3    H278005   1.465   6.097   3.711  1.5017  0.4393 -3.5785
18864TIP3   OH278006   3.628   6.197  10.297  0.1235 -0.3494 -0.0612
18864TIP3    H178007   3.612   6.105  10.277  0.0389 -0.0815 -1.2840
18864TIP3    H278008   3.688   6.195  10.372 -0.2578 -1.3890  0.2289
18865TIP3   OH278009   5.111   4.415  15.780 -0.2368 -0.4342 -0.0559
18865TIP3    H178010   5.042   4.479  15.801  1.1877  0.6240  1.4614
18865TIP3    H278011   5.100   4.346  15.845  0.0163 -0.3730  0.0487
18866TIP3   OH278012   4.985   6.589   4.039 -0.1172  0.1744  0.0788
18866TIP3    H178013   4.937   6.528   4.094 -1.8433  0.3206 -1.2080
18866TIP3    H278014   4.927   6.665   4.032 -1.1464 -0.8632 -4.0027
18867TIP3   OH278015   6.110   4.274  13.837 -0.0778 -0.0187 -0.5066
18867TIP3    H178016   6.133   4.356  13.882 -0.4563  0.2083 -0.7297
18867TIP3    H278017   6.193   4.244  13.800  0.3006 -0.3759  0.6117
18868TIP3   OH278018   5.852   3.628   1.388  0.0407 -0.3048 -0.0921
18868TIP3    H178019   5.855   3.637   1.293  0.9469  1.8971  0.1208
18868TIP3    H278020   5.934   3.666   1.419 -0.2007 -1.0733  1.5887
18869TIP3   OH278021   4.480   0.544   3.045 -0.2707 -0.1486  0.0449
18869TIP3    H178022   4.401   0.493   3.066  0.0570 -1.1102 -0.9945
18869TIP3    H278023   4.551   0.481   3.051  0.0568 -0.0048 -2.0063
18870TIP3   OH278024   6.540   4.017  11.470  0.2308 -0.2301  0.3983
18870TIP3    H178025   6.479   3.951  11.503 -0.5943 -0.2714 -1.1869
18870TIP3    H278026   6.573   3.981  11.388  0.2203  1.0532 -0.1830
18871TIP3   OH278027   0.193   5.477   6.008 -0.1925  0.3800  0.7132
18871TIP3    H178028   0.108   5.432   6.008 -0.2807  0.5485  1.0508
18871TIP3    H278029   0.171   5.569   5.996  0.1704 -0.0117 -3.8136
18872TIP3   OH278030   4.489   5.736  11.682 -0.0439 -0.5619 -0.1671
18872TIP3    H178031   4.451   5.728  11.595 -0.5779 -0.0324  0.0161
18872TIP3    H278032   4.415   5.748  11.741  0.2141 -2.2817  0.5480
18873TIP3   OH278033   5.434   1.605  15.141 -0.7541  0.5348 -0.2254
18873TIP3    H178034   5.388   1.686  15.117 -2.1143 -0.3425 -0.5678
18873TIP3    H278035   5.373   1.557  15.196  0.0943 -0.2221  0.0636
18874TIP3   OH278036   1.008   1.145   4.278 -0.0176 -0.0938 -0.6178
18874TIP3    H178037   0.913   1.153   4.289  0.1241  0.4890  0.2060
18874TIP3    H278038   1.042   1.232   4.295  0.8368 -0.7062  0.9705
18875TIP3   OH278039   0.713   3.290   0.330 -0.7578 -0.2519  0.0523
18875TIP3    H178040   0.696   3.217   0.271 -0.6676  0.3030 -0.6664
18875TIP3    H278041   0.645   3.283   0.397 -2.4855  0.6301 -1.5511
18876TIP3   OH278042   2.725   2.293  13.549 -0.1679  0.9347 -0.5571
18876TIP3    H178043   2.710   2.385  13.571  1.9547  1.1538  0.1578
18876TIP3    H278044   2.819   2.281  13.563  0.4950 -0.1597 -5.0081
18877TIP3   OH278045   6.424   0.023   3.088  0.2915 -0.1828  0.1436
18877TIP3    H178046   6.400  -0.063   3.055 -2.6900  0.4544  0.5680
18877TIP3    H278047   6.430   0.078   3.010  0.2233 -0.2951  0.0591
18878TIP3   OH278048   2.378   2.280  10.757 -0.4388 -0.3770 -0.1299
18878TIP3    H178049   2.414   2.264  10.670 -2.3981 -0.6980 -0.9131
18878TIP3    H278050   2.404   2.204  10.808 -2.2050 -1.8968 -1.4170
18879TIP3   OH278051   2.111   1.062  16.778 -0.0320 -0.5404  0.0839
18879TIP3    H178052   2.167   1.056  16.856 -0.4013 -3.9166  0.1890
18879TIP3    H278053   2.023   1.071  16.814 -0.0299 -0.3936  0.0477
18880TIP3   OH278054   3.410   4.953   5.018 -0.1971  0.0515 -0.1432
18880TIP3    H178055   3.421   5.022   5.083  3.6520 -1.0632  0.5493
18880TIP3    H278056   3.408   4.999   4.934  1.1565  1.1277  0.3902
18881TIP3   OH278057   1.711   5.826   5.830 -0.3657  0.0399  0.0760
18881TIP3    H178058   1.776   5.783   5.775  0.7819  2.2070 -0.3355
18881TIP3    H278059   1.761   5.888   5.882 -1.4930 -1.6162  3.2694
18882TIP3   OH278060   5.562   4.245  16.264 -0.2562  0.1722  0.1293
18882TIP3    H178061   5.579   4.277  16.353  0.6889  2.0335 -0.6797
18882TIP3    H278062   5.622   4.171  16.253 -0.1559  0.1288  0.9378
18883TIP3   OH278063   0.658   4.845  12.405  0.3214  0.3138  0.2739
18883TIP3    H178064   0.702   4.761  12.407 -1.9548 -0.9655 -1.0820
18883TIP3    H278065   0.617   4.849  12.318 -0.8086  2.1626  0.8540
18884TIP3   OH278066   3.192   2.233   6.807  0.2773 -0.2727 -0.4774
18884TIP3    H178067   3.167   2.146   6.777  2.7742 -0.2692 -2.8467
18884TIP3    H278068   3.250   2.266   6.738  0.7527  2.5797  1.1958
18885TIP3   OH278069   5.664   4.793   6.059  0.5085 -0.1543 -0.1232
18885TIP3    H178070   5.741   4.811   6.113 -1.3072  1.6279  1.9785
18885TIP3    H278071   5.623   4.718   6.102 -1.0355  1.3753  1.1569
18886TIP3   OH278072   3.649   6.563  16.538  0.9601 -0.6345  0.2833
18886TIP3    H178073   3.726   6.612  16.566 -0.2969  1.6574 -0.2089
18886TIP3    H278074   3.625   6.510  16.614  0.0213  2.4475  2.1899
18887TIP3   OH278075   1.278   1.054   3.432  0.4067 -0.2733  0.4821
18887TIP3    H178076   1.235   0.983   3.384 -1.7979  0.8903  0.6598
18887TIP3    H278077   1.244   1.045   3.522  0.1107  0.9873  0.5034
18888TIP3   OH278078   0.132   4.016  15.254  0.0359  0.4121  0.2488
18888TIP3    H178079   0.170   4.068  15.326  0.6564 -1.4538  1.3027
18888TIP3    H278080   0.104   3.935  15.296 -1.5074  0.1486 -1.2673
18889TIP3   OH278081   1.833   4.024  10.849  0.6259 -0.2582  0.4562
18889TIP3    H178082   1.849   4.084  10.776 -1.5441 -0.4586 -0.2028
18889TIP3    H278083   1.896   3.954  10.836  1.9449  0.9477  0.1975
18890TIP3   OH278084   4.412   3.091  10.317 -0.2086 -0.1275 -0.1128
18890TIP3    H178085   4.432   3.012  10.366 -0.7520 -0.2923 -0.1529
18890TIP3    H278086   4.321   3.080  10.290  0.2163 -0.2359 -1.5356
18891TIP3   OH278087   0.954   6.071  16.847 -1.0360  0.3510  0.2572
18891TIP3    H178088   0.886   6.089  16.912  1.1817 -0.3432  2.8929
18891TIP3    H278089   1.023   6.027  16.897  0.2395 -1.3300 -2.8654
18892TIP3   OH278090   2.081   3.277   2.605 -0.0565  0.2622 -0.4249
18892TIP3    H178091   2.027   3.353   2.583 -1.1315 -0.6045 -0.8347
18892TIP3    H278092   2.035   3.235   2.677 -0.0369 -0.6091 -0.9185
18893TIP3   OH278093   5.114   6.501   1.002  0.5467 -0.0339  0.1069
18893TIP3    H178094   5.174   6.434   1.036 -1.2208 -1.7405 -0.0197
18893TIP3    H278095   5.050   6.514   1.072  0.7018  1.3045 -0.0011
18894TIP3   OH278096   4.515   5.213  16.146 -0.7224  0.0083  0.3563
18894TIP3    H178097   4.531   5.143  16.210  0.3355  0.2703  0.3775
18894TIP3    H278098   4.528   5.172  16.061 -2.0306 -0.3140  0.2978
18895TIP3   OH278099   5.460   0.770   2.036  0.1622  0.5893 -0.4192
18895TIP3    H178100   5.547   0.810   2.044 -0.8062  2.7645 -0.3194
18895TIP3    H278101   5.454   0.711   2.112  1.6462  0.2156 -0.5815
18896TIP3   OH278102   2.318   3.814   3.361  0.0304 -0.5908 -0.2531
18896TIP3    H178103   2.270   3.798   3.280 -0.9324 -0.1175  0.2219
18896TIP3    H278104   2.349   3.904   3.353 -0.1917 -0.4943 -0.0317
18897TIP3   OH278105   5.427   5.597   0.957  0.0545 -0.4987 -0.3409
18897TIP3    H178106   5.424   5.506   0.985 -0.8379  0.1784  1.8483
18897TIP3    H278107   5.348   5.636   0.995  0.4985  1.2085 -1.1548
18898TIP3   OH278108   6.215   2.542   5.201 -0.1473  0.2837 -0.2907
18898TIP3    H178109   6.257   2.457   5.195 -0.6498 -0.0243  0.3977
18898TIP3    H278110   6.277   2.596   5.250  0.7130  0.6803 -1.7850
18899TIP3   OH278111   3.652   0.063  14.074  0.4622 -0.6885  0.0221
18899TIP3    H178112   3.704   0.118  14.015 -0.5575 -2.1715 -2.3628
18899TIP3    H278113   3.618   0.124  14.139 -1.4134  1.7877 -3.0783
18900TIP3   OH278114   2.703   2.586   3.079 -0.0479 -0.2252 -0.2855
18900TIP3    H178115   2.659   2.584   3.164 -1.8987 -0.6263 -1.2177
18900TIP3    H278116   2.780   2.531   3.090 -0.1862 -0.1400  1.1770
18901TIP3   OH278117   1.270   4.149   0.213 -0.0006  0.1295  0.3613
18901TIP3    H178118   1.283   4.183   0.301  1.3387 -2.0817  1.0732
18901TIP3    H278119   1.279   4.225   0.156  0.8993  1.2868  2.0042
18902TIP3   OH278120   6.060   5.443   4.771 -0.1036 -0.4023 -0.2844
18902TIP3    H178121   6.107   5.469   4.692  1.4535  1.5770  1.2510
18902TIP3    H278122   6.003   5.517   4.791  0.3839 -0.3899  1.1109
18903TIP3   OH278123   6.579   2.881  14.601  0.4269  1.2967 -0.5640
18903TIP3    H178124   6.528   2.961  14.614  0.4218  1.2849 -0.5118
18903TIP3    H278125   6.553   2.849  14.515 -0.8473  0.4083  0.1302
18904TIP3   OH278126   2.430   1.212  12.292  0.1787 -0.5119 -0.4462
18904TIP3    H178127   2.454   1.199  12.384  1.5048 -0.4313 -0.7668
18904TIP3    H278128   2.513   1.207  12.245 -0.4341 -0.0640 -1.5883
18905TIP3   OH278129   3.199   4.357  13.717 -0.4772  0.3141 -0.2696
18905TIP3    H178130   3.206   4.434  13.773  2.4093 -0.0664 -0.0266
18905TIP3    H278131   3.185   4.392  13.629 -0.8744  1.0483  0.0843
18906TIP3   OH278132   4.336   3.361  11.376  0.3811  0.3107  0.1335
18906TIP3    H178133   4.327   3.430  11.311 -0.0567  1.7682  1.6958
18906TIP3    H278134   4.392   3.296  11.335 -2.4203 -0.3378 -2.9399
18907TIP3   OH278135   1.249   0.262  16.385 -0.5338  0.1188  0.0145
18907TIP3    H178136   1.188   0.326  16.350  0.3391  0.9750  0.0382
18907TIP3    H278137   1.304   0.311  16.446 -0.5630 -0.8775  0.8644
18908TIP3   OH278138   3.968   1.498  11.253  0.1224  0.2549  0.4760
18908TIP3    H178139   4.017   1.473  11.174 -2.7515  0.1307 -1.3294
18908TIP3    H278140   3.946   1.590  11.239 -0.6451  0.1557  0.9855
18909TIP3   OH278141   0.035   6.295   3.046  0.1173  0.2283 -0.0748
18909TIP3    H178142   0.066   6.322   2.959 -0.3591  2.2030  0.3283
18909TIP3    H278143   0.114   6.273   3.094  0.5178  0.6389 -0.5307
18910TIP3   OH278144   0.016   2.280   2.875 -0.1869 -0.2634 -0.8988
18910TIP3    H178145   0.056   2.251   2.793  0.3069 -2.3802  0.0447
18910TIP3    H278146  -0.065   2.229   2.881  0.1254 -0.6431  0.2566
18911TIP3   OH278147   1.818   3.505  16.210 -0.1035  0.1486  0.1203
18911TIP3    H178148   1.751   3.567  16.237 -0.7047 -1.1084  1.6056
18911TIP3    H278149   1.777   3.450  16.143  0.3136  1.1008 -0.9284
18912TIP3   OH278150   5.661   3.586   3.302  0.5952 -0.3093  0.6651
18912TIP3    H178151   5.586   3.562   3.356  0.7754  0.6170  1.3490
18912TIP3    H278152   5.688   3.672   3.336  0.2985  0.6058 -1.3266
18913TIP3   OH278153   2.034   3.640  12.629  0.5829 -0.1633 -0.2340
18913TIP3    H178154   2.067   3.730  12.634  1.0812 -0.3638  0.0059
18913TIP3    H278155   2.109   3.585  12.650 -0.1333 -0.5838  1.2552
18914TIP3   OH278156   0.296   2.452   5.004  0.4112 -0.3183 -0.2138
18914TIP3    H178157   0.341   2.434   4.921  0.5801  1.4410 -0.5329
18914TIP3    H278158   0.309   2.546   5.018 -0.1010 -0.4849  1.5298
18915TIP3   OH278159   0.741   2.142  15.147  0.3408 -0.3730 -0.5073
18915TIP3    H178160   0.777   2.094  15.222  0.5281 -1.0628 -1.0354
18915TIP3    H278161   0.811   2.200  15.119  0.0775  0.3029  0.1994
18916TIP3   OH278162   5.088   6.423  14.202 -0.0615  0.0126 -0.0401
18916TIP3    H178163   5.058   6.512  14.222 -0.3675 -0.2619  0.7386
18916TIP3    H278164   5.126   6.430  14.114 -0.7001  0.7663 -0.2663
18917TIP3   OH278165   4.353   1.457  15.443 -0.2682  0.4110 -0.2413
18917TIP3    H178166   4.328   1.547  15.463  1.8781  1.1900 -0.9306
18917TIP3    H278167   4.296   1.431  15.370 -1.0958  1.1027  0.1662
18918TIP3   OH278168   2.285   0.426   5.556  0.0647  0.0359 -0.1206
18918TIP3    H178169   2.353   0.454   5.616  0.8358 -0.0426 -0.9497
18918TIP3    H278170   2.240   0.355   5.602  1.1743 -0.5778  0.0210
18919TIP3   OH278171   2.540   4.245  12.468 -0.9150 -0.3197 -0.4516
18919TIP3    H178172   2.551   4.152  12.489 -1.3325 -0.4461 -0.7800
18919TIP3    H278173   2.485   4.279  12.539  0.0405 -0.1004  0.1966
18920TIP3   OH278174   3.425   4.664   5.046  0.2658 -0.0593  0.0133
18920TIP3    H178175   3.420   4.759   5.053 -0.1358 -0.1939  2.0253
18920TIP3    H278176   3.492   4.648   4.980  1.8975  1.6182  1.1870
18921TIP3   OH278177   0.295   1.695  11.574 -0.0169 -1.0039 -0.0448
18921TIP3    H178178   0.254   1.778  11.551  0.2846 -1.0333 -0.6981
18921TIP3    H278179   0.325   1.707  11.663  0.6054 -0.1827 -0.3622
18922TIP3   OH278180   0.556   6.526  11.658  0.4758  0.1522 -0.4524
18922TIP3    H178181   0.590   6.482  11.580  0.2167  0.0349 -0.4993
18922TIP3    H278182   0.510   6.603  11.623 -0.6713 -0.5488 -0.4992
18923TIP3   OH278183   1.362   4.293  13.618  0.3243  0.6368 -0.7720
18923TIP3    H178184   1.456   4.288  13.631 -0.0930 -1.6316  1.9640
18923TIP3    H278185   1.347   4.261  13.529  2.1711  1.9222 -1.5646
18924TIP3   OH278186   0.757   3.070  15.571 -0.1359  0.0597 -0.0085
18924TIP3    H178187   0.790   3.075  15.660 -0.1077 -0.1709 -0.0078
18924TIP3    H278188   0.707   3.151  15.560 -0.2258  0.0399  0.2501
18925TIP3   OH278189   1.461   0.894   0.847  0.1101 -0.2038  0.1036
18925TIP3    H178190   1.409   0.973   0.834  1.8504  0.9113 -0.1666
18925TIP3    H278191   1.522   0.917   0.917  1.8682 -0.6822 -1.2471
18926TIP3   OH278192   2.567   6.541   6.474 -0.1310 -0.5289  0.9982
18926TIP3    H178193   2.562   6.460   6.524 -0.4811 -1.0135  0.1947
18926TIP3    H278194   2.659   6.566   6.476  0.1580 -1.4968  0.4003
18927TIP3   OH278195   2.180   0.746  13.152 -0.1612 -0.2919 -0.7551
18927TIP3    H178196   2.132   0.691  13.214  0.5833  0.3356  0.3839
18927TIP3    H278197   2.253   0.781  13.202 -0.3643  1.3894 -1.5882
18928TIP3   OH278198   3.299   2.773  12.329  0.2689 -0.0695 -0.3971
18928TIP3    H178199   3.377   2.826  12.312  0.7297  0.0933  2.0979
18928TIP3    H278200   3.231   2.813  12.274  1.8089  0.0308 -2.2949
18929TIP3   OH278201   0.733   4.207  16.604  0.0908 -0.1079 -0.3876
18929TIP3    H178202   0.790   4.255  16.664 -0.1071  1.8889 -1.7685
18929TIP3    H278203   0.781   4.126  16.586  0.2632 -0.6206  2.2411
18930TIP3   OH278204   1.588   4.180   4.006 -0.2764  0.2030 -0.6748
18930TIP3    H178205   1.638   4.226   3.939  0.4807 -0.2261 -0.4039
18930TIP3    H278206   1.504   4.227   4.008  0.7581  2.0886  0.1606
18931TIP3   OH278207   3.755   4.401   1.417 -0.3040 -0.3125 -0.4251
18931TIP3    H178208   3.707   4.456   1.478  2.7875  2.3483 -0.2646
18931TIP3    H278209   3.753   4.449   1.334 -0.2594 -1.5043 -1.1335
18932TIP3   OH278210   4.875   5.157   0.902 -0.6752 -0.6795  0.0951
18932TIP3    H178211   4.811   5.186   0.967  1.0105 -1.3650  2.1096
18932TIP3    H278212   4.949   5.217   0.913  0.2020 -1.6993 -0.1902
18933TIP3   OH278213   1.874   2.479  14.279  0.2180 -0.0233 -0.3266
18933TIP3    H178214   1.856   2.452  14.369  0.1747  0.9944 -0.0248
18933TIP3    H278215   1.874   2.397  14.229 -0.2217 -0.5466  0.5158
18934TIP3   OH278216   6.726   4.561  13.388  0.1235 -0.1315 -0.1386
18934TIP3    H178217   6.632   4.579  13.384 -0.2664 -1.9932  0.1605
18934TIP3    H278218   6.763   4.607  13.313 -1.0991  0.1966 -0.5432
18935TIP3   OH278219   5.478   4.573   0.947 -0.2196  0.4086 -0.1548
18935TIP3    H178220   5.501   4.661   0.979 -3.6233  0.4598  2.3971
18935TIP3    H278221   5.409   4.588   0.884 -1.5056 -0.4588  1.0165
18936TIP3   OH278222   6.578   5.386  11.297 -0.6672  0.3595  0.3356
18936TIP3    H178223   6.585   5.480  11.311 -1.3555  0.3683  0.6782
18936TIP3    H278224   6.502   5.360  11.350  1.1881 -0.8618  2.5083
18937TIP3   OH278225   2.803   1.717   4.126 -0.2992  0.1643 -0.1311
18937TIP3    H178226   2.727   1.761   4.164 -0.0462  1.1752 -0.7720
18937TIP3    H278227   2.765   1.654   4.065 -0.6345  1.1241 -0.9418
18938TIP3   OH278228   5.599   2.772  11.686  0.2308  0.2324 -0.0588
18938TIP3    H178229   5.512   2.744  11.717 -0.5531  0.7074 -1.7844
18938TIP3    H278230   5.656   2.698  11.706 -0.5338 -0.0466  1.2051
18939TIP3   OH278231   6.727   6.263  12.728  0.2909  0.6534 -0.0113
18939TIP3    H178232   6.642   6.218  12.724  1.0516 -0.7768 -0.6711
18939TIP3    H278233   6.706   6.354  12.746 -1.4335  0.4263 -0.7859
18940TIP3   OH278234   3.530   0.300  15.316  0.6394 -0.2116  0.4409
18940TIP3    H178235   3.519   0.336  15.404 -2.3012 -2.3780  1.0385
18940TIP3    H278236   3.588   0.225  15.328  0.8889 -0.0253  0.3989
18941TIP3   OH278237   1.916   5.725   4.433  0.6879 -0.0276 -0.1618
18941TIP3    H178238   1.838   5.771   4.402 -0.6501 -3.3337 -1.8630
18941TIP3    H278239   1.947   5.675   4.357  2.0718 -1.9735  1.6127
18942TIP3   OH278240   5.680   6.131  10.475 -0.0913 -0.2376  0.0360
18942TIP3    H178241   5.650   6.064  10.413 -1.3736  0.2653  0.1053
18942TIP3    H278242   5.762   6.163  10.437  0.4197 -1.6731 -0.1183
18943TIP3   OH278243   2.120   5.543  13.269  0.6503 -0.1755 -0.6728
18943TIP3    H178244   2.130   5.518  13.361  1.2801  0.4329 -0.5662
18943TIP3    H278245   2.027   5.532  13.251  1.0981 -4.0456 -1.0783
18944TIP3   OH278246   0.141   5.664   4.121 -0.4967 -0.5393  0.1842
18944TIP3    H178247   0.050   5.644   4.102 -0.5716  1.4324 -1.7926
18944TIP3    H278248   0.139   5.750   4.163  0.5126 -0.0359 -0.7683
18945TIP3   OH278249   4.532   6.318   5.810 -0.3837  0.2995 -0.2297
18945TIP3    H178250   4.626   6.303   5.823 -0.3910 -0.1756 -0.7252
18945TIP3    H278251   4.491   6.233   5.824 -0.6304  0.2800 -1.0444
18946TIP3   OH278252   2.547   6.674  10.902  0.1211  0.0566  0.6142
18946TIP3    H178253   2.502   6.663  10.818 -0.4904  0.8397  0.8233
18946TIP3    H278254   2.640   6.671  10.880 -0.0310  0.6916 -0.1608
18947TIP3   OH278255   1.311   2.797   0.264 -0.3461 -0.0822  0.5755
18947TIP3    H178256   1.232   2.744   0.276  0.1393 -0.8350  0.4675
18947TIP3    H278257   1.371   2.739   0.217 -0.5955  1.2990 -1.5101
18948TIP3   OH278258   6.160   4.995   1.232 -0.1056 -0.7021 -0.9657
18948TIP3    H178259   6.205   4.993   1.147  1.2077  1.7169 -0.3947
18948TIP3    H278260   6.208   4.933   1.286 -0.2846 -1.4751 -1.6964
18949TIP3   OH278261   1.056   0.140  12.948 -0.3271  0.0758 -0.0666
18949TIP3    H178262   1.044   0.143  12.853 -1.0268  0.8036  0.0370
18949TIP3    H278263   0.972   0.170  12.983  0.2088  0.6045  0.7733
18950TIP3   OH278264   1.524   2.307   6.066  0.3100  0.2275 -0.0990
18950TIP3    H178265   1.514   2.321   5.972 -0.4673 -1.0476 -0.2142
18950TIP3    H278266   1.555   2.392   6.100 -0.1203  0.9080 -1.3791
18951TIP3   OH278267   6.398   1.655   4.984 -0.2047  0.0758  0.0044
18951TIP3    H178268   6.408   1.725   5.049  0.0519 -0.3361  0.4131
18951TIP3    H278269   6.304   1.643   4.975 -0.2450 -1.1916  1.7443
18952TIP3   OH278270   6.667   4.049   1.794  0.1330 -1.1575  0.3653
18952TIP3    H178271   6.675   4.119   1.729  0.6462 -0.9818  0.6086
18952TIP3    H278272   6.573   4.039   1.809 -0.0211 -1.6452 -0.8844
18953TIP3   OH278273   4.728   0.941   1.937 -0.6200 -0.4500 -0.7355
18953TIP3    H178274   4.727   0.910   1.846 -0.3567  0.8060 -1.1795
18953TIP3    H278275   4.652   0.998   1.944 -0.6189 -0.5175 -0.1850
18954TIP3   OH278276   1.398   3.808  16.532 -0.6751  0.1564  0.2987
18954TIP3    H178277   1.334   3.802  16.603 -2.5455  0.4939 -1.3348
18954TIP3    H278278   1.378   3.734  16.475  0.4750  0.1964 -0.1566
18955TIP3   OH278279   0.619   2.241  11.237 -0.0481  0.3194  0.1652
18955TIP3    H178280   0.678   2.311  11.207 -0.3115  0.4181 -0.1296
18955TIP3    H278281   0.634   2.235  11.331  0.9578 -0.1489 -0.0237
18956TIP3   OH278282   3.673   0.405  14.850  0.1069  0.2086 -0.2283
18956TIP3    H178283   3.607   0.413  14.919  2.7004  1.4747  2.2013
18956TIP3    H278284   3.690   0.495  14.823  2.2872  0.0855  0.6247
18957TIP3   OH278285   2.050   4.246   4.129  0.4994 -0.0953  0.8103
18957TIP3    H178286   2.090   4.333   4.139  0.5672  0.0027 -0.2252
18957TIP3    H278287   1.974   4.248   4.186  0.2987  0.7789  0.5261
18958TIP3   OH278288   3.863   4.211   3.595 -0.5022  0.8008  0.8391
18958TIP3    H178289   3.780   4.178   3.562  0.7892 -0.5762 -1.1907
18958TIP3    H278290   3.850   4.305   3.606 -2.6406  0.4270  1.6100
18959TIP3   OH278291   6.004   4.662  11.761  0.4769  0.4011  0.4948
18959TIP3    H178292   6.090   4.647  11.801  0.4560 -1.0170  0.0371
18959TIP3    H278293   6.018   4.650  11.667 -0.2174  0.1594  0.4179
18960TIP3   OH278294   3.106   1.225   5.652  0.4109  0.7284  0.7067
18960TIP3    H178295   3.099   1.180   5.568 -0.3420  0.6225  0.8197
18960TIP3    H278296   3.123   1.317   5.628 -0.5495  0.8396  0.4093
18961TIP3   OH278297   4.338   1.827  12.849  0.0371 -0.1219  0.5748
18961TIP3    H178298   4.431   1.805  12.851 -0.4011 -2.1295 -0.0323
18961TIP3    H278299   4.336   1.921  12.832  1.9254 -0.3805 -1.2715
18962TIP3   OH278300   4.291   0.469  13.946 -0.0456 -0.2847  0.2605
18962TIP3    H178301   4.248   0.409  13.885  2.6591 -0.9307 -1.1291
18962TIP3    H278302   4.268   0.437  14.033  0.0977 -2.4252 -0.4730
18963TIP3   OH278303   0.678   6.149  16.551 -0.1403  0.3702 -0.1127
18963TIP3    H178304   0.588   6.175  16.569  0.3759  2.5370 -0.4950
18963TIP3    H278305   0.711   6.217  16.492  2.1489  0.3171  1.0694
18964TIP3   OH278306   5.044   5.096  11.398 -0.1967 -0.2064  0.4286
18964TIP3    H178307   5.009   5.012  11.427  0.4497 -0.0855  1.5809
18964TIP3    H278308   5.129   5.075  11.359 -0.4880 -0.2111 -0.2059
18965TIP3   OH278309   4.136   2.847   3.426 -0.4663 -0.0811  0.5495
18965TIP3    H178310   4.215   2.800   3.454 -0.1879 -0.3283 -0.6436
18965TIP3    H278311   4.077   2.839   3.501 -0.3837 -2.2374  0.4285
18966TIP3   OH278312   3.262   4.735  16.740  0.2901  0.5461  0.5605
18966TIP3    H178313   3.226   4.748  16.652 -0.3735  2.0142  1.0274
18966TIP3    H278314   3.328   4.803  16.750  0.4956  0.2713  1.1230
18967TIP3   OH278315   4.745   1.506  14.503  0.1579 -0.7265  0.4792
18967TIP3    H178316   4.837   1.532  14.494 -0.1212  0.1767  0.2219
18967TIP3    H278317   4.749   1.420  14.545  1.1343 -0.8424  0.1692
18968TIP3   OH278318   0.052   4.422  13.065 -0.4451 -0.1901 -0.2819
18968TIP3    H178319   0.119   4.469  13.014  0.8683 -0.3210  1.2861
18968TIP3    H278320  -0.002   4.492  13.103  1.4561  0.0873  1.9825
18969TIP3   OH278321   2.434   4.041   2.257 -0.1233 -0.3184  0.4305
18969TIP3    H178322   2.428   4.137   2.263 -1.8437 -0.3968  0.3577
18969TIP3    H278323   2.389   4.010   2.336 -1.1364 -1.0770 -0.4250
18970TIP3   OH278324   4.757   4.729   1.459 -0.3637 -0.1101  0.3057
18970TIP3    H178325   4.754   4.698   1.550 -0.1248  0.8490  0.6468
18970TIP3    H278326   4.743   4.650   1.406 -0.3845 -0.6932  1.1721
18971TIP3   OH278327   3.024   5.157   1.425  0.2983 -0.2147 -0.3734
18971TIP3    H178328   2.946   5.149   1.480  1.6381  2.6666  2.0421
18971TIP3    H278329   2.991   5.191   1.342 -1.2856 -1.3251 -0.2300
18972TIP3   OH278330   0.118   3.116   2.623  0.2174 -0.1517  0.1502
18972TIP3    H178331   0.066   3.194   2.602 -0.0253 -0.4976 -0.5310
18972TIP3    H278332   0.165   3.096   2.542  1.1268 -0.0688  0.6455
18973TIP3   OH278333   0.851   0.161  16.240  0.1864 -0.3035  0.1749
18973TIP3    H178334   0.838   0.087  16.181 -2.5234 -1.3557  2.0347
18973TIP3    H278335   0.915   0.130  16.304  0.3619 -0.4083 -0.0494
18974TIP3   OH278336   2.495   3.447  13.643 -0.3045 -0.1990  0.2844
18974TIP3    H178337   2.402   3.422  13.643 -0.9066  1.8988 -1.5441
18974TIP3    H278338   2.495   3.539  13.672  1.5941 -1.2737  4.1256
18975TIP3   OH278339   4.676   2.522  15.595 -0.6420  0.2330  0.3383
18975TIP3    H178340   4.715   2.438  15.573  0.4880  0.6921  0.5574
18975TIP3    H278341   4.672   2.523  15.691 -1.1948  0.1876  0.3185
18976TIP3   OH278342   0.487   5.255  16.488  0.4096 -0.2410  0.8403
18976TIP3    H178343   0.402   5.285  16.520 -0.0706 -2.3634  1.6407
18976TIP3    H278344   0.466   5.182  16.429  1.5671  0.6167 -0.6820
18977TIP3   OH278345   1.182   3.540  16.016  0.0329 -0.0910 -0.1769
18977TIP3    H178346   1.183   3.575  16.105 -3.1384 -1.8013  0.6070
18977TIP3    H278347   1.196   3.446  16.027 -0.3377 -0.3122 -1.4893
18978TIP3   OH278348   1.633   1.510   0.723 -0.5289 -0.4851  0.6352
18978TIP3    H178349   1.704   1.483   0.664 -0.5074 -0.7712  0.7890
18978TIP3    H278350   1.678   1.534   0.804 -0.5088  0.4553  0.3539
18979TIP3   OH278351   0.690   3.151  14.817 -0.4436 -0.9115  0.5441
18979TIP3    H178352   0.778   3.187  14.817 -0.2334 -1.4070  1.7823
18979TIP3    H278353   0.673   3.127  14.909 -2.2757  0.2200  0.5362
18980TIP3   OH278354   2.266   0.766  10.560  0.1368  0.3624  0.3650
18980TIP3    H178355   2.276   0.692  10.500  0.8072  0.6663  0.0904
18980TIP3    H278356   2.351   0.810  10.558 -0.6390  1.8744 -0.4696
18981TIP3   OH278357   1.734   4.329  17.168  0.5718  0.1501  0.0683
18981TIP3    H178358   1.811   4.382  17.187  0.4009  0.8238 -1.1064
18981TIP3    H278359   1.742   4.307  17.075  0.7008 -1.9631  0.5556
18982TIP3   OH278360   0.761   4.725   4.555 -0.1028 -0.0990  0.3055
18982TIP3    H178361   0.788   4.772   4.477  0.4751 -0.2912  0.3879
18982TIP3    H278362   0.793   4.636   4.542 -2.3140 -0.8232 -0.4378
18983TIP3   OH278363   5.170   3.063  12.916  1.1742  0.4148  0.2309
18983TIP3    H178364   5.113   3.138  12.900  1.8240  0.5503 -1.5724
18983TIP3    H278365   5.247   3.101  12.958  2.1945  1.0426 -2.1044
18984TIP3   OH278366   4.165   4.843  11.939 -0.1877  0.4462  0.0253
18984TIP3    H178367   4.227   4.774  11.963 -1.4222 -0.8231 -0.3843
18984TIP3    H278368   4.130   4.874  12.023 -1.7813 -1.4574  0.1048
18985TIP3   OH278369   0.666   0.397  11.801 -0.6191 -0.5328  0.8477
18985TIP3    H178370   0.756   0.420  11.777 -1.1668 -1.2293 -2.0343
18985TIP3    H278371   0.629   0.478  11.836 -0.1541  0.9435 -1.9744
18986TIP3   OH278372   3.747   3.320  14.217 -0.2276  0.0915 -0.4289
18986TIP3    H178373   3.778   3.306  14.128 -0.8868  0.6441 -0.7488
18986TIP3    H278374   3.772   3.410  14.238 -1.5438  0.5305 -0.6717
18987TIP3   OH278375   5.771   5.885   4.353  0.5272 -0.1543  0.0680
18987TIP3    H178376   5.779   5.921   4.441 -0.8501  0.1522  0.0789
18987TIP3    H278377   5.813   5.799   4.359  0.2939 -0.2046  1.0694
18988TIP3   OH278378   0.035   0.054  15.817 -0.1403 -0.2732 -0.4325
18988TIP3    H178379   0.041   0.118  15.746 -0.4903  0.6849  0.3948
18988TIP3    H278380   0.053   0.105  15.897 -2.0791 -0.8647  0.4007
18989TIP3   OH278381   2.429   4.528   3.040  0.3067  0.3859 -0.5571
18989TIP3    H178382   2.513   4.511   2.997  1.3272  0.1760  1.4364
18989TIP3    H278383   2.363   4.500   2.977  1.7330  0.7467 -2.2379
18990TIP3   OH278384   0.987   2.481   2.684 -0.2547 -0.2326 -0.3382
18990TIP3    H178385   0.998   2.452   2.775  1.3314 -0.7474 -0.6827
18990TIP3    H278386   1.076   2.481   2.648 -0.8659  0.0686 -1.8664
18991TIP3   OH278387   2.313   0.636  10.958  0.4642  0.3374 -0.4910
18991TIP3    H178388   2.322   0.634  11.054 -2.6898  0.5987 -0.1361
18991TIP3    H278389   2.330   0.727  10.935 -0.4895  0.6704  0.0619
18992TIP3   OH278390   3.972   0.347  12.330  0.3350  0.1096 -0.3387
18992TIP3    H178391   3.996   0.355  12.422  0.0601 -0.3201 -0.2263
18992TIP3    H278392   3.903   0.412  12.318 -0.0772 -0.2711 -0.0780
18993TIP3   OH278393   2.668   1.790  16.915  0.0281  0.0705 -0.6267
18993TIP3    H178394   2.743   1.847  16.928 -0.0901 -0.0504  0.6648
18993TIP3    H278395   2.705   1.702  16.913 -0.0157  0.0520 -0.6234
18994TIP3   OH278396   5.573   1.123   4.777 -0.4235 -0.5617 -0.4873
18994TIP3    H178397   5.551   1.216   4.773 -1.0807 -0.7423 -1.2263
18994TIP3    H278398   5.664   1.120   4.807 -1.0287  0.2521  1.5233
18995TIP3   OH278399   1.610   6.609  16.102 -0.0689  0.1134 -0.2472
18995TIP3    H178400   1.550   6.676  16.070  1.0798  1.2412 -0.1129
18995TIP3    H278401   1.626   6.553  16.027 -1.8660 -0.6370 -0.0766
18996TIP3   OH278402   5.212   2.583   1.295  0.3694 -0.0407  0.0179
18996TIP3    H178403   5.118   2.584   1.317 -0.3256  2.7091 -2.7878
18996TIP3    H278404   5.215   2.550   1.205  2.2913 -1.8613  0.7200
18997TIP3   OH278405   3.310   6.383  14.211 -0.2448  0.7346  0.4239
18997TIP3    H178406   3.329   6.419  14.298  2.5505  2.0436 -0.6808
18997TIP3    H278407   3.215   6.369  14.211 -0.8186  4.1715  2.3848
18998TIP3   OH278408   4.469   5.035  14.411  0.6337  0.2436  0.1522
18998TIP3    H178409   4.429   5.014  14.327  3.7326 -0.2184 -1.2913
18998TIP3    H278410   4.510   5.120  14.396  0.6200  0.4718  1.4169
18999TIP3   OH278411   1.108   3.715   6.228 -0.1225 -0.3926  0.2111
18999TIP3    H178412   1.046   3.779   6.193 -1.1779 -1.7520 -0.4471
18999TIP3    H278413   1.194   3.744   6.196 -0.9812 -1.2527 -3.0913
19000TIP3   OH278414   0.906   3.607  14.056  0.1570 -0.5429  0.0226
19000TIP3    H178415   0.874   3.559  13.979 -1.4104  0.5286 -0.0087
19000TIP3    H278416   0.863   3.565  14.130  0.5473 -0.6368  0.1993
19001TIP3   OH278417   1.545   1.669   5.953 -0.7273 -0.2115 -0.9046
19001TIP3    H178418   1.611   1.688   6.019  0.1689 -0.3786 -1.7361
19001TIP3    H278419   1.464   1.704   5.989 -0.2618 -0.3738  0.3110
19002TIP3   OH278420   2.097   2.393  16.122  0.1701 -0.1893 -0.2421
19002TIP3    H178421   2.183   2.376  16.160  1.0181  0.4662 -1.8401
19002TIP3    H278422   2.113   2.401  16.028 -1.6950 -0.4281 -0.5951
19003TIP3   OH278423   2.941   3.037   0.716 -0.2806  0.8772  0.1460
19003TIP3    H178424   2.960   2.954   0.758  0.0309  1.8396  1.9734
19003TIP3    H278425   2.995   3.037   0.637  0.7802 -0.0791  0.8543
19004TIP3   OH278426   0.766   4.152  17.048  0.4708 -0.7466 -0.4538
19004TIP3    H178427   0.802   4.091  17.112  0.7780 -0.7460 -0.6291
19004TIP3    H278428   0.752   4.233  17.096 -1.3102 -1.3762  0.1465
19005TIP3   OH278429   0.022   3.894   4.850 -0.0634  0.0487  0.1668
19005TIP3    H178430  -0.055   3.838   4.847 -1.8684  2.4642  0.2007
19005TIP3    H278431   0.049   3.903   4.758 -1.5178  1.4459 -0.1413
19006TIP3   OH278432   5.597   5.149   3.025  0.4219  0.0219  0.3156
19006TIP3    H178433   5.540   5.206   2.974  0.4337 -0.1060  0.1576
19006TIP3    H278434   5.556   5.143   3.111 -0.7477 -1.4984 -0.3361
19007TIP3   OH278435   6.687   5.611  13.025 -0.2997  0.0030  0.0294
19007TIP3    H178436   6.680   5.527  12.979  0.5854 -0.1186  0.0957
19007TIP3    H278437   6.602   5.624  13.065 -1.0674  0.0586 -1.5590
19008TIP3   OH278438   5.968   6.581  11.730  0.4348 -0.3918  0.2667
19008TIP3    H178439   6.045   6.548  11.778  1.5647  1.8463  0.0527
19008TIP3    H278440   5.894   6.556  11.785  1.3405 -2.2120  0.7000
19009TIP3   OH278441   3.569   4.738  11.281  0.2955  0.1603 -0.0771
19009TIP3    H178442   3.536   4.797  11.349 -2.3681  0.0148 -1.1961
19009TIP3    H278443   3.622   4.793  11.225 -0.6448  1.1228 -0.0431
19010TIP3   OH278444   1.124   1.676  12.325  0.1595 -0.3127  0.2550
19010TIP3    H178445   1.185   1.723  12.382 -2.0301 -1.5575  3.7632
19010TIP3    H278446   1.175   1.601  12.293  2.2289  1.8294 -1.6746
19011TIP3   OH278447   3.543   1.061  12.358  0.1729  0.7839 -0.6618
19011TIP3    H178448   3.470   1.123  12.353 -0.8390 -0.4843 -2.3882
19011TIP3    H278449   3.536   1.010  12.277  1.8903 -0.5617  0.0163
19012TIP3   OH278450   4.474   3.891   3.390  0.0762  0.3839 -0.2865
19012TIP3    H178451   4.414   3.836   3.440  1.3837 -1.5626 -0.7701
19012TIP3    H278452   4.418   3.944   3.334 -1.3458  1.8422  2.4646
19013TIP3   OH278453   2.397   0.166   2.481 -0.0155  0.3209 -0.2529
19013TIP3    H178454   2.405   0.142   2.574 -2.5920  0.7183  0.1044
19013TIP3    H278455   2.448   0.247   2.473 -1.6891  1.5874  1.3833
19014TIP3   OH278456   6.755   3.972   0.133  0.1475 -0.1238  0.0500
19014TIP3    H178457   6.824   4.039   0.140 -0.5985  0.8291 -1.5174
19014TIP3    H278458   6.778   3.908   0.201  1.0957  1.5129  1.3307
19015TIP3   OH278459   1.371   6.554  13.915  0.1766  0.7554 -0.3997
19015TIP3    H178460   1.305   6.619  13.942  0.4135  0.8333 -0.0008
19015TIP3    H278461   1.373   6.560  13.820 -0.0233  1.1185 -0.3818
19016TIP3   OH278462   6.148   0.797   6.752  0.2732  0.4805 -0.4693
19016TIP3    H178463   6.121   0.716   6.709  0.6315  0.6935 -1.0933
19016TIP3    H278464   6.188   0.849   6.683 -0.1082  1.2618 -0.1066
19017TIP3   OH278465   5.889   2.781  12.954  0.2106  0.2234  0.3267
19017TIP3    H178466   5.972   2.743  12.926  0.6373  0.4532  1.2524
19017TIP3    H278467   5.907   2.875  12.961  0.1512  0.1535  1.4753
19018TIP3   OH278468   6.343   0.510   2.286  0.7186  0.5071 -0.1982
19018TIP3    H178469   6.349   0.492   2.193 -0.7135  0.0617 -0.2114
19018TIP3    H278470   6.250   0.528   2.302  0.7068 -0.8326  1.3952
19019TIP3   OH278471   0.009   4.949   4.493  0.1490 -0.4411  0.1072
19019TIP3    H178472   0.055   4.942   4.410 -0.7046  0.4021 -0.4416
19019TIP3    H278473   0.025   4.864   4.536  2.1789 -0.1680 -0.0575
19020TIP3   OH278474   6.102   2.428   5.535  0.0764  0.0629  0.2055
19020TIP3    H178475   6.058   2.512   5.551  0.6768  0.1097  1.6967
19020TIP3    H278476   6.033   2.363   5.545 -0.0008  0.2533  0.9773
19021TIP3   OH278477   6.107   2.816  11.736  0.2296  0.1857  0.1780
19021TIP3    H178478   6.170   2.794  11.804 -0.2602  0.6947  0.8084
19021TIP3    H278479   6.067   2.733  11.711  1.2061 -0.1450 -0.2828
19022TIP3   OH278480   4.665   2.680   4.694 -0.0499 -0.3485  0.2325
19022TIP3    H178481   4.633   2.677   4.785  0.8301  0.9996  0.5968
19022TIP3    H278482   4.711   2.597   4.682  2.6537  0.8191  2.0870
19023TIP3   OH278483   1.265   2.696   2.229 -0.6227 -0.0817 -0.0293
19023TIP3    H178484   1.348   2.665   2.265 -0.3002 -0.5914 -1.2098
19023TIP3    H278485   1.228   2.751   2.299 -0.4340 -1.7661  1.4350
19024TIP3   OH278486   6.701   2.904  13.022 -0.2882  0.2922 -0.7777
19024TIP3    H178487   6.631   2.842  13.046 -0.0798  1.1588  2.3240
19024TIP3    H278488   6.702   2.902  12.926 -1.7191 -2.9079 -0.8286
19025TIP3   OH278489   3.305   3.048  16.256 -0.3545 -0.3437 -0.1460
19025TIP3    H178490   3.337   3.137  16.246  1.8604 -1.2929 -1.8613
19025TIP3    H278491   3.297   3.015  16.167  0.1739 -2.3015  0.5048
19026TIP3   OH278492   6.220   4.490   1.235  0.2389 -0.0021 -0.3536
19026TIP3    H178493   6.191   4.434   1.163 -2.0181  1.0716 -0.3251
19026TIP3    H278494   6.170   4.459   1.311  1.6393 -0.2715  0.4707
19027TIP3   OH278495   1.342   5.562  16.954  0.4768 -0.3005 -0.4895
19027TIP3    H178496   1.390   5.635  16.914 -0.4713  1.2409  1.1454
19027TIP3    H278497   1.266   5.603  16.995 -1.0218 -2.4460 -1.0819
19028TIP3   OH278498   3.545   5.338  15.614  0.0534 -0.0958  0.0939
19028TIP3    H178499   3.547   5.261  15.556 -0.9277 -0.6988  0.8492
19028TIP3    H278500   3.479   5.395  15.575  2.2113  1.3165 -1.6237
19029TIP3   OH278501   1.272   1.913  17.214 -0.4391  0.5953 -0.8596
19029TIP3    H178502   1.184   1.906  17.178 -0.1042  2.3852 -2.1035
19029TIP3    H278503   1.297   2.004  17.200  1.2363  0.3530  0.3551
19030TIP3   OH278504   3.721   6.684   2.228  0.5858 -0.1052 -0.2956
19030TIP3    H178505   3.627   6.677   2.216  0.3616  2.0613  0.0002
19030TIP3    H278506   3.733   6.703   2.321  1.1627  1.8684 -0.7574
19031TIP3   OH278507   3.187   6.038   1.280  0.2176  0.1791  0.2108
19031TIP3    H178508   3.170   5.945   1.294 -1.4540  0.1748 -1.6863
19031TIP3    H278509   3.118   6.083   1.329 -0.5687  0.3515 -1.0500
19032TIP3   OH278510   2.844   6.185   3.986 -0.3578  0.1214 -0.0268
19032TIP3    H178511   2.873   6.094   3.997 -0.6703 -0.0380 -0.5227
19032TIP3    H278512   2.878   6.212   3.901  0.1821  0.6476  0.3493
19033TIP3   OH278513   0.413   3.694  14.261  0.4617  0.5225 -0.3140
19033TIP3    H178514   0.398   3.628  14.194  1.7339  1.4807 -1.5767
19033TIP3    H278515   0.414   3.777  14.214  2.2602  1.1370  0.7541
19034TIP3   OH278516   1.294   4.640   5.390 -0.0440 -0.5443 -0.1352
19034TIP3    H178517   1.324   4.724   5.425  2.9887 -0.9946 -1.5248
19034TIP3    H278518   1.237   4.663   5.316 -0.4412  0.2943  0.4333
19035TIP3   OH278519   5.223   1.515  11.937  0.0799 -0.4400 -0.7806
19035TIP3    H178520   5.245   1.423  11.953  0.8454 -0.5000 -2.0378
19035TIP3    H278521   5.232   1.525  11.842 -2.8065  0.2277 -1.0078
19036TIP3   OH278522   2.692   3.961   2.488  0.3551 -0.4216  0.4045
19036TIP3    H178523   2.759   3.894   2.479  0.9414 -0.1415  2.3561
19036TIP3    H278524   2.612   3.913   2.511  0.4003 -0.5889  0.2078
19037TIP3   OH278525   5.686   0.899   2.040 -0.1833 -0.1948 -0.4302
19037TIP3    H178526   5.712   0.991   2.044  1.2136 -0.6034  0.3137
19037TIP3    H278527   5.725   0.860   2.118 -1.1236 -1.3271 -0.5275
19038TIP3   OH278528   1.970   1.398  15.417  0.2792 -0.2770  0.0498
19038TIP3    H178529   1.886   1.391  15.373 -0.4784 -0.1570  1.4370
19038TIP3    H278530   2.035   1.380  15.349 -0.8170  0.7368 -1.2796
19039TIP3   OH278531   6.046   0.487   2.915  0.6625 -0.1161 -0.8115
19039TIP3    H178532   6.045   0.396   2.946  2.0471 -0.3898 -1.5191
19039TIP3    H278533   5.977   0.530   2.966  0.6654 -1.3292  0.2606
19040TIP3   OH278534   6.211   4.285   0.440  0.0611  0.4916  0.4665
19040TIP3    H178535   6.235   4.196   0.414  0.7745  0.4168  1.3812
19040TIP3    H278536   6.169   4.322   0.362 -0.8082 -0.8567  0.2825
19041TIP3   OH278537   0.665   5.408   5.152 -0.8646  0.2058 -0.0260
19041TIP3    H178538   0.668   5.394   5.057  1.2665  0.7670 -0.0815
19041TIP3    H278539   0.637   5.499   5.162  0.6917  0.7228 -0.2032
19042TIP3   OH278540   4.709   6.625   5.197  0.1289 -0.3587 -0.4422
19042TIP3    H178541   4.756   6.704   5.170  2.4209 -1.9186 -1.1781
19042TIP3    H278542   4.778   6.564   5.222 -1.6816 -1.4761  2.0353
19043TIP3   OH278543   0.075   4.819   2.844 -0.0845 -0.1387  0.5386
19043TIP3    H178544   0.038   4.851   2.762 -0.0204 -1.3321  0.0245
19043TIP3    H278545   0.028   4.737   2.860  0.1703 -0.0990  1.4992
19044TIP3   OH278546   4.216   6.665  12.174 -0.0113  0.1268 -0.0398
19044TIP3    H178547   4.243   6.707  12.255 -0.4853 -0.3361  0.3561
19044TIP3    H278548   4.196   6.575  12.199  0.5656 -0.2223 -0.8009
19045TIP3   OH278549   4.865   0.138   3.736  0.2861  0.2734  0.2267
19045TIP3    H178550   4.870   0.222   3.690 -1.6887 -1.0024 -2.4595
19045TIP3    H278551   4.785   0.145   3.789  0.0028  0.0132 -0.1650
19046TIP3   OH278552   1.522   3.536  16.346 -0.0019 -0.0600  0.2438
19046TIP3    H178553   1.436   3.542  16.303 -0.8073  0.9386  1.9665
19046TIP3    H278554   1.565   3.619  16.325 -0.0892  0.1091  0.7478
19047TIP3   OH278555   4.286   1.337  14.005 -0.3656  0.0080  0.6583
19047TIP3    H178556   4.380   1.348  13.997 -0.3353  0.4979  1.5757
19047TIP3    H278557   4.270   1.329  14.099 -1.0610 -1.8430  0.3967
19048TIP3   OH278558   4.248   5.659  10.355  0.0562  0.1831 -0.0042
19048TIP3    H178559   4.264   5.747  10.389 -0.0138 -0.2832  1.2245
19048TIP3    H278560   4.244   5.671  10.260 -1.1412  1.6992  0.2139
19049TIP3   OH278561   1.642   3.379   3.629  0.4094 -0.3988 -0.7643
19049TIP3    H178562   1.697   3.327   3.570  2.7715 -0.2989  1.2741
19049TIP3    H278563   1.585   3.315   3.671  1.0921 -0.9230 -0.6316
19050TIP3   OH278564   4.967   5.935  10.783 -0.2954 -0.0147 -0.2855
19050TIP3    H178565   5.011   6.013  10.750 -0.7026 -0.3714 -1.7316
19050TIP3    H278566   4.877   5.963  10.798 -0.1518  0.1017  0.4022
19051TIP3   OH278567   4.024   6.221   4.810  0.0695 -0.0883 -0.9275
19051TIP3    H178568   3.958   6.284   4.840  1.8131  0.4157  2.1821
19051TIP3    H278569   4.068   6.266   4.738  0.2725  1.6829  0.2500
19052TIP3   OH278570   0.085   0.917  15.088  0.3561  0.0027 -0.3681
19052TIP3    H178571  -0.002   0.938  15.053 -0.2646  0.6271  1.4937
19052TIP3    H278572   0.145   0.971  15.037 -0.4928  0.6373 -0.7145
19053TIP3   OH278573   4.165   1.525   3.510  0.3822 -0.0648  0.3142
19053TIP3    H178574   4.151   1.607   3.556 -0.5442 -0.1172  0.1267
19053TIP3    H278575   4.259   1.524   3.491  0.1741  1.5729 -0.8826
19054TIP3   OH278576   2.195   0.887   5.598  0.1332  0.0474 -0.8792
19054TIP3    H178577   2.133   0.914   5.530 -0.1231  0.5774 -0.4382
19054TIP3    H278578   2.281   0.913   5.563 -0.1184  1.5229 -0.4293
19055TIP3   OH278579   6.161   2.437   0.907 -0.5801 -0.9615  0.5047
19055TIP3    H178580   6.159   2.353   0.951  2.8081 -0.9699  0.7451
19055TIP3    H278581   6.254   2.459   0.900 -1.3584  2.5915  0.1325
19056TIP3   OH278582   2.398   3.736  11.745 -0.3920 -0.1759 -0.0171
19056TIP3    H178583   2.384   3.831  11.744 -1.1831 -0.2907 -0.6749
19056TIP3    H278584   2.361   3.706  11.662  0.5987 -0.9636 -0.1861
19057TIP3   OH278585   4.649   0.432  12.063  0.0565 -0.9843  0.2240
19057TIP3    H178586   4.596   0.355  12.080  1.3251 -1.5939  1.5564
19057TIP3    H278587   4.623   0.494  12.132 -0.3816 -0.5185 -0.3577
19058TIP3   OH278588   5.877   1.746  14.001 -0.1831  0.5552 -0.1582
19058TIP3    H178589   5.866   1.735  13.906 -0.5774 -1.4429  0.1028
19058TIP3    H278590   5.794   1.783  14.031  0.0726  1.5445 -0.6148
19059TIP3   OH278591   3.433   5.432  13.688 -0.2223 -0.4835  0.0185
19059TIP3    H178592   3.411   5.466  13.602  1.0834 -1.3258 -0.6753
19059TIP3    H278593   3.364   5.464  13.746  0.0320  1.8254 -0.9337
19060TIP3   OH278594   3.278   1.408  13.112  0.1032  0.6993  0.5337
19060TIP3    H178595   3.373   1.413  13.113  0.0581  1.7959  1.2777
19060TIP3    H278596   3.255   1.377  13.200 -0.1763 -0.8642 -0.0849
19061TIP3   OH278597   1.324   1.919  13.903  0.0953 -0.1286  0.3309
19061TIP3    H178598   1.262   1.991  13.922 -0.5134 -0.2091 -1.2648
19061TIP3    H278599   1.407   1.948  13.941 -0.0918  1.5430 -0.4748
19062TIP3   OH278600   2.458   5.487  14.375  0.5302  0.2015  0.1118
19062TIP3    H178601   2.453   5.397  14.407  0.1988  0.1602 -0.0552
19062TIP3    H278602   2.444   5.480  14.281 -3.2000  0.7993  0.5541
19063TIP3   OH278603   4.379   5.012   2.101  0.1249  0.6720 -0.3596
19063TIP3    H178604   4.455   5.027   2.157 -0.2570 -0.6317  0.5155
19063TIP3    H278605   4.416   4.979   2.019  0.3622 -2.4972  0.9788
19064TIP3   OH278606   4.316   0.997   0.663 -0.0740  0.2208  0.4690
19064TIP3    H178607   4.351   0.910   0.643 -0.8068  0.1322 -0.4642
19064TIP3    H278608   4.263   0.983   0.742 -1.0628 -0.4138 -0.2871
19065TIP3   OH278609   3.249   2.531   2.916  0.2443 -0.1053 -0.2126
19065TIP3    H178610   3.213   2.610   2.877 -0.1843  0.3998  1.1682
19065TIP3    H278611   3.238   2.464   2.849 -1.0682  0.5883 -0.7023
19066TIP3   OH278612   1.156   1.384   5.112 -1.1197 -0.2193  0.0807
19066TIP3    H178613   1.073   1.401   5.156 -1.4698  0.2357 -0.7415
19066TIP3    H278614   1.141   1.408   5.020 -0.2772 -0.7410 -0.2109
19067TIP3   OH278615   4.261   2.713  11.161  0.1751  0.6405 -0.5698
19067TIP3    H178616   4.277   2.622  11.136  0.4097  0.3803  0.5088
19067TIP3    H278617   4.345   2.743  11.197 -0.9969  0.0209  2.8498
19068TIP3   OH278618   1.373   2.981   0.434 -0.5997  0.0637 -0.2046
19068TIP3    H178619   1.347   2.926   0.360 -1.0587 -0.8634  0.6410
19068TIP3    H278620   1.434   2.927   0.484  1.8756  1.6655 -1.3662
19069TIP3   OH278621   5.526   5.124  10.885  0.7898  0.3397 -0.5056
19069TIP3    H178622   5.603   5.165  10.922  1.0464  0.0743 -0.7375
19069TIP3    H278623   5.523   5.155  10.794  1.0961 -0.3035 -0.7402
19070TIP3   OH278624   4.650   3.279  15.458 -0.1904  0.4975 -0.1837
19070TIP3    H178625   4.688   3.362  15.430  1.5196 -0.1024  0.2961
19070TIP3    H278626   4.724   3.218  15.461 -1.1283 -0.6151  1.0887
19071TIP3   OH278627   4.548   2.596   0.905 -0.8160 -0.4013 -0.5554
19071TIP3    H178628   4.563   2.649   0.826 -1.6894 -0.1893 -0.5847
19071TIP3    H278629   4.610   2.524   0.897 -0.4051 -0.0017 -1.0857
19072TIP3   OH278630   2.395   0.412   5.817  0.4817 -0.5073  0.5295
19072TIP3    H178631   2.411   0.323   5.787 -0.5426 -0.8245  0.9100
19072TIP3    H278632   2.463   0.428   5.883  1.1017 -0.7487 -0.0442
19073TIP3   OH278633   4.018   0.051  17.003  0.1272 -0.0809  0.2679
19073TIP3    H178634   4.023  -0.032  17.050 -0.5000 -1.3462 -1.8230
19073TIP3    H278635   3.925   0.070  16.998  0.1452 -0.2885 -0.9898
19074TIP3   OH278636   3.763   3.216   4.900  0.1454  0.2389  0.3009
19074TIP3    H178637   3.773   3.155   4.828  0.2943  0.4687  0.1269
19074TIP3    H278638   3.696   3.176   4.956 -1.3282  0.9445 -0.9149
19075TIP3   OH278639   1.358   6.723   4.741  0.4395  0.0971  0.0783
19075TIP3    H178640   1.397   6.640   4.711  0.7562  0.5249 -0.7001
19075TIP3    H278641   1.306   6.698   4.818 -0.1662 -0.9708 -0.6635
19076TIP3   OH278642   6.503   0.146  13.204  0.1675  0.4123  0.2367
19076TIP3    H178643   6.538   0.226  13.244 -0.1332  1.2470 -1.1452
19076TIP3    H278644   6.459   0.176  13.125  0.9513 -1.2259 -0.8555
19077TIP3   OH278645   4.815   3.845   3.651  0.1632  0.2578  0.1179
19077TIP3    H178646   4.908   3.829   3.667  0.4960  0.2259 -1.7358
19077TIP3    H278647   4.803   3.937   3.674  1.3622  1.1289 -2.5423
19078TIP3   OH278648   0.130   6.752  16.525 -0.5546  0.0186 -0.0138
19078TIP3    H178649   0.066   6.747  16.596 -0.5064  1.6878  0.1766
19078TIP3    H278650   0.111   6.835  16.482  0.7368 -0.0114 -0.6771
19079TIP3   OH278651   1.544   3.035   3.217 -0.4697  0.5142  0.3197
19079TIP3    H178652   1.471   3.059   3.274 -0.8569  0.9264 -0.3480
19079TIP3    H278653   1.608   2.996   3.276 -1.3694 -0.1609  0.8698
19080TIP3   OH278654   3.069   1.489   4.777  0.7310 -0.6179  0.1517
19080TIP3    H178655   3.089   1.437   4.854  1.1783  2.2381  2.0415
19080TIP3    H278656   3.150   1.537   4.759 -0.0007  0.2702 -0.8596
19081TIP3   OH278657   3.492   0.069  10.356  0.2195  0.1980 -0.5331
19081TIP3    H178658   3.501   0.019  10.437  0.3913  1.2822  0.1099
19081TIP3    H278659   3.580   0.069  10.319  0.5687  1.4347  0.2924
19082TIP3   OH278660   5.780   2.760   4.572 -0.0543  0.2160 -0.1246
19082TIP3    H178661   5.815   2.674   4.550 -1.7482 -0.2494 -1.1135
19082TIP3    H278662   5.700   2.741   4.621 -0.2907  1.2325 -0.1102
19083TIP3   OH278663   3.812   4.731   1.577  0.3178  0.4007  0.2623
19083TIP3    H178664   3.740   4.676   1.545  1.2903 -0.8018  0.1101
19083TIP3    H278665   3.770   4.793   1.636 -0.9635  0.2171 -0.4406
19084TIP3   OH278666   6.755   0.611   3.993  0.2646  0.4317  0.3797
19084TIP3    H178667   6.793   0.693   3.961  0.0390  0.7207  0.8384
19084TIP3    H278668   6.666   0.635   4.020  0.1582  0.0121  0.4049
19085TIP3   OH278669   6.237   2.568  17.178  0.4190  0.3113 -0.2696
19085TIP3    H178670   6.188   2.564  17.260  0.8418 -0.5511 -0.0502
19085TIP3    H278671   6.179   2.614  17.118  0.4993  1.7894  0.7783
19086TIP3   OH278672   0.694   3.227   3.669 -0.2552  0.2310 -0.4326
19086TIP3    H178673   0.740   3.157   3.623  0.7365  0.7631 -0.2658
19086TIP3    H278674   0.609   3.190   3.691 -0.4482 -0.2883 -2.0009
19087TIP3   OH278675   4.105   0.282  13.787  0.1661 -0.2565 -0.6265
19087TIP3    H178676   4.077   0.254  13.700  0.4729  0.2813 -0.8985
19087TIP3    H278677   4.026   0.316  13.829 -0.1628 -1.3039 -0.3736
19088TIP3   OH278678   2.862   1.866  14.732 -0.4913 -0.1766 -0.6903
19088TIP3    H178679   2.797   1.800  14.755  0.2021 -0.8949 -0.7640
19088TIP3    H278680   2.942   1.838  14.778  0.4304 -0.6503 -2.5374
19089TIP3   OH278681   0.268   3.834  16.123  0.1638  0.0950 -0.3723
19089TIP3    H178682   0.225   3.917  16.108 -0.7226 -0.0838  1.1141
19089TIP3    H278683   0.309   3.812  16.039  0.6560  2.1599 -0.6808
19090TIP3   OH278684   6.442   5.452   0.767  0.3106 -0.2728 -0.5238
19090TIP3    H178685   6.450   5.512   0.693  1.3452 -0.2821 -0.4224
19090TIP3    H278686   6.480   5.499   0.840  0.8145 -0.9201 -0.3680
19091TIP3   OH278687   2.029   4.406   1.579 -0.1941 -0.0104 -0.1442
19091TIP3    H178688   1.950   4.355   1.593 -0.1241  0.1093  0.7160
19091TIP3    H278689   2.094   4.366   1.636 -0.5789  2.0191  1.7616
19092TIP3   OH278690   1.254   6.040  12.079  0.0757  0.0357  0.3661
19092TIP3    H178691   1.179   6.034  12.138  0.3907 -0.6479  0.7078
19092TIP3    H278692   1.300   6.119  12.107 -0.1188  0.0581  0.6239
19093TIP3   OH278693   6.091   6.203   3.239  0.0038  0.6238 -0.1531
19093TIP3    H178694   6.008   6.157   3.225  0.1106  0.1877  0.5990
19093TIP3    H278695   6.145   6.141   3.287  0.7766  0.9058 -0.6499
19094TIP3   OH278696   4.748   3.853  13.838 -0.0033  0.5342  0.4810
19094TIP3    H178697   4.672   3.903  13.808 -0.8621 -1.3463 -0.5518
19094TIP3    H278698   4.712   3.787  13.898  1.0500  0.7699  1.4075
19095TIP3   OH278699   5.716   2.794   3.082 -0.5717  0.0006  0.3447
19095TIP3    H178700   5.730   2.865   3.145  1.4867  1.7632 -2.0153
19095TIP3    H278701   5.800   2.783   3.039 -1.5019 -2.3167 -0.9805
19096TIP3   OH278702   2.813   4.739  15.469 -0.5182 -0.1150  0.4217
19096TIP3    H178703   2.855   4.739  15.554 -1.4603  0.7397  0.8961
19096TIP3    H278704   2.811   4.647  15.443  0.2924 -0.3160  1.0577
19097TIP3   OH278705   0.611   3.117  12.536 -0.0662 -0.9246  0.3878
19097TIP3    H178706   0.585   3.055  12.604 -1.0303  1.2905  2.1344
19097TIP3    H278707   0.536   3.176  12.529  0.5987 -0.2953 -1.6286
19098TIP3   OH278708   0.671   3.427   3.863 -1.2597  0.2400 -0.1291
19098TIP3    H178709   0.713   3.351   3.823 -0.1020  1.3288 -1.0277
19098TIP3    H278710   0.614   3.462   3.795 -0.0664  1.4893 -0.5194
19099TIP3   OH278711   6.278   6.589   0.751  0.1333  0.0496  0.6838
19099TIP3    H178712   6.333   6.575   0.828  1.3615  0.4071 -0.1222
19099TIP3    H278713   6.273   6.503   0.710  0.6675  0.1726  0.3678
19100TIP3   OH278714   0.899   4.398  11.826 -0.0553  0.7853 -0.7832
19100TIP3    H178715   0.936   4.376  11.741  0.1734 -0.5921 -0.3401
19100TIP3    H278716   0.809   4.366  11.822  0.2691 -0.2246 -0.1432
19101TIP3   OH278717   2.233   2.279  13.610  0.1860 -0.5095 -0.3870
19101TIP3    H178718   2.291   2.248  13.541  0.1387 -0.7669 -0.3126
19101TIP3    H278719   2.171   2.207  13.623 -1.0640  0.3351 -1.4963
19102TIP3   OH278720   0.318   3.081   5.348  0.3401 -0.5358 -0.1207
19102TIP3    H178721   0.372   3.063   5.425 -0.0644  1.3192  0.6258
19102TIP3    H278722   0.229   3.092   5.382  0.2154  0.6589 -0.8080
19103TIP3   OH278723   1.756   1.501  13.065  0.5146 -0.1952  0.2000
19103TIP3    H178724   1.741   1.516  13.158 -0.9378 -1.8529  0.2679
19103TIP3    H278725   1.826   1.435  13.063  0.0620 -0.6824  0.1555
19104TIP3   OH278726   6.292   0.152  16.255  0.2062  0.1254 -0.2216
19104TIP3    H178727   6.270   0.065  16.223  0.5763  0.1796 -0.6450
19104TIP3    H278728   6.346   0.189  16.185 -0.3044  0.8523 -0.2321
19105TIP3   OH278729   3.402   3.730   0.375 -0.0479  0.2371 -0.1763
19105TIP3    H178730   3.439   3.724   0.286 -0.7610 -0.7152 -0.4058
19105TIP3    H278731   3.479   3.731   0.432  0.3855 -0.2308 -0.7428
19106TIP3   OH278732   2.259   1.114  15.622  0.4465  0.0589 -0.0829
19106TIP3    H178733   2.274   1.022  15.644  0.0647  0.1776  0.6806
19106TIP3    H278734   2.165   1.127  15.635  0.2940  0.2702 -1.2862
19107TIP3   OH278735   3.917   2.947  17.068  0.1271 -0.4135  0.0336
19107TIP3    H178736   3.989   2.944  17.130  2.6969 -0.7556 -2.8632
19107TIP3    H278737   3.948   3.004  16.997 -3.5967  1.8937  0.0874
19108TIP3   OH278738   1.855   5.885  12.111  0.0559  0.6867 -1.1131
19108TIP3    H178739   1.872   5.818  12.045  0.0808 -0.9729  0.5519
19108TIP3    H278740   1.785   5.939  12.074 -2.1166 -2.0963 -1.2119
19109TIP3   OH278741   0.805   4.896   5.821  0.0026 -0.1216  0.0830
19109TIP3    H178742   0.816   4.835   5.894 -0.3734  1.8942  1.8854
19109TIP3    H278743   0.893   4.914   5.791  0.2901  0.3062  1.1483
19110TIP3   OH278744   6.782   3.046  15.684  0.7788  0.9546 -0.6475
19110TIP3    H178745   6.730   3.011  15.756  1.0370  1.8980  0.0091
19110TIP3    H278746   6.830   3.119  15.723  3.2402 -0.4007 -1.0251
19111TIP3   OH278747   0.283   2.392  13.934  0.0577 -0.1673 -0.2355
19111TIP3    H178748   0.219   2.452  13.972  1.1343  0.7101  0.2122
19111TIP3    H278749   0.328   2.444  13.868  0.2588 -0.8061 -0.6012
19112TIP3   OH278750   6.527   2.143  12.906  0.0339 -0.1451 -0.1403
19112TIP3    H178751   6.571   2.126  12.822  1.4883 -1.4668  0.8565
19112TIP3    H278752   6.545   2.235  12.924  1.5599 -0.4072 -0.2447
19113TIP3   OH278753   5.703   3.057  12.871 -0.0752 -0.6169 -0.3360
19113TIP3    H178754   5.736   3.054  12.960  0.7887  2.2349 -0.4824
19113TIP3    H278755   5.618   3.100  12.878  0.0963 -0.1660 -0.8628
19114TIP3   OH278756   0.808   2.363  14.114 -0.1875  0.1666  0.4536
19114TIP3    H178757   0.819   2.369  14.019  2.0127 -0.4379  0.6382
19114TIP3    H278758   0.798   2.454  14.142 -1.9960  0.2702 -0.4701
19115TIP3   OH278759   4.377   2.432  11.459  0.4574  0.2563  0.3622
19115TIP3    H178760   4.406   2.345  11.431 -1.1580  0.0528 -0.7528
19115TIP3    H278761   4.440   2.458  11.526  1.6724 -1.2515 -0.1707
19116TIP3   OH278762   0.923   1.859  16.653  0.0568  0.1968  0.1688
19116TIP3    H178763   1.010   1.853  16.692  0.8825 -0.8238 -1.7787
19116TIP3    H278764   0.932   1.817  16.568 -1.7569  2.1678 -1.0439
19117TIP3   OH278765   4.158   0.746  17.154 -0.1289  0.3061  0.3703
19117TIP3    H178766   4.179   0.800  17.230  1.4315 -0.6041  0.5868
19117TIP3    H278767   4.108   0.672  17.189  1.1030 -0.4267  0.6087
19118TIP3   OH278768   0.902   0.243   6.611  0.0027  0.6718  0.1220
19118TIP3    H178769   0.950   0.170   6.648  0.1915  1.4967  1.5439
19118TIP3    H278770   0.961   0.318   6.619 -1.8553  1.9186  2.8549
19119TIP3   OH278771   6.243   0.545  14.681 -0.1354 -0.5783 -0.3464
19119TIP3    H178772   6.155   0.544  14.643  0.7947 -0.1152 -2.5710
19119TIP3    H278773   6.249   0.462  14.729 -2.0056 -0.3193  0.4071
19120TIP3   OH278774   4.131   6.613   2.922 -0.4233  0.2413  0.3612
19120TIP3    H178775   4.130   6.644   2.831  2.8126  0.3469  0.3025
19120TIP3    H278776   4.096   6.524   2.917 -0.7808  0.4398 -0.9081
19121TIP3   OH278777   1.056   4.334   3.854  0.4390  0.8014  0.1567
19121TIP3    H178778   0.998   4.311   3.927 -2.1724  0.4724 -1.9320
19121TIP3    H278779   1.076   4.250   3.812  0.0110  1.2022 -0.8683
19122TIP3   OH278780   4.799   5.327   6.107 -0.3225 -0.9368 -0.3887
19122TIP3    H178781   4.812   5.364   6.194  0.8582  1.5022 -1.5527
19122TIP3    H278782   4.754   5.396   6.058 -0.1343 -1.9229 -1.9874
19123TIP3   OH278783   4.340   3.491   6.742  0.2486  0.5172  0.2724
19123TIP3    H178784   4.268   3.549   6.766 -1.7633 -1.1157 -1.5652
19123TIP3    H278785   4.298   3.406   6.727  2.3400 -0.1486 -2.1254
19124TIP3   OH278786   0.678   2.907  16.559  0.4555  0.1260  0.2312
19124TIP3    H178787   0.765   2.936  16.531  0.0391 -0.9490 -2.3220
19124TIP3    H278788   0.618   2.975  16.528  0.0252 -0.9245 -1.3414
19125TIP3   OH278789   2.073   3.800   0.100  0.0275  0.2643  0.0680
19125TIP3    H178790   2.102   3.889   0.080  0.0071 -0.3414 -2.8739
19125TIP3    H278791   1.991   3.812   0.149  1.2862  1.8465  1.8880
19126TIP3   OH278792   2.806   2.814  13.627  0.0410  0.2566 -0.3616
19126TIP3    H178793   2.762   2.764  13.695  0.0620 -2.1022 -1.9959
19126TIP3    H278794   2.771   2.778  13.545  1.3544  1.7531 -1.6080
19127TIP3   OH278795   4.389   4.454  10.883  0.0075 -0.3481 -0.0938
19127TIP3    H178796   4.344   4.371  10.904  3.0170 -2.1010 -0.3615
19127TIP3    H278797   4.345   4.485  10.804 -0.1967 -2.4939 -0.8760
19128TIP3   OH278798   1.924   0.261   0.339  1.1642  0.1989 -0.0380
19128TIP3    H178799   1.893   0.313   0.264  1.7333  0.2372 -0.2477
19128TIP3    H278800   1.844   0.229   0.380  0.7296  2.1953  0.7677
19129TIP3   OH278801   0.070   3.517  14.601 -0.9293  0.4061  0.1384
19129TIP3    H178802   0.146   3.551  14.554  0.1496  0.3849  1.8230
19129TIP3    H278803   0.072   3.563  14.685 -2.3672 -0.1301  0.4667
19130TIP3   OH278804   1.454   3.821   0.538 -0.2995  0.0126  0.2338
19130TIP3    H178805   1.524   3.885   0.553  0.8175 -1.4454  1.3829
19130TIP3    H278806   1.385   3.845   0.600  0.9075 -1.0053  2.0359
19131TIP3   OH278807   6.785   5.176  12.674  0.9731 -0.2021  0.0007
19131TIP3    H178808   6.812   5.153  12.763  0.4832  0.6908  0.3883
19131TIP3    H278809   6.855   5.142  12.618  1.6517 -0.1180  0.7880
19132TIP3   OH278810   6.457   2.159  11.666 -0.2228 -0.2182 -0.0182
19132TIP3    H178811   6.406   2.077  11.663  1.3297 -1.2159  0.0328
19132TIP3    H278812   6.411   2.218  11.607 -0.4047 -1.7200 -1.4280
19133TIP3   OH278813   4.337   3.069   2.308  0.0733  0.0863 -0.0355
19133TIP3    H178814   4.426   3.090   2.278  0.1249  0.5075  0.3997
19133TIP3    H278815   4.308   3.149   2.353 -0.5729 -0.0049 -0.2897
19134TIP3   OH278816   6.294   4.717  15.315  0.2902 -0.4175  0.1356
19134TIP3    H178817   6.313   4.701  15.222  1.5755  0.7102  0.1915
19134TIP3    H278818   6.375   4.692  15.360  0.6639  1.6862  0.6763
19135TIP3   OH278819   5.619   6.102  16.475  0.4337 -0.0688 -0.0120
19135TIP3    H178820   5.672   6.182  16.467  0.3989 -0.0572 -0.1318
19135TIP3    H278821   5.576   6.094  16.389 -2.0415  1.5362  1.0083
19136TIP3   OH278822   0.171   2.636   2.908  0.2084 -0.0482  0.0097
19136TIP3    H178823   0.148   2.709   2.967 -0.6851 -0.4241  0.1275
19136TIP3    H278824   0.145   2.666   2.821 -1.9652 -0.9805  0.3081
19137TIP3   OH278825   6.422   2.492   1.015  0.5541 -0.0066  0.1986
19137TIP3    H178826   6.428   2.419   1.077 -1.2241 -1.0338 -0.8087
19137TIP3    H278827   6.473   2.462   0.939  0.9135  0.3558  0.2937
19138TIP3   OH278828   2.253   6.588  13.299 -0.2773  0.2472 -1.0004
19138TIP3    H178829   2.173   6.537  13.298 -0.4931  0.5910 -1.3446
19138TIP3    H278830   2.266   6.612  13.391 -0.3473 -0.1551 -0.8872
19139TIP3   OH278831   5.696   3.225   1.094  0.2803 -0.4166 -0.1613
19139TIP3    H178832   5.691   3.292   1.162  0.4724 -0.0619 -0.4916
19139TIP3    H278833   5.751   3.156   1.132  1.5965  0.4237 -0.4862
19140TIP3   OH278834   3.145   1.466  12.261 -0.2521  0.2892 -0.4674
19140TIP3    H178835   3.091   1.524  12.316 -0.6283  0.0137 -0.5413
19140TIP3    H278836   3.180   1.524  12.193 -1.5766  0.2404 -1.2354
19141TIP3   OH278837   4.882   5.024  16.467 -0.0960  0.4321  0.2456
19141TIP3    H178838   4.936   4.967  16.522 -0.2675  2.1715  2.2721
19141TIP3    H278839   4.940   5.050  16.395  0.2916 -1.4416 -0.1477
19142TIP3   OH278840   1.631   1.727  13.902 -0.2141 -0.1349 -0.1162
19142TIP3    H178841   1.572   1.701  13.831 -1.0386 -0.5033  0.6950
19142TIP3    H278842   1.654   1.645  13.946  0.5424  0.0562 -0.1494
19143TIP3   OH278843   5.167   4.835   1.326 -0.2908 -0.3437 -0.2438
19143TIP3    H178844   5.151   4.853   1.418 -0.5790  1.4737 -0.6127
19143TIP3    H278845   5.081   4.849   1.284  0.2399  0.6860 -1.0168
19144TIP3   OH278846   1.714   4.564   3.418 -0.1993  0.7018  0.3560
19144TIP3    H178847   1.628   4.589   3.383 -0.9725 -1.6114  0.5254
19144TIP3    H278848   1.730   4.478   3.380  1.8563  0.9209  0.7002
19145TIP3   OH278849   0.157   0.597   0.705  0.5351 -0.0942  0.3262
19145TIP3    H178850   0.061   0.590   0.703  0.6477 -1.7209 -1.3079
19145TIP3    H278851   0.186   0.508   0.722  1.7936  0.0767 -0.9051
19146TIP3   OH278852   2.745   6.117   1.456  0.4657 -0.6022 -0.3866
19146TIP3    H178853   2.675   6.059   1.484  0.1917 -0.1378 -0.1031
19146TIP3    H278854   2.743   6.189   1.519  0.1342  0.2215 -1.3211
19147TIP3   OH278855   5.620   5.624  16.648 -0.2453  0.4816 -0.4611
19147TIP3    H178856   5.700   5.675  16.660  1.2489 -1.4227 -2.0144
19147TIP3    H278857   5.615   5.609  16.553 -1.3358 -1.1487 -0.1617
19148TIP3   OH278858   1.139   0.080  12.419 -0.0754  0.1082 -0.4513
19148TIP3    H178859   1.187   0.132  12.483  1.1846 -1.7394  0.1802
19148TIP3    H278860   1.140   0.132  12.339 -0.4721  1.8398  0.6523
19149TIP3   OH278861   0.125   5.939  13.316 -0.2581  0.0538 -0.3963
19149TIP3    H178862   0.044   5.889  13.325 -0.1441 -0.2015 -0.7846
19149TIP3    H278863   0.190   5.887  13.364 -0.0794 -0.3147 -1.0283
19150TIP3   OH278864   1.441   5.804  14.772  0.4016  0.1796 -0.1717
19150TIP3    H178865   1.485   5.725  14.741  1.2918  0.2735  0.8182
19150TIP3    H278866   1.510   5.856  14.812 -0.3506  1.0066  0.0795
19151TIP3   OH278867   5.244   1.618  12.239 -0.3329  0.5760  0.0332
19151TIP3    H178868   5.159   1.581  12.264  1.0375 -1.1356  2.3808
19151TIP3    H278869   5.266   1.574  12.157 -1.1661  0.1298  0.0473
19152TIP3   OH278870   5.111   0.857   5.249  0.2300 -0.0184  0.6915
19152TIP3    H178871   5.059   0.793   5.298 -1.0928  0.6601  0.1872
19152TIP3    H278872   5.082   0.847   5.158  1.1632  0.1981  0.3605
19153TIP3   OH278873   5.985   1.589  16.110  0.7495 -0.6397 -0.1501
19153TIP3    H178874   5.951   1.632  16.188  3.0953 -0.1146  0.6271
19153TIP3    H278875   6.074   1.624  16.100  1.0955 -1.9679 -2.0769
19154TIP3   OH278876   6.238   1.501   3.530 -0.1392  0.0167  0.1967
19154TIP3    H178877   6.314   1.514   3.587  0.7780 -0.5438 -0.8743
19154TIP3    H278878   6.189   1.429   3.571  1.4899 -1.6461 -0.6741
19155TIP3   OH278879   1.000   2.905  15.828 -0.1215  0.0642  0.5845
19155TIP3    H178880   1.021   2.903  15.734  1.6773 -1.1294  0.9903
19155TIP3    H278881   0.951   2.986  15.840 -0.8546 -0.0430 -1.4911
19156TIP3   OH278882   3.084   4.039   0.277 -0.7757  0.3286 -0.3096
19156TIP3    H178883   3.172   4.026   0.313 -0.2349  1.7274 -1.0829
19156TIP3    H278884   3.054   3.951   0.256  0.2781 -0.2033  0.3481
19157TIP3   OH278885   5.449   5.165  17.102  0.3157 -0.3780 -0.3730
19157TIP3    H178886   5.402   5.186  17.021 -0.8009 -2.5069 -0.2949
19157TIP3    H278887   5.448   5.247  17.152 -1.6714  0.1261 -1.1806
19158TIP3   OH278888   1.029   3.002  13.213  0.2176  0.3073  0.5959
19158TIP3    H178889   1.023   2.910  13.238 -3.6896  0.5006  0.5965
19158TIP3    H278890   1.070   3.001  13.127  0.8750 -1.3774  0.9135
19159TIP3   OH278891   3.311   4.280   1.955 -0.0389  0.1085  0.1408
19159TIP3    H178892   3.394   4.320   1.928  0.4583  0.1584  1.6783
19159TIP3    H278893   3.244   4.336   1.917  0.6465  0.5710 -0.3979
19160TIP3   OH278894   2.604   0.504   4.272 -0.3447  0.1231  0.0689
19160TIP3    H178895   2.565   0.425   4.233  0.9503 -0.7425  0.5147
19160TIP3    H278896   2.667   0.534   4.206 -1.1343  1.0457 -0.2838
19161TIP3   OH278897   5.661   6.313  14.494 -0.4267 -0.3691 -0.3370
19161TIP3    H178898   5.726   6.289  14.428 -0.8951  0.4322 -1.0980
19161TIP3    H278899   5.581   6.271  14.464 -0.8006  0.5609 -0.6550
19162TIP3   OH278900   6.285   3.828   5.268 -0.3831  0.0489 -0.6420
19162TIP3    H178901   6.344   3.765   5.308  0.4132  0.4050 -1.2409
19162TIP3    H278902   6.228   3.856   5.339  0.0007 -0.4893 -0.1163
19163TIP3   OH278903   3.312   0.883   1.774 -0.1228  0.5313  0.2708
19163TIP3    H178904   3.243   0.868   1.838  0.7810  1.4394  1.4837
19163TIP3    H278905   3.281   0.958   1.722 -1.6106 -1.2546 -1.4578
19164TIP3   OH278906   5.247   4.875  11.233  0.0020  0.4443  0.3428
19164TIP3    H178907   5.269   4.849  11.322  0.7962 -1.6721 -0.4155
19164TIP3    H278908   5.301   4.952  11.216 -2.5553  2.8413  2.7563
19165TIP3   OH278909   5.483   0.037   2.959 -0.4691 -0.4003  0.4890
19165TIP3    H178910   5.566   0.056   3.003  0.4372 -1.8558 -0.5588
19165TIP3    H278911   5.416   0.064   3.022  0.7541  2.4951  0.6357
19166TIP3   OH278912   1.396   1.457   4.672 -0.2364 -0.3386  0.0531
19166TIP3    H178913   1.391   1.552   4.674 -2.3354 -0.4213  0.2411
19166TIP3    H278914   1.426   1.436   4.584  2.1981  0.5302  0.6258
19167TIP3   OH278915   4.216   5.483   6.485  0.0439  0.0238 -0.4335
19167TIP3    H178916   4.185   5.393   6.489 -0.4127  0.1796 -0.4529
19167TIP3    H278917   4.143   5.533   6.448  0.4419  0.3355 -0.8131
19168TIP3   OH278918   0.946   6.455   0.777  0.1756 -0.6190 -0.3359
19168TIP3    H178919   1.031   6.497   0.791  0.1508 -0.9303  0.7935
19168TIP3    H278920   0.948   6.428   0.685  1.1509 -0.2966 -0.4183
19169TIP3   OH278921   0.936   4.929  16.263 -0.2033 -0.1468 -0.2851
19169TIP3    H178922   1.010   4.977  16.300 -0.7106  1.2413 -1.0036
19169TIP3    H278923   0.972   4.845  16.236  0.9668  0.2731 -0.0518
19170TIP3   OH278924   2.209   2.587  15.195 -0.0591 -0.1023  0.0995
19170TIP3    H178925   2.170   2.588  15.282 -1.3141  0.9711 -0.4619
19170TIP3    H278926   2.218   2.494  15.174 -2.1421 -0.3774  0.3159
19171TIP3   OH278927   6.268   2.560   2.786 -0.1578  0.4360 -0.0271
19171TIP3    H178928   6.212   2.573   2.709 -2.0156  0.3860  1.2827
19171TIP3    H278929   6.325   2.637   2.787  1.3706 -0.5967 -2.6453
19172TIP3   OH278930   0.473   0.261   5.976 -0.6291 -0.1599  0.3679
19172TIP3    H178931   0.429   0.247   6.060 -0.4149  0.2516  0.5461
19172TIP3    H278932   0.541   0.325   5.994 -0.3492 -0.3393 -0.0440
19173TIP3   OH278933   0.806   5.190   5.747  0.6175 -0.0034 -0.1375
19173TIP3    H178934   0.876   5.142   5.702  0.4223  0.1388 -0.5995
19173TIP3    H278935   0.851   5.253   5.803  0.8734 -0.5648  0.2948
19174TIP3   OH278936   2.761   1.538  16.581 -0.4789  0.4689 -0.0041
19174TIP3    H178937   2.755   1.492  16.664 -3.5156 -0.3059 -0.6132
19174TIP3    H278938   2.818   1.483  16.527 -1.2743 -0.8061  0.4396
19175TIP3   OH278939   1.905   2.860   3.235  0.1676  0.1380  0.3070
19175TIP3    H178940   1.819   2.852   3.277  0.1488 -1.8420 -0.0442
19175TIP3    H278941   1.917   2.954   3.221 -2.1134  0.4120  0.0086
19176TIP3   OH278942   3.527   0.275   4.760 -0.4651  0.7113 -0.0901
19176TIP3    H178943   3.600   0.273   4.698  0.5660 -0.2936  1.1159
19176TIP3    H278944   3.560   0.327   4.834 -0.8882  0.1081  0.5343
19177TIP3   OH278945   1.242   5.894   3.147 -0.0035  0.0692  0.7864
19177TIP3    H178946   1.301   5.945   3.202  0.6256 -0.2740  0.4497
19177TIP3    H278947   1.214   5.821   3.203 -1.6248  1.2523  1.5633
19178TIP3   OH278948   2.005   1.367   4.707  0.5170  0.0754  0.1020
19178TIP3    H178949   1.933   1.429   4.706 -0.4394 -0.9376  2.3483
19178TIP3    H278950   2.083   1.421   4.695 -0.3858  1.5350  0.6360
19179TIP3   OH278951   3.920   2.253   0.879 -0.2373  0.3297 -0.1137
19179TIP3    H178952   3.845   2.308   0.903  1.0358  1.7240  0.7243
19179TIP3    H278953   3.944   2.283   0.791 -0.3690  0.2067 -0.1914
19180TIP3   OH278954   5.913   1.873   2.073  0.1627 -0.3350 -0.7003
19180TIP3    H178955   5.943   1.795   2.119  2.4195  1.7544  1.5263
19180TIP3    H278956   5.974   1.883   2.000  0.3277 -0.2470 -0.5512
19181TIP3   OH278957   0.511   3.465   3.607 -0.4973 -0.2903 -0.0009
19181TIP3    H178958   0.530   3.556   3.582  0.4615 -0.1135  1.3022
19181TIP3    H278959   0.595   3.420   3.597 -0.6331 -0.7078  0.7409
19182TIP3   OH278960   5.223   6.456  12.615  0.3961 -0.2450  0.3046
19182TIP3    H178961   5.163   6.393  12.655 -0.8314 -0.3073 -1.5729
19182TIP3    H278962   5.193   6.541  12.646 -0.3205 -0.3181 -0.1823
19183TIP3   OH278963   4.386   1.463   6.343  0.2558 -0.2725  0.5972
19183TIP3    H178964   4.464   1.503   6.381 -0.0591 -0.0884  1.0479
19183TIP3    H278965   4.381   1.377   6.384 -1.6873  1.0057  3.1298
19184TIP3   OH278966   4.021   6.529   6.084  0.5436  0.1785 -0.0458
19184TIP3    H178967   4.098   6.534   6.026  0.2067 -0.0017 -0.5169
19184TIP3    H278968   3.947   6.521   6.024  0.1891 -0.0244  0.4173
19185TIP3   OH278969   4.766   0.801   4.667  0.1894  1.4096 -0.3149
19185TIP3    H178970   4.681   0.785   4.627  0.1739  2.4832 -0.7474
19185TIP3    H278971   4.820   0.837   4.596  0.9563  0.8752 -0.0098
19186TIP3   OH278972   6.440   1.179  14.956 -0.1473 -0.2886 -0.7332
19186TIP3    H178973   6.511   1.237  14.929  0.1912  0.1545  1.0494
19186TIP3    H278974   6.362   1.218  14.917  0.5028 -0.4884 -2.2711
19187TIP3   OH278975   6.696   1.934  11.569  0.2232 -0.7041 -0.0173
19187TIP3    H178976   6.702   1.894  11.482 -2.6078 -0.4823 -0.3683
19187TIP3    H278977   6.631   2.004  11.558  0.7623  0.1423  1.9977
19188TIP3   OH278978   3.558   1.591   2.412  0.1801 -0.5649 -0.1559
19188TIP3    H178979   3.547   1.651   2.338 -0.2047  1.0603  1.1859
19188TIP3    H278980   3.597   1.512   2.374 -0.4634  0.0609 -2.1614
19189TIP3   OH278981   0.633   4.363   4.707  0.1315 -0.1699 -0.4890
19189TIP3    H178982   0.683   4.388   4.630  0.1893  0.0243 -0.3878
19189TIP3    H278983   0.699   4.328   4.768  0.0082 -0.9250 -0.7745
19190TIP3   OH278984   3.648   2.146  12.499  0.1406  0.4681 -0.0239
19190TIP3    H178985   3.700   2.195  12.436  1.0406  0.2435  0.5351
19190TIP3    H278986   3.637   2.060  12.460  1.5618  0.0010  0.5574
19191TIP3   OH278987   1.588   0.003  11.955 -0.1672 -0.2623  0.0479
19191TIP3    H178988   1.580  -0.049  12.036 -1.3140  1.2116  0.9007
19191TIP3    H278989   1.497   0.026  11.932  0.2477  0.4191 -0.9400
19192TIP3   OH278990   4.914   1.678   5.685 -0.0737 -0.7784 -0.0965
19192TIP3    H178991   4.938   1.587   5.667 -1.5719 -1.1243 -0.3664
19192TIP3    H278992   4.962   1.700   5.765 -0.6270 -2.1963  0.6434
19193TIP3   OH278993   2.452   2.870  12.069 -0.6404  0.2879  0.1097
19193TIP3    H178994   2.415   2.781  12.076 -0.5309  0.2212 -0.1486
19193TIP3    H278995   2.413   2.906  11.990  0.6472 -0.1637 -0.7395
19194TIP3   OH278996   1.278   4.843  13.000  0.2532  0.3250 -0.0443
19194TIP3    H178997   1.190   4.825  13.033 -0.0435 -1.0008 -1.4997
19194TIP3    H278998   1.336   4.808  13.068 -0.3437 -0.3187  0.1447
19195TIP3   OH278999   5.195   2.059   5.906  0.5633  0.1670 -0.3159
19195TIP3    H179000   5.205   1.970   5.871 -0.1605 -0.6651  1.5291
19195TIP3    H279001   5.139   2.104   5.843 -0.2874 -1.1393 -0.5103
19196TIP3   OH279002   4.981   3.373  15.290 -0.3016 -0.4913 -0.2229
19196TIP3    H179003   5.046   3.317  15.247 -0.0311 -1.0059  0.8293
19196TIP3    H279004   5.031   3.424  15.354 -0.5636  0.9112 -1.1384
19197TIP3   OH279005   6.641   3.960  13.507 -0.4350  0.1008 -0.0590
19197TIP3    H179006   6.620   3.868  13.520 -3.2255  0.5676 -0.8273
19197TIP3    H279007   6.664   3.967  13.414 -1.3883  0.3607 -0.2820
19198TIP3   OH279008   3.282   2.742   2.734 -0.2281  0.7092 -0.1577
19198TIP3    H179009   3.317   2.674   2.675  0.5211 -0.9486  2.1371
19198TIP3    H279010   3.191   2.752   2.708 -0.4544 -1.4922 -0.2745
19199TIP3   OH279011   5.245   4.572   0.408 -0.5066 -0.0018  0.3880
19199TIP3    H179012   5.283   4.512   0.344 -0.0451  0.7405 -0.0382
19199TIP3    H279013   5.293   4.554   0.489 -1.2519 -1.1069  0.6011
19200TIP3   OH279014   5.663   6.327  10.685 -0.0535  0.2179  0.5695
19200TIP3    H179015   5.756   6.346  10.696  0.3147 -0.4067 -1.4035
19200TIP3    H279016   5.660   6.253  10.625 -1.7719 -0.9107  1.9705
19201TIP3   OH279017   1.115   1.763   2.967  0.4968  0.2387 -0.6263
19201TIP3    H179018   1.080   1.674   2.960  2.4630 -0.5798 -0.3478
19201TIP3    H279019   1.114   1.782   3.061 -1.2182  1.0880 -0.7781
19202TIP3   OH279020   6.150   1.336  14.111 -0.1813 -0.1536  0.5709
19202TIP3    H179021   6.220   1.379  14.062 -1.1425  0.9429  0.1434
19202TIP3    H279022   6.081   1.402  14.118 -1.0693 -1.1294  1.2299
19203TIP3   OH279023   1.155   2.482  13.702 -0.4273 -0.1572 -0.5202
19203TIP3    H179024   1.210   2.478  13.624  1.3476  1.6308  0.5806
19203TIP3    H279025   1.207   2.439  13.770 -2.1066 -2.0170 -0.3789
19204TIP3   OH279026   4.776   3.437   3.870 -0.3443 -0.1372 -0.4318
19204TIP3    H179027   4.798   3.369   3.933 -3.0717  0.0240  0.7607
19204TIP3    H279028   4.795   3.519   3.915 -2.4015 -0.0199  0.2731
19205TIP3   OH279029   1.477   1.504  15.310  0.2257 -0.0352 -0.2642
19205TIP3    H179030   1.448   1.461  15.229 -0.7466  1.2019 -0.5984
19205TIP3    H279031   1.548   1.562  15.282  0.3788 -0.1479 -0.1057
19206TIP3   OH279032   0.384   1.446   5.199  0.0296  0.1047 -0.5207
19206TIP3    H179033   0.362   1.539   5.203 -1.8438 -0.3388  0.8004
19206TIP3    H279034   0.454   1.435   5.263 -0.5613  0.4295  0.1975
19207TIP3   OH279035   1.719   5.467   3.067 -0.4835  0.4630 -0.1187
19207TIP3    H179036   1.628   5.496   3.064 -0.1392  1.5656 -0.2929
19207TIP3    H279037   1.769   5.542   3.034  0.4528 -0.2714 -0.3912
19208TIP3   OH279038   5.443   0.636  14.201  0.0318  0.6111  0.3380
19208TIP3    H179039   5.361   0.592  14.179  0.6663  0.1608 -1.1888
19208TIP3    H279040   5.426   0.728  14.183 -0.0062  0.4618 -0.4270
19209TIP3   OH279041   0.801   0.366   5.032  0.6913  0.1033  0.2640
19209TIP3    H179042   0.866   0.420   5.077  0.7407  0.6568 -0.4747
19209TIP3    H279043   0.719   0.412   5.044  0.6647  0.1261 -0.0163
19210TIP3   OH279044   4.537   5.158  10.612 -0.0034  0.7644 -0.0187
19210TIP3    H179045   4.452   5.114  10.608 -0.5068  1.7431 -0.3937
19210TIP3    H279046   4.582   5.132  10.532 -0.8083  1.9277 -0.8667
19211TIP3   OH279047   3.409   6.236   1.233 -0.9043 -0.4614  0.3610
19211TIP3    H179048   3.363   6.156   1.259  0.8297 -0.9912  1.8718
19211TIP3    H279049   3.362   6.306   1.277 -1.6361 -0.7701  0.0814
19212TIP3   OH279050   3.045   1.310   1.429  0.2950 -0.1315 -0.5876
19212TIP3    H179051   3.018   1.394   1.390  0.1365 -0.9189 -2.2236
19212TIP3    H279052   3.140   1.309   1.417  0.1454 -0.7760 -1.8093
19213TIP3   OH279053   2.066   4.666   2.785 -0.0885 -0.2441  0.1994
19213TIP3    H179054   2.001   4.596   2.774 -1.0278  0.4619  1.0741
19213TIP3    H279055   2.062   4.687   2.879  1.4237 -0.1985  0.2650
19214TIP3   OH279056   3.325   4.939  11.210 -0.6279 -0.3548 -0.2322
19214TIP3    H179057   3.252   4.924  11.149 -0.7691  0.5563 -0.2906
19214TIP3    H279058   3.321   5.033  11.229  0.9137 -0.1776 -0.7158
19215TIP3   OH279059   2.369   6.483   4.473  0.4320  0.0723  0.5347
19215TIP3    H179060   2.315   6.504   4.549 -2.4853  0.1910 -1.4887
19215TIP3    H279061   2.335   6.399   4.442  0.1040  1.0932 -1.9198
19216TIP3   OH279062   3.806   5.962   2.225  0.0640 -0.2894  0.2948
19216TIP3    H179063   3.830   6.054   2.213 -0.2767 -0.3225 -0.6669
19216TIP3    H279064   3.880   5.913   2.189 -0.0312 -0.3912  0.2381
19217TIP3   OH279065   5.975   0.728  11.987  0.0004 -0.7433  0.6400
19217TIP3    H179066   5.950   0.793  11.921  1.3199 -1.2778 -0.4075
19217TIP3    H279067   5.939   0.762  12.069 -0.5624  0.5761 -0.1368
19218TIP3   OH279068   2.097   0.265   4.575  0.1050  0.2583  0.5099
19218TIP3    H179069   2.166   0.276   4.509  0.3893  0.0611  0.7705
19218TIP3    H279070   2.140   0.287   4.658 -0.9437  3.0803  0.3561
19219TIP3   OH279071   4.033   1.112   5.223 -0.1651  0.1224  0.4390
19219TIP3    H179072   4.075   1.136   5.305 -0.0816 -1.6169  0.9171
19219TIP3    H279073   4.024   1.017   5.227 -1.2403  0.1396 -1.0469
19220TIP3   OH279074   2.545   5.569   3.896  0.1750  0.2979  0.1257
19220TIP3    H179075   2.469   5.627   3.904 -0.4359 -0.7049  1.8320
19220TIP3    H279076   2.509   5.487   3.863  0.1711 -0.7685  2.6168
19221TIP3   OH279077   3.897   0.942  14.304  0.3458  0.4695 -0.1924
19221TIP3    H179078   3.906   0.964  14.397  0.0966  0.4438 -0.1628
19221TIP3    H279079   3.986   0.922  14.275  0.6054  1.7068 -0.2664
19222TIP3   OH279080   6.178   1.611  12.883 -0.1911 -0.0299  0.6710
19222TIP3    H179081   6.167   1.566  12.967 -0.1503  0.1799  0.7882
19222TIP3    H279082   6.264   1.653  12.889 -0.9961  1.5809  1.2728
19223TIP3   OH279083   1.647   5.224   1.743 -0.5565 -0.6227 -0.0078
19223TIP3    H179084   1.634   5.193   1.653 -0.7055 -0.9382  0.1235
19223TIP3    H279085   1.726   5.179   1.773 -0.3430 -0.2994 -0.0779
19224TIP3   OH279086   3.878   0.894  15.988 -1.1554  0.0482  0.5155
19224TIP3    H179087   3.789   0.920  16.014 -1.0862  0.8329 -0.0200
19224TIP3    H279088   3.884   0.917  15.896  0.1173  1.4010  0.9136
19225TIP3   OH279089   0.385   4.412   3.325  0.1893  0.4179 -0.1778
19225TIP3    H179090   0.394   4.324   3.362 -0.1386  0.7146  0.6104
19225TIP3    H279091   0.329   4.459   3.387  1.9542  1.7637  0.4245
19226TIP3   OH279092   5.647   4.782  16.469  0.1940  0.6584  0.1654
19226TIP3    H179093   5.699   4.742  16.539 -0.7993 -0.7917  0.0908
19226TIP3    H279094   5.668   4.731  16.391 -1.0536  0.3186  0.0563
19227TIP3   OH279095   1.428   1.735  12.722  0.0294 -0.1624  0.4593
19227TIP3    H179096   1.427   1.830  12.710 -0.5029 -0.6085 -3.7200
19227TIP3    H279097   1.520   1.714  12.741  0.3121  1.0956  0.5175
19228TIP3   OH279098   2.640   2.914   5.013  0.5480  0.0301  0.9495
19228TIP3    H179099   2.709   2.969   4.976  0.8523 -1.3766 -0.5951
19228TIP3    H279100   2.667   2.824   4.995 -2.4937 -0.5230 -1.2390
19229TIP3   OH279101   5.563   6.182   3.404  0.6301 -0.1398 -0.6693
19229TIP3    H179102   5.552   6.267   3.363  0.1238  0.2090  0.1886
19229TIP3    H279103   5.512   6.122   3.349 -2.5049  0.8104  1.0857
19230TIP3   OH279104   0.750   0.709   0.697  0.1040  0.5220  0.3962
19230TIP3    H179105   0.775   0.715   0.789 -1.8136 -1.5841  1.0805
19230TIP3    H279106   0.826   0.668   0.655  0.1618 -0.4355  1.4152
19231TIP3   OH279107   0.725   4.995   5.197  0.2681 -1.3303  0.1306
19231TIP3    H179108   0.773   4.944   5.261  0.8342 -1.1763 -0.1710
19231TIP3    H279109   0.710   5.080   5.239 -1.8999 -2.2026  1.1764
19232TIP3   OH279110   6.235   6.339  15.223 -0.2263  0.3463 -0.2167
19232TIP3    H179111   6.253   6.276  15.293 -1.5426 -0.3984 -0.5275
19232TIP3    H279112   6.149   6.375  15.245 -0.8606 -0.2440 -1.6888
19233TIP3   OH279113   5.058   2.325  14.186 -0.3345 -0.3668  0.3827
19233TIP3    H179114   5.133   2.276  14.218  0.9903  0.6392 -1.0685
19233TIP3    H279115   5.027   2.375  14.261  0.9811 -0.1452  0.7821
19234TIP3   OH279116   6.082   4.699  13.321  0.1127  0.0087 -0.4913
19234TIP3    H179117   6.132   4.710  13.402  0.5138  0.7239 -0.8338
19234TIP3    H279118   6.118   4.620  13.281 -0.7115 -0.8808  0.4767
19235TIP3   OH279119   0.602   5.434   0.845  0.0864 -0.1592 -0.0921
19235TIP3    H179120   0.559   5.350   0.860 -3.0791  1.2058 -0.9117
19235TIP3    H279121   0.562   5.467   0.764  1.8030  1.8001 -0.1836
19236TIP3   OH279122   2.072   4.879   1.651 -0.2920  0.1681  0.5014
19236TIP3    H179123   1.991   4.881   1.599  1.1721 -0.3994 -1.8589
19236TIP3    H279124   2.102   4.970   1.652 -0.3423  0.1862  0.3629
19237TIP3   OH279125   6.768   3.329   4.704 -0.2836 -0.2031 -0.2376
19237TIP3    H179126   6.696   3.383   4.672 -2.0748 -1.4907  1.4559
19237TIP3    H279127   6.742   3.305   4.793  1.2179 -2.5149 -0.3674
19238TIP3   OH279128   3.860   2.002   0.323  0.1448  0.2514 -0.5070
19238TIP3    H179129   3.913   1.925   0.301 -0.5005 -0.1064 -0.8429
19238TIP3    H279130   3.831   1.986   0.412  1.0593  0.7180 -0.1168
19239TIP3   OH279131   3.672   5.433  14.556 -0.3522  0.5203  0.0087
19239TIP3    H179132   3.722   5.511  14.533  0.6798 -0.1971 -0.1934
19239TIP3    H279133   3.638   5.401  14.472  0.5941 -0.1737 -0.1178
19240TIP3   OH279134   3.928   4.591   1.076  0.0020 -0.6241 -0.3233
19240TIP3    H179135   3.929   4.598   1.171  0.3035 -1.7494 -0.2322
19240TIP3    H279136   3.883   4.670   1.046  0.0264 -0.2016  0.7433
19241TIP3   OH279137   2.734   5.992   5.680  0.5505  0.6222  0.3747
19241TIP3    H179138   2.770   6.077   5.654  0.4990  0.1910 -1.1344
19241TIP3    H279139   2.786   5.966   5.756  0.7055  1.9023  0.7221
19242TIP3   OH279140   0.932   5.488   0.405 -0.5204  0.1741 -0.0530
19242TIP3    H179141   0.896   5.551   0.468 -0.2792 -0.0594  0.3228
19242TIP3    H279142   1.026   5.507   0.405  0.2195 -3.0171  3.2998
19243TIP3   OH279143   6.742   6.242   0.618 -0.4127  0.0030  0.1197
19243TIP3    H179144   6.795   6.268   0.542 -0.4710  1.5560  0.6045
19243TIP3    H279145   6.701   6.160   0.591  1.4675 -0.7307 -0.6379
19244TIP3   OH279146   6.352   5.911  16.962  0.5696 -0.4248 -0.6488
19244TIP3    H179147   6.411   5.986  16.969 -0.0002  0.0033 -0.3303
19244TIP3    H279148   6.280   5.943  16.907  1.1678 -1.2902 -1.9686
19245TIP3   OH279149   3.779   1.913  17.204 -0.2258 -1.0588  0.0712
19245TIP3    H179150   3.713   1.975  17.172 -0.8437 -2.3121 -1.1263
19245TIP3    H279151   3.728   1.840  17.237  0.5404 -1.4120  0.4793
19246TIP3   OH279152   4.925   4.121  13.981 -0.7286  0.0992 -0.3844
19246TIP3    H179153   4.945   4.068  14.058  0.0418  0.2377 -0.4800
19246TIP3    H279154   4.834   4.102  13.961 -1.0787  0.4283  0.8444
19247TIP3   OH279155   1.659   1.466  16.475 -0.2042  0.4615  0.3122
19247TIP3    H179156   1.727   1.497  16.535  0.6770 -0.9596  0.0546
19247TIP3    H279157   1.624   1.387  16.517  0.4507 -0.5689 -1.0596
19248TIP3   OH279158   4.477   6.171  13.209  0.6311 -0.1549 -0.3031
19248TIP3    H179159   4.541   6.104  13.234  0.7437  0.2055  0.3880
19248TIP3    H279160   4.502   6.197  13.120  0.8265 -0.7428 -0.4203
19249TIP3   OH279161   3.706   5.864  10.404 -0.3202  0.3544  0.2320
19249TIP3    H179162   3.798   5.845  10.386 -0.8186 -1.2864 -0.6526
19249TIP3    H279163   3.702   5.875  10.499  1.0321  1.9061  0.1391
19250TIP3   OH279164   4.261   0.611  11.194  0.0328  0.3213  0.2962
19250TIP3    H179165   4.233   0.529  11.235  0.5080  0.2334  0.4365
19250TIP3    H279166   4.223   0.679  11.250 -0.7676  0.2045 -0.0917
19251TIP3   OH279167   4.279   0.839   0.896  0.0894 -0.2185  0.2989
19251TIP3    H179168   4.373   0.851   0.880 -0.4956  3.1744 -0.9823
19251TIP3    H279169   4.269   0.855   0.990  1.1050 -3.2834  1.0029
19252TIP3   OH279170   6.322   2.820  11.917  0.6360  0.0975  0.8143
19252TIP3    H179171   6.407   2.778  11.930 -0.3308 -1.2170  3.1342
19252TIP3    H279172   6.333   2.908  11.952  0.6770 -0.5212  2.4135
19253TIP3   OH279173   4.622   0.592  16.087  0.3275  0.3731 -0.3074
19253TIP3    H179174   4.666   0.559  16.165 -0.2297 -0.3454 -0.2885
19253TIP3    H279175   4.536   0.621  16.118  0.0506 -0.0409 -0.6712
19254TIP3   OH279176   2.888   5.810  14.133  0.7042  0.6039 -0.7994
19254TIP3    H179177   2.803   5.787  14.171  0.7283  1.1847 -0.3854
19254TIP3    H279178   2.890   5.906  14.137  0.2937  0.7475 -3.1112
19255TIP3   OH279179   6.569   4.116  13.712  0.1428  0.1712  0.1868
19255TIP3    H179180   6.591   4.083  13.799 -0.6544  0.1628  0.3830
19255TIP3    H279181   6.572   4.039  13.656 -0.9307 -0.1063  0.5017
19256TIP3   OH279182   1.258   0.064   2.258 -0.5477 -0.3631  0.3420
19256TIP3    H179183   1.222   0.147   2.289 -0.2090 -0.5274  1.1958
19256TIP3    H279184   1.342   0.088   2.218 -0.2819 -0.3197  0.9051
19257TIP3   OH279185   3.204   3.252  12.907  0.0278 -0.3371 -0.0175
19257TIP3    H179186   3.221   3.311  12.980  1.1317 -1.7395  0.8776
19257TIP3    H279187   3.117   3.278  12.876 -0.1077  0.8179  1.2635
19258TIP3   OH279188   3.743   2.735  17.018  0.5020 -0.7131 -0.7072
19258TIP3    H179189   3.710   2.673  17.083 -0.3755 -0.6680 -1.1065
19258TIP3    H279190   3.816   2.779  17.063 -2.0552  1.5702  1.4383
19259TIP3   OH279191   3.811   5.366   4.685  0.3011 -0.3564  0.1724
19259TIP3    H179192   3.843   5.451   4.715  0.1465  0.1830 -1.1284
19259TIP3    H279193   3.755   5.387   4.611  1.9701 -1.7168 -1.5441
19260TIP3   OH279194   4.931   5.002   6.140 -0.9605 -1.0392  0.9430
19260TIP3    H179195   4.971   5.074   6.189 -0.3454 -0.3306 -0.5611
19260TIP3    H279196   4.837   5.022   6.141 -0.6683  0.5549 -0.6296
19261TIP3   OH279197   0.723   5.074  16.499 -0.0612 -0.5608  0.2750
19261TIP3    H179198   0.652   5.137  16.506 -0.4465 -0.9851  0.1710
19261TIP3    H279199   0.685   4.998  16.454  0.7662 -0.3197 -0.8523
19262TIP3   OH279200   0.964   4.925   2.915 -0.1274 -0.2932 -0.3882
19262TIP3    H179201   1.034   4.866   2.943  0.6213  0.9565  0.4501
19262TIP3    H279202   1.005   4.983   2.850 -0.1619  0.9149  0.6354
19263TIP3   OH279203   0.400   2.409   4.756 -0.2788  1.2144 -0.0515
19263TIP3    H179204   0.451   2.384   4.679 -1.3358  1.5961 -0.8814
19263TIP3    H279205   0.341   2.477   4.725 -0.9143  1.1732  1.0388
19264TIP3   OH279206   4.648   2.742  14.636 -0.4110 -1.0262  0.0209
19264TIP3    H179207   4.700   2.820  14.617 -1.2836 -0.1741  1.0525
19264TIP3    H279208   4.561   2.762  14.602 -1.1766 -0.7088  2.0867
19265TIP3   OH279209   3.585   6.369   5.019  0.0915  0.1835  0.7150
19265TIP3    H179210   3.587   6.313   5.096 -2.5787 -0.2428  0.5112
19265TIP3    H279211   3.540   6.448   5.048  1.8141  1.3148  0.3868
19266TIP3   OH279212   6.268   0.073  13.837 -0.1420  0.2583 -0.3448
19266TIP3    H179213   6.197   0.136  13.843 -0.9178 -0.3526 -2.5299
19266TIP3    H279214   6.344   0.118  13.874 -0.9045  2.1138 -0.9965
19267TIP3   OH279215   5.321   0.364   4.807 -0.2223  0.2277  0.0712
19267TIP3    H179216   5.232   0.379   4.838 -0.2711  1.0929 -0.4692
19267TIP3    H279217   5.315   0.373   4.712  0.8414  2.4226  0.1913
19268TIP3   OH279218   3.004   4.299   2.839  0.2739  0.0369  0.4010
19268TIP3    H179219   3.037   4.232   2.898  1.5237 -0.2876 -0.6427
19268TIP3    H279220   2.938   4.255   2.786  0.1929 -0.0412  0.5675
19269TIP3   OH279221   3.533   0.780   4.853  0.4558  0.1285  0.3536
19269TIP3    H179222   3.482   0.861   4.840  1.2370  0.9933  2.4002
19269TIP3    H279223   3.605   0.806   4.911  1.1925 -1.8665  0.3733
19270TIP3   OH279224   6.515   2.866  16.470  0.1972 -0.5070 -0.3243
19270TIP3    H179225   6.540   2.796  16.409  0.4110 -0.4131 -0.3485
19270TIP3    H279226   6.422   2.880  16.454 -0.0941 -1.5112  0.4229
19271TIP3   OH279227   1.209   2.550  12.710  0.1575  0.3632 -0.6105
19271TIP3    H179228   1.149   2.623  12.698  1.2180  1.3537 -0.0118
19271TIP3    H279229   1.201   2.527  12.802 -0.4460 -0.5248 -0.8794
19272TIP3   OH279230   4.933   6.006  13.044  0.0531 -0.0711 -0.1693
19272TIP3    H179231   4.994   6.066  13.089  1.0350 -2.0388  1.2169
19272TIP3    H279232   4.915   6.048  12.960  1.2014  1.8695  0.5255
19273TIP3   OH279233   5.033   2.425  15.336 -0.4947 -0.1475 -0.0346
19273TIP3    H179234   5.093   2.410  15.263  0.1362 -0.9200  0.6406
19273TIP3    H279235   4.980   2.345  15.340 -1.1588  0.2781 -0.2373
19274TIP3   OH279236   5.898   5.490   2.722  0.3554 -0.3085 -0.3715
19274TIP3    H179237   5.859   5.559   2.668  0.3917 -0.1544 -0.1976
19274TIP3    H279238   5.869   5.408   2.680 -0.2506 -0.1985 -0.1759
19275TIP3   OH279239   1.898   4.795   4.573  0.0109 -0.1866  0.4778
19275TIP3    H179240   1.869   4.832   4.656 -0.9953 -1.9741  0.9476
19275TIP3    H279241   1.819   4.756   4.535  0.4814  0.4906 -1.2683
19276TIP3   OH279242   1.626   6.045  13.827 -0.2124  0.1350 -0.1364
19276TIP3    H179243   1.722   6.048  13.819 -0.1749  0.0581  0.3195
19276TIP3    H279244   1.609   5.967  13.879 -0.5141  0.2959  0.0023
19277TIP3   OH279245   0.385   3.451  15.210  0.0265 -0.5361 -0.1108
19277TIP3    H179246   0.405   3.481  15.122  2.3024  1.0404  0.8916
19277TIP3    H279247   0.305   3.497  15.233 -0.9578 -1.4722 -1.5817
19278TIP3   OH279248   2.252   5.491   1.864  0.4330 -0.0842  0.2465
19278TIP3    H179249   2.186   5.451   1.807  2.8781  0.1196 -2.8253
19278TIP3    H279250   2.291   5.417   1.910 -0.8696 -0.3530  0.9496
19279TIP3   OH279251   2.594   2.090   3.457 -0.3451 -0.1613  0.0712
19279TIP3    H179252   2.560   2.118   3.542 -0.5393 -0.9919  0.2754
19279TIP3    H279253   2.590   2.168   3.402 -0.5471  0.2914  0.7232
19280TIP3   OH279254   1.601   4.358   4.782  0.0685 -0.2282 -0.3400
19280TIP3    H179255   1.678   4.300   4.778  0.9701  1.0301 -2.1030
19280TIP3    H279256   1.638   4.446   4.784 -1.3303  0.3622 -0.1600
19281TIP3   OH279257   4.109   3.457  13.619  0.0335  0.2955  0.3808
19281TIP3    H179258   4.084   3.376  13.574  1.6396 -0.3463  0.6050
19281TIP3    H279259   4.149   3.510  13.550  0.5711  0.1794  0.6027
19282TIP3   OH279260   5.690   4.565   5.037  0.0189 -0.2349 -0.0920
19282TIP3    H179261   5.771   4.541   4.991  1.2573 -0.6026  2.1753
19282TIP3    H279262   5.715   4.640   5.091 -0.3246 -2.1682  2.8696
19283TIP3   OH279263   6.350   5.165  13.663 -0.2630 -0.0626  0.1110
19283TIP3    H179264   6.301   5.159  13.746 -1.9268  0.2345 -0.8171
19283TIP3    H279265   6.416   5.096  13.669 -1.0756 -0.7675  1.2301
19284TIP3   OH279266   3.229   0.333   4.783 -0.0573 -0.2572  0.1271
19284TIP3    H179267   3.324   0.337   4.769  0.2173  0.0956  1.9136
19284TIP3    H279268   3.208   0.240   4.779  0.7962 -0.5735  2.2158
19285TIP3   OH279269   6.045   0.928  13.335 -0.3816  0.3800  0.3350
19285TIP3    H179270   6.124   0.874  13.347  2.8136  4.5223 -0.7477
19285TIP3    H279271   6.024   0.959  13.423  0.9377  1.5179  0.2612
19286TIP3   OH279272   1.464   4.555  13.719  0.0048  0.2180 -0.3993
19286TIP3    H179273   1.544   4.541  13.770  0.8408  0.3182 -1.6800
19286TIP3    H279274   1.394   4.519  13.775  0.9066  0.2662  0.7896
19287TIP3   OH279275   5.203   0.170  16.146 -0.1113  0.3947  0.4417
19287TIP3    H179276   5.116   0.133  16.133 -0.0083 -0.1354  1.2291
19287TIP3    H279277   5.199   0.210  16.233  0.6123 -0.1464  0.7297
19288TIP3   OH279278   1.820   1.924  12.600 -0.7669  0.4701  0.1387
19288TIP3    H179279   1.824   1.990  12.669  1.7955  1.0943 -0.5374
19288TIP3    H279280   1.911   1.896  12.590 -1.2112 -0.1050 -2.5150
19289TIP3   OH279281   4.280   2.836  15.212  0.7003 -0.0991 -0.2334
19289TIP3    H179282   4.259   2.911  15.268 -0.1809  0.2286 -0.9870
19289TIP3    H279283   4.296   2.764  15.272  3.3358  1.1043  0.6039
19290TIP3   OH279284   3.569   5.467   5.250  0.4631 -0.2875  0.6622
19290TIP3    H179285   3.621   5.548   5.257  0.2816  0.1893 -2.7753
19290TIP3    H279286   3.487   5.495   5.210  1.4237 -2.5206 -3.0633
19291TIP3   OH279287   4.117   2.019   2.771  0.4066 -0.2628 -0.2713
19291TIP3    H179288   4.186   1.969   2.726  1.2639 -0.6026  1.3925
19291TIP3    H279289   4.037   1.994   2.726  1.0599 -1.8005 -0.6135
19292TIP3   OH279290   3.262   4.812   0.710 -0.0615  0.0334 -0.0878
19292TIP3    H179291   3.202   4.787   0.779  0.2065 -1.2641 -0.3092
19292TIP3    H279292   3.306   4.730   0.685 -0.8921  0.2542 -2.4848
19293TIP3   OH279293   1.997   4.383  16.025  0.0789  0.6756  0.1349
19293TIP3    H179294   2.025   4.378  15.933  1.0708 -1.3204  0.5222
19293TIP3    H279295   2.072   4.421  16.070  0.7105 -0.9939  0.5443
19294TIP3   OH279296   2.393   6.298  16.381 -0.4449 -0.1158  0.2743
19294TIP3    H179297   2.417   6.386  16.411  3.0544 -0.7834 -0.3406
19294TIP3    H279298   2.402   6.243  16.458  2.6523 -0.7985 -0.5097
19295TIP3   OH279299   2.288   6.220   3.564 -0.1658  0.2947 -0.0967
19295TIP3    H179300   2.375   6.222   3.604 -1.3894 -0.6036  2.7367
19295TIP3    H279301   2.251   6.306   3.583 -1.2637 -0.6028  1.9798
19296TIP3   OH279302   5.652   4.510  16.802 -0.0351  0.1931  0.1795
19296TIP3    H179303   5.587   4.575  16.830  0.6954  0.9878  0.0486
19296TIP3    H279304   5.609   4.425  16.817 -2.7657  0.7258 -3.7804
19297TIP3   OH279305   0.995   5.138  15.931 -0.0109  0.0790  0.4031
19297TIP3    H179306   0.978   5.148  15.838 -1.2842  2.3999  0.8670
19297TIP3    H279307   0.909   5.121  15.970  0.1965  1.3087  1.4242
19298TIP3   OH279308   5.989   4.867   1.945 -0.7905 -0.5156 -0.1161
19298TIP3    H179309   6.020   4.914   2.022  2.2014 -1.6380 -0.5783
19298TIP3    H279310   5.984   4.775   1.974 -2.4923 -0.5498 -0.4454
19299TIP3   OH279311   4.142   0.549   4.942  0.2452  0.4319  0.4891
19299TIP3    H179312   4.094   0.631   4.955 -0.3197  0.1157  0.4501
19299TIP3    H279313   4.077   0.490   4.904  0.9132  0.2699 -0.4226
19300TIP3   OH279314   1.302   0.147   0.801 -0.2749  0.3997  0.1026
19300TIP3    H179315   1.316   0.064   0.846 -2.3922  0.6291  1.2547
19300TIP3    H279316   1.211   0.143   0.771 -0.0366  1.8163 -0.8611
19301TIP3   OH279317   4.874   4.652  13.115  0.1430 -0.7521  0.0990
19301TIP3    H179318   4.806   4.673  13.051 -0.7427  0.9242  1.5543
19301TIP3    H279319   4.904   4.738  13.146 -0.0480 -1.5627  2.5600
19302TIP3   OH279320   5.611   5.542  12.326  0.4469 -0.2236 -0.1185
19302TIP3    H179321   5.623   5.556  12.232 -0.2746 -0.4450 -0.2495
19302TIP3    H279322   5.517   5.529  12.336  0.6695 -1.4524  0.4650
19303TIP3   OH279323   1.235   3.782  15.895  0.1187  1.0196 -0.0834
19303TIP3    H179324   1.308   3.758  15.837 -0.8672  1.2496 -1.4360
19303TIP3    H279325   1.230   3.710  15.958  2.7611  1.9389  1.2437
19304TIP3   OH279326   2.801   4.929   5.812  0.1778 -0.0591  0.4478
19304TIP3    H179327   2.745   4.893   5.881  1.2632 -1.6047  0.5434
19304TIP3    H279328   2.774   4.882   5.733 -0.9016  1.5404 -0.1525
19305TIP3   OH279329   1.603   4.945   0.332 -0.1053  0.0920 -0.2732
19305TIP3    H179330   1.596   4.924   0.426  0.6769  0.1363 -0.1974
19305TIP3    H279331   1.612   5.040   0.329 -0.1840  0.0950 -0.3933
19306TIP3   OH279332   4.686   1.888   4.949 -0.3962 -0.2220  0.2714
19306TIP3    H179333   4.714   1.837   5.025 -0.8362 -1.6493 -0.5085
19306TIP3    H279334   4.599   1.919   4.972  0.9738  2.6910  1.9452
19307TIP3   OH279335   2.559   6.323  11.855 -0.1876  0.2825 -0.4846
19307TIP3    H179336   2.568   6.333  11.950 -0.6668 -0.6831 -0.3213
19307TIP3    H279337   2.531   6.409  11.824 -0.9329  0.3554  0.3719
19308TIP3   OH279338   5.816   4.078  14.995 -0.4726  0.1031  0.3432
19308TIP3    H179339   5.815   4.073  14.899  1.1640  1.3509  0.2470
19308TIP3    H279340   5.844   3.991  15.023  0.5202  0.1873 -0.3721
19309TIP3   OH279341   2.374   2.174   0.470  0.1469 -0.1993  0.0019
19309TIP3    H179342   2.443   2.235   0.442 -1.6343  2.4450  1.1654
19309TIP3    H279343   2.392   2.157   0.562 -1.9109  2.2852  0.9462
19310TIP3   OH279344   1.632   1.636   1.541  0.0990  0.3401  0.1336
19310TIP3    H179345   1.620   1.604   1.630 -3.5512  0.4148 -0.2612
19310TIP3    H279346   1.617   1.560   1.485  0.8069  0.6445 -0.4846
19311TIP3   OH279347   0.610   0.398   3.339  0.3967  0.2665  0.6051
19311TIP3    H179348   0.591   0.489   3.361  1.7998  0.1632  2.4066
19311TIP3    H279349   0.687   0.401   3.283  0.2407  0.2087  0.3872
19312TIP3   OH279350   4.253   5.790  11.803 -0.5856  0.0010  0.8338
19312TIP3    H179351   4.187   5.798  11.733 -2.4482  0.4480  2.6001
19312TIP3    H279352   4.212   5.735  11.869  0.3089  1.3281  2.5460
19313TIP3   OH279353   6.358   0.178  11.006 -0.2727 -0.6902  0.2695
19313TIP3    H179354   6.299   0.208  10.938 -0.8041  0.3094  1.1580
19313TIP3    H279355   6.390   0.258  11.048  3.0993 -1.0893 -1.3258
19314TIP3   OH279356   0.267   2.331   1.749  0.2692  0.4521 -0.0996
19314TIP3    H179357   0.215   2.265   1.795  0.5400  1.6824  2.0318
19314TIP3    H279358   0.355   2.321   1.785  0.5686  1.2169 -0.6113
19315TIP3   OH279359   5.465   4.941  13.449  0.6633 -0.5446 -0.1174
19315TIP3    H179360   5.474   4.873  13.516  3.5047 -0.2693 -0.1517
19315TIP3    H279361   5.414   4.900  13.380 -1.8239 -1.0291  1.9116
19316TIP3   OH279362   3.052   4.367   4.206  0.4396 -0.4688  0.9168
19316TIP3    H179363   3.104   4.445   4.188 -0.4582 -0.1620 -0.3952
19316TIP3    H279364   2.962   4.393   4.186  0.2964 -2.2389 -0.8139
19317TIP3   OH279365   3.723   2.227   2.030 -0.2460  0.3063 -0.0700
19317TIP3    H179366   3.699   2.191   1.944  0.0122 -2.0688  0.8087
19317TIP3    H279367   3.804   2.274   2.014  2.7898 -4.5900 -0.2631
19318TIP3   OH279368   1.461   2.808  16.079 -0.4393  0.2659 -0.1203
19318TIP3    H179369   1.509   2.736  16.120 -2.3119  0.5482  2.6779
19318TIP3    H279370   1.524   2.848  16.019  2.2686 -0.4578  2.1631
19319TIP3   OH279371   1.439   4.377  15.575 -0.0140 -0.0311 -0.7500
19319TIP3    H179372   1.393   4.359  15.657  1.9914 -1.0158  0.1943
19319TIP3    H279373   1.425   4.470  15.560 -1.0521 -0.0023  0.2845
19320TIP3   OH279374   6.212   6.176  12.247 -0.0929 -0.4788  0.1317
19320TIP3    H179375   6.142   6.217  12.197  0.7144  0.2997 -0.3892
19320TIP3    H279376   6.172   6.100  12.287 -1.2945  0.0964  0.0377
19321TIP3   OH279377   0.357   0.615   4.564  0.1157 -0.1168  0.5026
19321TIP3    H179378   0.323   0.531   4.532  1.0786  0.6235 -2.5918
19321TIP3    H279379   0.427   0.591   4.625  0.6549 -1.5627 -0.6664
19322TIP3   OH279380   1.304   1.890   0.255 -0.1981 -0.1530  0.1764
19322TIP3    H179381   1.317   1.902   0.161  2.3475 -2.1845  0.1996
19322TIP3    H279382   1.308   1.978   0.292 -1.1933  0.6626 -1.5882
19323TIP3   OH279383   1.779   6.040  14.208 -0.2722  0.3006 -0.5874
19323TIP3    H179384   1.705   6.044  14.148 -0.3144  0.8371 -0.5076
19323TIP3    H279385   1.741   6.008  14.290 -0.2045 -0.4811 -0.8536
19324TIP3   OH279386   5.176   0.855  16.115  0.4278  0.0712 -0.1846
19324TIP3    H179387   5.104   0.906  16.078  1.3684  1.2050 -0.4896
19324TIP3    H279388   5.181   0.884  16.206 -1.4305 -2.2089  0.7066
19325TIP3   OH279389   3.042   3.400   0.456 -0.1671  0.2667  0.3210
19325TIP3    H179390   3.050   3.495   0.444 -0.7730  0.2330 -0.3546
19325TIP3    H279391   3.088   3.363   0.380 -0.7858  0.0272  0.0613
19326TIP3   OH279392   0.814   1.600   1.172  0.3933  0.0961 -0.0473
19326TIP3    H179393   0.744   1.535   1.181  0.3007  0.1015 -0.7214
19326TIP3    H279394   0.817   1.644   1.257  2.7566 -3.0959  1.6621
19327TIP3   OH279395   3.678   5.093  15.411 -0.0329  0.0831  0.3109
19327TIP3    H179396   3.582   5.100  15.412 -0.1223 -1.1433  0.9464
19327TIP3    H279397   3.696   5.021  15.350  0.4750  0.0794  0.4663
19328TIP3   OH279398   3.555   1.228   6.244 -0.3433  0.3624  0.3736
19328TIP3    H179399   3.534   1.263   6.158 -0.3910  1.1684  0.7116
19328TIP3    H279400   3.647   1.203   6.238  0.0118  1.5904  0.4651
19329TIP3   OH279401   2.032   4.112  16.286 -0.0455  0.4012  0.1157
19329TIP3    H179402   2.094   4.041  16.268 -0.1842 -0.1304  1.7055
19329TIP3    H279403   2.070   4.159  16.361 -2.1604 -0.6874  1.9158
19330TIP3   OH279404   2.703   4.455  13.338  0.3117 -0.2723  0.5500
19330TIP3    H179405   2.665   4.425  13.420 -0.3057  0.4677  0.5408
19330TIP3    H279406   2.737   4.542  13.358  0.7974 -0.3799  0.2066
19331TIP3   OH279407   3.476   4.930  11.997  0.5065  0.3001  0.0061
19331TIP3    H179408   3.502   5.016  11.963  1.7803 -0.2952 -0.5618
19331TIP3    H279409   3.538   4.869  11.958 -0.8691 -0.9889 -0.2118
19332TIP3   OH279410   3.251   1.258   3.654 -0.1674 -0.3960  0.1874
19332TIP3    H179411   3.169   1.209   3.648  0.3980 -1.4351  0.7808
19332TIP3    H279412   3.227   1.348   3.635 -1.3169 -0.8241 -0.4174
19333TIP3   OH279413   5.323   1.230  12.885  0.1189 -0.5952 -0.1739
19333TIP3    H179414   5.323   1.192  12.973 -0.6371  0.8085  0.4501
19333TIP3    H279415   5.286   1.317  12.897 -2.5853 -1.3639 -2.2896
19334TIP3   OH279416   4.633   3.788  11.341 -0.7593  0.4491  0.4896
19334TIP3    H179417   4.708   3.843  11.319  1.4718 -1.4428  3.0461
19334TIP3    H279418   4.565   3.851  11.366  0.6106  2.1588  0.0756
19335TIP3   OH279419   0.318   0.679   3.809  0.0665  0.2325 -0.6549
19335TIP3    H179420   0.331   0.593   3.769 -0.3282  1.1207 -2.7826
19335TIP3    H279421   0.313   0.739   3.735 -2.5770  1.7168  0.6482
19336TIP3   OH279422   5.984   0.077   0.288  0.7305 -0.1017  0.3016
19336TIP3    H179423   6.002  -0.015   0.272 -1.2665 -0.3201 -0.8866
19336TIP3    H279424   6.063   0.123   0.258  0.5457 -1.2007 -2.0137
19337TIP3   OH279425   3.711   3.664  16.170 -0.4250 -0.1175  0.4987
19337TIP3    H179426   3.618   3.651  16.188 -1.2596  0.6157 -2.8741
19337TIP3    H279427   3.731   3.602  16.100  1.8767 -0.9111  1.7983
19338TIP3   OH279428   5.658   6.460   4.578  0.3500  0.4106  1.0307
19338TIP3    H179429   5.572   6.502   4.576  0.7303  1.1638  0.2915
19338TIP3    H279430   5.682   6.458   4.671  0.0505  1.2446  1.1294
19339TIP3   OH279431   5.004   0.452  15.242  0.4617 -0.1839 -0.1882
19339TIP3    H179432   5.098   0.444  15.258  0.3129 -0.8788  0.3594
19339TIP3    H279433   4.983   0.380  15.183  0.0920 -0.6626  0.5141
19340TIP3   OH279434   4.511   1.408  15.795 -0.0970  0.0048  0.1761
19340TIP3    H179435   4.597   1.391  15.832 -0.4585 -3.1828 -0.3416
19340TIP3    H279436   4.525   1.480  15.734  2.0473 -0.0356  0.5786
19341TIP3   OH279437   5.295   0.270   5.543  0.0708 -0.0665  0.0087
19341TIP3    H179438   5.251   0.308   5.620  1.2438  0.4283  0.4531
19341TIP3    H279439   5.360   0.211   5.580  1.1118  0.6883 -0.5744
19342TIP3   OH279440   1.334   5.435  15.688 -0.0070  0.2727 -0.1952
19342TIP3    H179441   1.287   5.372  15.742 -0.6349  0.9422  0.0513
19342TIP3    H279442   1.367   5.500  15.750  2.3869 -0.8705 -0.2083
19343TIP3   OH279443   1.861   0.975   2.582  0.2155  0.2753  0.4013
19343TIP3    H179444   1.871   1.016   2.497  1.0406  0.6378  0.6638
19343TIP3    H279445   1.938   0.918   2.590 -0.4938 -0.7080  0.3825
19344TIP3   OH279446   1.112   2.182   3.746  0.0046 -0.0487  0.0650
19344TIP3    H179447   1.196   2.226   3.756  0.2812 -0.5879  0.1088
19344TIP3    H279448   1.055   2.224   3.811  0.0090  0.8689 -0.5123
19345TIP3   OH279449   1.855   1.825  13.766 -0.5573 -0.4252 -0.4919
19345TIP3    H179450   1.760   1.828  13.757 -0.6023 -1.5144 -0.4179
19345TIP3    H279451   1.876   1.732  13.781  0.3686  0.0037  1.1041
19346TIP3   OH279452   6.008   5.028   0.597 -0.3090 -0.2392  0.0873
19346TIP3    H179453   5.938   5.000   0.656  1.2137  0.8388  2.4919
19346TIP3    H279454   5.992   5.121   0.583  0.0931 -0.2055 -0.1403
19347TIP3   OH279455   2.055   2.592   1.992 -0.0303  0.3775  0.3882
19347TIP3    H179456   2.123   2.551   2.046  0.9202 -1.1273 -1.8729
19347TIP3    H279457   2.009   2.519   1.952 -0.7863  1.4700 -0.7677
19348TIP3   OH279458   2.763   1.421   4.813 -0.5529  0.1437 -0.0878
19348TIP3    H179459   2.731   1.497   4.765 -0.8849 -0.2396 -0.4717
19348TIP3    H279460   2.856   1.416   4.791 -0.3340  0.9506  0.6242
19349TIP3   OH279461   4.223   0.479  10.938  0.7495  0.0670  0.0285
19349TIP3    H179462   4.222   0.575  10.935  0.3084  0.0851  0.7383
19349TIP3    H279463   4.303   0.458  10.986 -0.7899  0.1619  2.6993
19350TIP3   OH279464   0.299   2.641   5.806 -0.2101 -0.0607  0.6631
19350TIP3    H179465   0.210   2.630   5.840 -0.1369 -0.9818  0.5696
19350TIP3    H279466   0.302   2.584   5.729 -0.2015  1.5917 -0.5852
19351TIP3   OH279467   4.249   2.986   4.011 -0.0805 -0.9882  0.3087
19351TIP3    H179468   4.257   2.972   4.105 -0.6420 -1.2360  0.3206
19351TIP3    H279469   4.156   3.005   3.997  0.1835  0.0489 -0.0669
19352TIP3   OH279470   0.127   5.978  11.112 -0.3072  0.1878  0.1771
19352TIP3    H179471   0.064   6.047  11.091 -0.8281 -0.1559  0.5821
19352TIP3    H279472   0.085   5.898  11.081  0.4824  0.0988 -0.6802
19353TIP3   OH279473   4.947   6.063  15.915  0.2202 -0.0660 -0.1671
19353TIP3    H179474   5.006   5.988  15.923  0.0501 -0.1050  0.7680
19353TIP3    H279475   5.003   6.136  15.888  0.8398  0.0936  1.5345
19354TIP3   OH279476   3.163   1.683   3.141 -0.2608 -0.6742  0.7490
19354TIP3    H179477   3.086   1.722   3.099  1.9940  0.8081 -2.2378
19354TIP3    H279478   3.218   1.758   3.164  0.3652 -1.7096  2.8171
19355TIP3   OH279479   2.870   2.571  12.563 -0.5869  0.2676 -0.3820
19355TIP3    H179480   2.945   2.532  12.608 -0.4186  0.7376 -0.2411
19355TIP3    H279481   2.863   2.524  12.481  1.1403  1.5781 -1.3232
19356TIP3   OH279482   4.305   4.133  13.353 -0.3816 -0.1751  0.1843
19356TIP3    H179483   4.264   4.054  13.320  0.4810  0.3110 -2.1322
19356TIP3    H279484   4.385   4.103  13.396 -0.6719 -0.6704  0.3718
19357TIP3   OH279485   6.137   2.654   2.531  0.2781 -0.4950  0.7957
19357TIP3    H179486   6.172   2.679   2.445 -1.0519 -0.6634  0.1845
19357TIP3    H279487   6.059   2.709   2.542  0.1360 -0.8595  1.6491
19358TIP3   OH279488   1.763   2.669  15.292  0.3096  0.2946  0.2398
19358TIP3    H179489   1.787   2.613  15.366  1.6038  0.7666  0.1891
19358TIP3    H279490   1.837   2.730  15.283 -0.1535  0.6830 -1.0031
19359TIP3   OH279491   4.068   1.000   2.204  0.5467 -0.3904  0.2702
19359TIP3    H179492   3.977   0.991   2.174  0.9849 -2.7067 -0.4645
19359TIP3    H279493   4.109   1.054   2.137 -0.1181  0.0740  0.2266
19360TIP3   OH279494   2.573   0.777  14.927 -0.4904  0.2407 -0.0206
19360TIP3    H179495   2.623   0.759  15.007 -0.6822 -0.4467 -0.0523
19360TIP3    H279496   2.607   0.861  14.897  1.4011 -0.6872 -0.6132
19361TIP3   OH279497   3.929   0.688   2.925  0.1807 -0.4264 -0.1440
19361TIP3    H179498   3.933   0.759   2.988  0.6411  0.4254 -1.1090
19361TIP3    H279499   4.019   0.656   2.918 -0.2941 -2.2788  1.5601
19362TIP3   OH279500   0.856   4.635   5.275  0.2519  0.2917  0.5099
19362TIP3    H179501   0.916   4.578   5.227  1.1271  1.3188  0.3696
19362TIP3    H279502   0.782   4.647   5.215  0.8788  0.7460 -0.1896
19363TIP3   OH279503   1.369   3.237   5.911 -0.3751  0.1902 -0.4615
19363TIP3    H179504   1.444   3.178   5.920  0.4810  1.2067 -0.7552
19363TIP3    H279505   1.351   3.239   5.817 -1.2149 -0.5946 -0.3153
19364TIP3   OH279506   3.142   5.148   3.330  0.3635 -0.0294  1.0533
19364TIP3    H179507   3.127   5.213   3.263 -0.6516 -2.1372 -0.8139
19364TIP3    H279508   3.232   5.119   3.316 -0.2843 -1.4288 -0.2733
19365TIP3   OH279509   6.457   4.800   0.935  0.0127  0.1796  0.0364
19365TIP3    H179510   6.531   4.817   0.994 -0.0907 -1.1807  0.5635
19365TIP3    H279511   6.496   4.801   0.847  0.6984 -0.6708  0.3217
19366TIP3   OH279512   2.590   5.429   0.810  0.2070  0.4620  0.1204
19366TIP3    H179513   2.556   5.489   0.876  2.7600  0.9921  1.0102
19366TIP3    H279514   2.552   5.459   0.728 -0.9231  1.4268  0.9813
19367TIP3   OH279515   2.051   1.332   3.066  0.5163 -0.6988  0.5305
19367TIP3    H179516   2.088   1.245   3.080 -2.7892 -2.1812  0.5569
19367TIP3    H279517   2.003   1.325   2.983 -0.1755  0.9504  0.7663
19368TIP3   OH279518   1.864   0.913  13.160 -0.0226  0.6101 -0.0404
19368TIP3    H179519   1.957   0.919  13.183 -0.3679 -2.2001  2.3268
19368TIP3    H279520   1.864   0.877  13.071  1.1590 -1.1672  0.6472
19369TIP3   OH279521   3.035   1.967   4.486  0.0765  0.3976  0.1996
19369TIP3    H179522   3.078   2.047   4.517  1.3856  0.0659 -0.7222
19369TIP3    H279523   3.099   1.898   4.502 -0.7937 -0.3820  0.3884
19370TIP3   OH279524   6.077   5.615   5.841 -0.2592  0.2442 -0.2616
19370TIP3    H179525   6.112   5.704   5.840 -2.3540  1.0893 -0.0039
19370TIP3    H279526   6.049   5.601   5.932  0.0363 -0.6703 -0.3061
19371TIP3   OH279527   3.271   2.346   2.696 -0.5622 -0.6659  0.1066
19371TIP3    H179528   3.361   2.316   2.708 -0.4994 -0.7054 -0.4634
19371TIP3    H279529   3.260   2.354   2.601 -0.9704 -0.0888  0.1966
19372TIP3   OH279530   6.591   1.064  15.484  0.4991 -0.0491 -0.5893
19372TIP3    H179531   6.590   1.160  15.488  0.6950 -0.0267 -1.0120
19372TIP3    H279532   6.670   1.044  15.433  1.5270 -0.4869  1.1511
19373TIP3   OH279533   1.067   0.295   0.040 -0.3182 -0.4148 -0.4576
19373TIP3    H179534   0.985   0.344   0.040 -0.7260 -1.0676 -2.3311
19373TIP3    H279535   1.094   0.292  -0.052  0.6539 -2.0909 -0.1447
19374TIP3   OH279536   2.490   4.452   1.609 -0.2044  0.2098 -0.0766
19374TIP3    H179537   2.414   4.478   1.661 -0.3152  0.2162 -0.2404
19374TIP3    H279538   2.534   4.387   1.662 -1.2307 -1.0061 -0.6788
19375TIP3   OH279539   6.585   3.230  12.015  0.3719  0.0508 -0.3611
19375TIP3    H179540   6.676   3.200  12.009  0.4626  0.1409  0.5790
19375TIP3    H279541   6.589   3.323  11.993  0.5627  0.1479  0.0881
19376TIP3   OH279542   0.794   6.170   1.670  0.4018 -0.3811 -0.5295
19376TIP3    H179543   0.862   6.171   1.738 -1.3803 -0.3513  1.2910
19376TIP3    H279544   0.769   6.078   1.663  0.6016 -0.3871 -1.1735
19377TIP3   OH279545   6.499   5.641  10.867  0.0190  0.4136  0.2711
19377TIP3    H179546   6.523   5.550  10.850 -0.5674 -0.1079  2.1165
19377TIP3    H279547   6.578   5.691  10.844  0.3137 -0.5283 -0.8518
19378TIP3   OH279548   1.945   4.005  15.546 -0.5051 -0.5565  0.2478
19378TIP3    H179549   1.943   4.090  15.590  1.8527 -0.0849 -0.4480
19378TIP3    H279550   1.898   3.946  15.604 -1.9058  1.1592  0.8916
19379TIP3   OH279551   0.626   4.974  12.644  0.3640  0.5096  0.0096
19379TIP3    H179552   0.665   4.914  12.707  0.2299 -1.2453 -1.5351
19379TIP3    H279553   0.649   4.937  12.558  0.8529  3.0403 -0.9948
19380TIP3   OH279554   6.260   2.461  12.344 -0.6635  0.1490 -0.5761
19380TIP3    H179555   6.349   2.427  12.347 -0.7874 -0.1462 -0.1459
19380TIP3    H279556   6.260   2.523  12.272  0.6827  2.3931  1.2973
19381TIP3   OH279557   1.593   5.078   1.495 -0.3872  0.0604 -0.1523
19381TIP3    H179558   1.628   5.025   1.423  0.4440 -1.0705  1.0522
19381TIP3    H279559   1.581   5.165   1.457 -0.8141 -0.7352 -1.8910
19382TIP3   OH279560   0.887   6.051   4.429 -0.0374 -0.4099 -0.0683
19382TIP3    H179561   0.841   5.977   4.469 -1.9652  1.1589  0.7179
19382TIP3    H279562   0.887   6.032   4.336 -0.7881 -1.2787  0.1007
19383TIP3   OH279563   4.767   1.868   2.415 -0.1859 -0.0105 -0.1295
19383TIP3    H179564   4.855   1.905   2.410 -0.3546  0.3040 -0.7364
19383TIP3    H279565   4.778   1.777   2.389 -0.2541  0.3651 -1.4984
19384TIP3   OH279566   1.597   5.930  15.244 -0.3200  0.4502 -0.1864
19384TIP3    H179567   1.690   5.946  15.254 -0.3063  0.1781  0.1471
19384TIP3    H279568   1.555   5.987  15.308 -0.4355  1.2194 -0.9398
19385TIP3   OH279569   5.949   1.484   3.405 -0.0221 -0.3856  0.2224
19385TIP3    H179570   5.965   1.575   3.429 -1.4725  0.1527 -0.7653
19385TIP3    H279571   5.901   1.447   3.479  0.3213 -0.2627  0.5047
19386TIP3   OH279572   4.909   4.296   3.460  0.1770 -0.0746 -0.2268
19386TIP3    H179573   4.844   4.226   3.467 -0.6784  0.7618  0.3156
19386TIP3    H279574   4.993   4.251   3.461 -0.4033 -1.2517 -1.9732
19387TIP3   OH279575   4.651   1.637   3.747  0.1807 -0.3195  0.8118
19387TIP3    H179576   4.728   1.582   3.736 -1.6127 -2.9867  1.0759
19387TIP3    H279577   4.642   1.649   3.842  0.0471 -0.3465  0.8036
19388TIP3   OH279578   1.446   1.170  16.084  0.0235  0.0900  0.7730
19388TIP3    H179579   1.540   1.178  16.066  0.0080 -1.5027 -0.0394
19388TIP3    H279580   1.440   1.166  16.179  0.8889 -1.0207  0.7866
19389TIP3   OH279581   4.491   2.213  17.023  0.1779  0.2914 -0.0912
19389TIP3    H179582   4.571   2.233  16.974  1.3285 -0.5014  1.4522
19389TIP3    H279583   4.478   2.289  17.079 -0.7517  0.8882 -1.1023
19390TIP3   OH279584   6.564   2.204   3.194  0.0084 -0.3553  0.0248
19390TIP3    H179585   6.527   2.225   3.280  1.7073  0.5609  0.5535
19390TIP3    H279586   6.649   2.164   3.214  0.6607  0.3898 -1.2443
19391TIP3   OH279587   5.986   4.857   6.057  0.6245  0.6451 -0.3657
19391TIP3    H179588   6.004   4.851   6.150 -2.0510 -2.1128  0.0708
19391TIP3    H279589   6.072   4.857   6.015  1.8000 -1.7243  1.9598
19392TIP3   OH279590   5.082   4.362   0.694 -0.4301 -0.1769  0.2514
19392TIP3    H179591   5.023   4.344   0.767 -1.0510 -0.0789 -0.2264
19392TIP3    H279592   5.124   4.445   0.718  1.2152 -1.3902  1.6690
19393TIP3   OH279593   3.865   6.709   4.885 -0.0912  0.0278  0.0288
19393TIP3    H179594   3.928   6.741   4.821  0.0398 -0.2918 -0.0023
19393TIP3    H279595   3.858   6.780   4.949  0.7118 -0.1491  0.3257
19394TIP3   OH279596   1.611   5.264  16.827 -0.1785 -0.2452 -0.3032
19394TIP3    H179597   1.616   5.346  16.777  0.9320 -0.4273 -0.4925
19394TIP3    H279598   1.522   5.264  16.862 -0.1797  1.0704 -0.2601
19395TIP3   OH279599   5.158   4.379   2.961  0.2629 -0.2526 -0.4684
19395TIP3    H179600   5.117   4.308   3.011  1.3427 -0.1321  0.6056
19395TIP3    H279601   5.084   4.428   2.925 -0.5294 -0.7216  0.4742
19396TIP3   OH279602   6.294   2.175   2.237  0.4395 -0.0750  0.0230
19396TIP3    H179603   6.333   2.119   2.304  0.4997 -0.5044 -0.3647
19396TIP3    H279604   6.205   2.192   2.268  0.4377 -0.3496  0.1658
19397TIP3   OH279605   2.969   4.233  12.931  0.0765  0.5498  0.1733
19397TIP3    H179606   2.957   4.302  12.865 -0.0531 -0.2870 -0.6750
19397TIP3    H279607   2.880   4.206  12.953  0.1639 -0.0415 -0.2155
19398TIP3   OH279608   0.789   6.584  15.230  0.0738 -0.3238  0.3094
19398TIP3    H179609   0.784   6.668  15.276  2.8207 -0.1549  0.3964
19398TIP3    H279610   0.838   6.604  15.150  0.4430 -1.7765  0.1593
19399TIP3   OH279611   6.294   3.860  12.940 -0.5501 -0.9308 -0.0190
19399TIP3    H179612   6.207   3.821  12.932 -0.1677 -1.7982  0.0553
19399TIP3    H279613   6.279   3.954  12.930 -1.6031 -1.0109  0.7845
19400TIP3   OH279614   1.889   2.729  12.564  0.0840  0.8603 -0.0621
19400TIP3    H179615   1.856   2.804  12.514  0.1268  1.0376  0.1744
19400TIP3    H279616   1.873   2.753  12.656  0.9912  0.9947  0.0590
19401TIP3   OH279617   1.426   4.027  15.441  0.1808  0.0772  0.5232
19401TIP3    H179618   1.359   3.960  15.455  0.2964 -0.2358 -0.3691
19401TIP3    H279619   1.486   4.017  15.516 -0.7456  0.3449  1.3122
19402TIP3   OH279620   1.589   0.156   2.408  0.4236  0.0171 -0.3003
19402TIP3    H179621   1.636   0.158   2.324  1.3168  0.5235  0.1944
19402TIP3    H279622   1.596   0.065   2.437 -0.0221 -0.1928 -0.8480
19403TIP3   OH279623   3.635   6.126   4.601 -0.1976 -0.2772  0.4448
19403TIP3    H179624   3.547   6.131   4.564 -0.4928 -1.5537  0.9387
19403TIP3    H279625   3.623   6.148   4.694 -0.4578 -3.0774  1.1218
19404TIP3   OH279626   5.813   4.887  10.748 -0.8969 -0.3247  0.0234
19404TIP3    H179627   5.726   4.849  10.739 -1.0541  0.0625 -0.1045
19404TIP3    H279628   5.872   4.823  10.708 -1.1052 -0.6596  0.2542
19405TIP3   OH279629   0.106   2.054  12.857  0.3188  0.0402 -0.0611
19405TIP3    H179630   0.166   1.982  12.875  0.7031  0.0062 -1.3758
19405TIP3    H279631   0.039   2.048  12.925  0.8258 -1.0227  0.3554
19406TIP3   OH279632   6.001   3.525  12.259 -0.3483 -0.0971  0.4262
19406TIP3    H179633   5.993   3.436  12.224  0.4934  0.9419 -2.5995
19406TIP3    H279634   6.092   3.532  12.286 -0.8249 -0.6652  2.2554
19407TIP3   OH279635   6.299   3.349   4.658  0.0253  0.0256  0.5920
19407TIP3    H179636   6.261   3.266   4.688  0.5449  0.0057  1.2066
19407TIP3    H279637   6.310   3.338   4.564 -0.0818 -0.5339  0.6427
19408TIP3   OH279638   6.304   2.118   4.593  0.4513  0.1915 -0.0213
19408TIP3    H179639   6.397   2.095   4.592  0.8290  1.3235  3.3035
19408TIP3    H279640   6.261   2.042   4.632  0.0234 -0.0956 -1.0286
19409TIP3   OH279641   3.591   0.020  11.649 -0.6045 -0.6047 -0.1063
19409TIP3    H179642   3.517  -0.008  11.595  0.1770  0.8424 -1.9839
19409TIP3    H279643   3.656  -0.049  11.639 -0.6547 -0.5754 -0.6184
19410TIP3   OH279644   4.649   5.355   1.006  0.2528 -0.3016  0.1587
19410TIP3    H179645   4.704   5.370   1.083 -0.1355 -0.4062  0.4569
19410TIP3    H279646   4.629   5.442   0.973 -0.3319 -0.2207  0.7096
19411TIP3   OH279647   3.054   5.276   1.124  0.2193  0.2136 -0.4432
19411TIP3    H179648   3.037   5.185   1.099 -2.0679  0.1994  1.0747
19411TIP3    H279649   3.150   5.283   1.122  0.3957 -2.0282 -1.2683
19412TIP3   OH279650   0.174   6.342  16.313  0.2782 -0.5468  0.5145
19412TIP3    H179651   0.238   6.298  16.369 -0.1422 -0.3884  1.1294
19412TIP3    H279652   0.217   6.423  16.287  0.4906 -0.6380  0.5792
19413TIP3   OH279653   2.539   4.251   2.060  0.7561  0.3018  0.2164
19413TIP3    H179654   2.572   4.267   1.972 -1.9032 -0.9274 -1.0685
19413TIP3    H279655   2.596   4.183   2.096  1.5634  0.4749 -0.7459
19414TIP3   OH279656   2.301   4.154  10.753  0.0729 -0.8501 -0.1362
19414TIP3    H179657   2.319   4.076  10.806  0.5218  1.5761  3.4437
19414TIP3    H279658   2.385   4.200  10.749 -0.3684 -0.1440 -1.5668
19415TIP3   OH279659   0.550   2.751  11.060 -0.2368 -0.1169 -0.8409
19415TIP3    H179660   0.626   2.699  11.036 -1.1538 -1.4242 -0.9305
19415TIP3    H279661   0.525   2.720  11.146  0.1817  1.3062 -0.1865
19416TIP3   OH279662   5.246   3.222  14.387 -0.2575 -0.4256 -0.0613
19416TIP3    H179663   5.249   3.318  14.391 -0.3394 -0.4145 -0.2714
19416TIP3    H279664   5.328   3.197  14.345 -1.6546 -0.2779 -2.9867
19417TIP3   OH279665   3.519   5.463   3.641  0.2978  0.0629 -0.2212
19417TIP3    H179666   3.470   5.431   3.566 -0.4158 -0.8667  0.6326
19417TIP3    H279667   3.523   5.558   3.628 -0.8732  0.0424 -0.8021
19418TIP3   OH279668   6.087   6.306  13.563  0.1202 -0.3399 -0.3846
19418TIP3    H179669   6.035   6.278  13.638 -0.6575  0.1237 -0.7381
19418TIP3    H279670   6.178   6.284  13.587 -0.2898 -1.6466  0.0056
19419TIP3   OH279671   3.491   3.275  12.697 -0.1574 -0.8989 -0.2305
19419TIP3    H179672   3.573   3.226  12.708  0.3941  0.2061  0.7004
19419TIP3    H279673   3.491   3.338  12.769 -0.0931  1.5270 -2.3115
19420TIP3   OH279674   0.360   4.429  11.361  0.3719 -0.2326  0.3058
19420TIP3    H179675   0.351   4.364  11.430  1.1552 -1.1484 -0.4425
19420TIP3    H279676   0.292   4.408  11.298 -0.7011  0.9407  1.0350
19421TIP3   OH279677   6.686   1.581   2.780 -0.1354  0.8865  0.0963
19421TIP3    H179678   6.762   1.527   2.759 -0.7737  0.3019 -0.7378
19421TIP3    H279679   6.639   1.590   2.697 -1.1426  0.9866  0.6738
19422TIP3   OH279680   0.273   2.902  16.686  0.4319 -1.1882 -0.3970
19422TIP3    H179681   0.276   2.906  16.781 -4.3512  1.0841 -0.1416
19422TIP3    H279682   0.336   2.968  16.657 -0.3913  0.4330  1.3717
19423TIP3   OH279683   3.665   6.582  11.995 -0.1745  0.2318 -0.2643
19423TIP3    H179684   3.726   6.619  12.059 -2.0872 -0.6046  2.1431
19423TIP3    H279685   3.631   6.503  12.038 -1.0906 -0.6565 -2.5648
19424TIP3   OH279686   0.610   5.366  14.912  0.1923  0.0416  0.3793
19424TIP3    H179687   0.535   5.390  14.859  0.4546  1.2740  0.5454
19424TIP3    H279688   0.575   5.359  15.001  0.0624 -0.4807  0.2903
19425TIP3   OH279689   6.066   4.629   2.075  0.0618  0.2020 -1.3498
19425TIP3    H179690   6.019   4.638   2.157  0.0341 -2.2379 -1.0597
19425TIP3    H279691   6.155   4.658   2.094 -0.6043  2.2292 -1.1968
19426TIP3   OH279692   2.089   6.211  15.835 -0.4588  0.2857  0.4489
19426TIP3    H179693   2.179   6.233  15.858  1.0522 -2.5970 -2.2727
19426TIP3    H279694   2.070   6.266  15.759 -0.8890  0.6866  0.8457
19427TIP3   OH279695   4.871   4.518   3.048  0.2139  0.2052  0.3806
19427TIP3    H179696   4.836   4.522   3.137  1.2942  1.0727  0.7675
19427TIP3    H279697   4.822   4.446   3.007 -1.2940  0.7130  1.2248
19428TIP3   OH279698   3.446   5.689  12.531  0.1316  0.6042  0.1775
19428TIP3    H179699   3.471   5.651  12.615  0.8409 -0.5278 -0.5175
19428TIP3    H279700   3.491   5.774  12.529 -0.8969  1.1897  1.4543
19429TIP3   OH279701   4.579   2.019  15.073  0.0743 -0.0286 -0.0103
19429TIP3    H179702   4.531   2.094  15.107  0.4527  0.7696 -1.2112
19429TIP3    H279703   4.660   2.017  15.124  0.1090  0.4350 -0.0482
19430TIP3   OH279704   4.949   1.898  14.187  0.0951 -0.0125 -0.2416
19430TIP3    H179705   4.965   1.977  14.136 -0.7989  0.2867 -0.0548
19430TIP3    H279706   5.022   1.895  14.249 -0.2447  1.0430  0.2188
19431TIP3   OH279707   0.091   0.952   6.046 -0.0983 -0.0216  0.4905
19431TIP3    H179708   0.116   0.860   6.035  0.6434  0.2406 -0.0900
19431TIP3    H279709   0.167   1.001   6.015 -0.7951  0.7929  0.0411
19432TIP3   OH279710   2.725   0.287  13.047 -0.2478 -0.2743 -0.2554
19432TIP3    H179711   2.669   0.220  13.085  0.5663 -1.3662 -0.9408
19432TIP3    H279712   2.715   0.276  12.952 -0.0477  0.5102 -0.3698
19433TIP3   OH279713   5.267   1.499  12.929  0.4154  0.2248 -0.2492
19433TIP3    H179714   5.355   1.525  12.956  1.0539 -0.5169 -1.5669
19433TIP3    H279715   5.255   1.537  12.842 -0.1575 -0.5619 -0.5278
19434TIP3   OH279716   1.879   0.506  13.728  0.2703 -0.1123  0.1000
19434TIP3    H179717   1.806   0.533  13.672  0.4079  1.2190  0.5444
19434TIP3    H279718   1.953   0.499  13.669  0.4088  1.2675  0.0883
19435TIP3   OH279719   0.418   0.187   4.288  0.2900  0.3730  0.3274
19435TIP3    H179720   0.503   0.162   4.253 -1.0880 -1.6770 -1.7574
19435TIP3    H279721   0.378   0.239   4.219 -0.3277  0.9388  1.1030
19436TIP3   OH279722   0.766   4.948  11.960 -0.6383 -0.3243  0.4686
19436TIP3    H179723   0.708   4.988  12.025 -0.2458  0.6764  0.2146
19436TIP3    H279724   0.808   4.876  12.006  0.6570  1.2096  1.7504
19437TIP3   OH279725   5.649   1.671   0.557  0.3242  0.1273 -0.9146
19437TIP3    H179726   5.554   1.679   0.560  0.3429 -0.2415  1.5664
19437TIP3    H279727   5.671   1.679   0.464 -2.0663  0.7636 -1.4484
19438TIP3   OH279728   3.876   6.532  11.325 -0.3384  0.0556 -0.0039
19438TIP3    H179729   3.819   6.476  11.377  0.0540  0.7715  1.2270
19438TIP3    H279730   3.963   6.492  11.333  0.0149  0.9884  1.1751
19439TIP3   OH279731   1.925   1.660  10.492  0.0979 -0.1579 -0.1415
19439TIP3    H179732   1.919   1.569  10.462 -0.2090 -0.7949  1.7636
19439TIP3    H279733   1.918   1.654  10.587 -0.3373  1.9036 -0.0187
19440TIP3   OH279734   1.379   4.770  15.253 -0.2249  0.1390 -0.2262
19440TIP3    H179735   1.471   4.796  15.257 -0.3470  0.6441 -0.6291
19440TIP3    H279736   1.331   4.852  15.251 -0.6709 -0.1226 -0.3293
19441TIP3   OH279737   5.124   5.243   0.688  0.1640 -0.0835  0.7079
19441TIP3    H179738   5.092   5.277   0.605 -0.1296 -0.9028  0.4823
19441TIP3    H279739   5.087   5.301   0.754 -0.5107 -0.1063  0.3469
19442TIP3   OH279740   0.848   1.511  11.450  0.2993 -0.5139 -0.4560
19442TIP3    H179741   0.888   1.588  11.489  0.0346  0.2389 -1.6657
19442TIP3    H279742   0.755   1.531  11.446  0.1983 -0.9874 -0.5807
19443TIP3   OH279743   0.125   0.028  11.546 -0.1428 -0.1931 -0.1626
19443TIP3    H179744   0.037   0.003  11.519 -0.4558  1.9024 -1.1709
19443TIP3    H279745   0.134   0.119  11.518  1.6156  0.2532  1.7177
19444TIP3   OH279746   6.160   4.757  12.320  0.2772 -0.3128 -1.1766
19444TIP3    H179747   6.188   4.782  12.408  0.2228  0.8631 -1.4763
19444TIP3    H279748   6.242   4.751  12.270  0.2101  0.3695 -1.3741
19445TIP3   OH279749   2.773   3.487  10.817 -0.0342 -0.2807  0.2231
19445TIP3    H179750   2.746   3.566  10.864  2.3027  1.0398 -0.6301
19445TIP3    H279751   2.866   3.498  10.802 -0.1620 -2.0557 -2.1433
19446TIP3   OH279752   3.675   1.368  13.523 -0.4902  0.2880 -0.3657
19446TIP3    H179753   3.745   1.419  13.564  1.0170 -0.6563 -1.6828
19446TIP3    H279754   3.638   1.316  13.594  1.4314 -0.6147  0.0117
19447TIP3   OH279755   0.964   1.767   1.612 -0.0076  0.0055  0.0637
19447TIP3    H179756   1.035   1.703   1.625  0.3302  0.7511  2.0821
19447TIP3    H279757   0.977   1.832   1.682 -1.7722  0.9866 -0.4865
19448TIP3   OH279758   5.552   1.223   2.465 -0.2047 -0.1643 -0.1009
19448TIP3    H179759   5.580   1.195   2.378 -0.1527  1.5254 -0.6562
19448TIP3    H279760   5.463   1.188   2.474  0.3650 -1.6502 -0.1978
19449TIP3   OH279761   1.389   5.110   3.440  0.1403  0.3455  0.0218
19449TIP3    H179762   1.384   5.205   3.439  0.3406  0.3579  0.0504
19449TIP3    H279763   1.298   5.080   3.433  0.1117  0.5342 -0.3729
19450TIP3   OH279764   1.379   6.762   0.308 -0.2124  0.1802 -0.1080
19450TIP3    H179765   1.431   6.702   0.255  0.7204  1.0896 -0.2196
19450TIP3    H279766   1.294   6.765   0.263  0.3469  0.4124 -1.1767
19451TIP3   OH279767   4.947   2.767   1.514  0.9864  0.1407 -0.5523
19451TIP3    H179768   4.956   2.706   1.441  0.2160  0.0537 -0.5779
19451TIP3    H279769   4.979   2.850   1.479 -0.7991  0.4571 -1.4842
19452TIP3   OH279770   6.146   2.813  11.390 -0.0203  0.5358 -0.3441
19452TIP3    H179771   6.230   2.813  11.437  0.0813  0.0912 -0.5174
19452TIP3    H279772   6.145   2.897  11.343  0.1277  0.7377  0.0109
19453TIP3   OH279773   0.364   1.390   3.837 -0.2415  0.0403 -0.5529
19453TIP3    H179774   0.303   1.411   3.908 -1.7860  4.6890 -3.0270
19453TIP3    H279775   0.440   1.446   3.855  0.4751 -0.7442 -1.1454
19454TIP3   OH279776   2.593   4.724  16.224 -0.0731 -0.0453  0.8859
19454TIP3    H179777   2.671   4.683  16.186  0.4657 -0.1537  2.0913
19454TIP3    H279778   2.555   4.773  16.151  0.8423 -0.3993  0.1491
19455TIP3   OH279779   1.765   6.497  14.235  0.6317  0.0521  0.5019
19455TIP3    H179780   1.815   6.458  14.306 -0.7180 -0.2226  1.3239
19455TIP3    H279781   1.680   6.517  14.274 -0.9956 -2.3402 -1.6254
19456TIP3   OH279782   2.837   2.628  14.289  0.3502  0.2610  0.2627
19456TIP3    H179783   2.866   2.610  14.378 -1.1755 -1.1619  0.4885
19456TIP3    H279784   2.917   2.652  14.242  1.2518  0.4010  1.8499
19457TIP3   OH279785   4.527   2.400  12.436  0.0773  0.4737 -0.1522
19457TIP3    H179786   4.515   2.478  12.382  0.0089  0.0373 -0.7643
19457TIP3    H279787   4.547   2.435  12.523 -0.7633  1.1798 -0.2323
19458TIP3   OH279788   3.137   4.418   0.171  0.4322  0.6561 -0.0729
19458TIP3    H179789   3.214   4.366   0.195 -1.2658 -3.0497 -2.2192
19458TIP3    H279790   3.122   4.396   0.079 -4.3524 -0.3057  0.8260
19459TIP3   OH279791   4.151   0.850   5.909  0.3231  0.4895 -0.0037
19459TIP3    H179792   4.185   0.829   5.996 -0.3527  1.5803  0.5320
19459TIP3    H279793   4.192   0.786   5.851 -0.5084 -1.3275  1.3565
19460TIP3   OH279794   0.704   2.704  12.749 -0.5195 -0.2082 -0.5501
19460TIP3    H179795   0.628   2.761  12.736 -0.0491  0.5562  0.0646
19460TIP3    H279796   0.778   2.764  12.760 -0.1021 -0.9190  0.5845
19461TIP3   OH279797   4.802   3.326  14.116 -0.1198 -0.3584 -0.0801
19461TIP3    H179798   4.886   3.333  14.160 -0.9896 -0.3511  1.6021
19461TIP3    H279799   4.739   3.363  14.178 -1.5223 -1.4420 -0.8356
19462TIP3   OH279800   4.841   4.352  17.033  0.2727 -0.5760 -1.2122
19462TIP3    H179801   4.802   4.352  17.121 -0.8170 -1.7568 -1.6785
19462TIP3    H279802   4.769   4.379  16.976  1.1096  0.6646 -1.7062
19463TIP3   OH279803   4.810   6.427  16.376 -0.1249 -0.2809 -0.0591
19463TIP3    H179804   4.717   6.438  16.392 -0.0859 -1.7104  1.2780
19463TIP3    H279805   4.852   6.449  16.459  0.6626 -0.5141 -0.3827
19464TIP3   OH279806   6.237   4.723   3.157  0.2346 -0.2588 -0.2390
19464TIP3    H179807   6.321   4.753   3.120  0.9037  0.9065  2.1650
19464TIP3    H279808   6.210   4.652   3.099  1.4361  1.2633 -2.7449
19465TIP3   OH279809   4.814   1.283   1.681  0.0911 -0.0545 -0.0123
19465TIP3    H179810   4.829   1.288   1.776  1.7418  2.0261 -0.3409
19465TIP3    H279811   4.720   1.299   1.671  0.2538  1.8189  1.1671
19466TIP3   OH279812   1.832   6.105   6.301 -0.5074  0.5440  0.5908
19466TIP3    H179813   1.864   6.113   6.211 -0.7294  0.3655  0.4983
19466TIP3    H279814   1.752   6.156   6.302  0.4814  2.1238  1.1686
19467TIP3   OH279815   6.594   3.522   4.580  0.5474  0.1571 -0.6751
19467TIP3    H179816   6.535   3.472   4.523  1.2571  0.9575 -2.1468
19467TIP3    H279817   6.551   3.607   4.590 -0.8088 -0.8101  2.0744
19468TIP3   OH279818   1.144   4.170  16.532  0.0879 -0.2236  0.4697
19468TIP3    H179819   1.090   4.128  16.465 -1.3398  1.0488  0.8089
19468TIP3    H279820   1.118   4.127  16.613 -0.0023  0.0006  0.5568
19469TIP3   OH279821   5.102   2.854   3.382  0.7669 -0.4098  0.0702
19469TIP3    H179822   5.050   2.908   3.321  0.4888 -0.5276  0.2013
19469TIP3    H279823   5.188   2.895   3.382  0.4471  0.2834  0.4740
19470TIP3   OH279824   1.431   1.738  14.475  0.2712 -0.2397  0.3731
19470TIP3    H179825   1.381   1.794  14.535 -1.8003 -2.8683  1.2189
19470TIP3    H279826   1.462   1.666  14.530  4.0214  0.7018 -0.4270
19471TIP3   OH279827   0.132   1.059   6.332 -0.2233  0.2293 -0.0579
19471TIP3    H179828   0.184   0.979   6.341 -0.7120  0.1639  2.9785
19471TIP3    H279829   0.181   1.125   6.381 -2.1917  0.5196  1.6238
19472TIP3   OH279830   5.816   4.883  11.723  0.3759 -0.2572  0.3263
19472TIP3    H179831   5.881   4.831  11.770  1.1601 -0.5844 -1.0982
19472TIP3    H279832   5.749   4.902  11.789  1.8509  0.0071  1.8018
19473TIP3   OH279833   4.148   4.170  16.434 -0.0717 -0.1492  0.0894
19473TIP3    H179834   4.194   4.178  16.350  0.4736  0.4911  0.4510
19473TIP3    H279835   4.116   4.080  16.434  0.4880 -0.3594 -0.5257
19474TIP3   OH279836   1.359   4.422   2.958 -0.3055  0.1540  0.1600
19474TIP3    H179837   1.389   4.332   2.953  0.9952  0.4832  1.7233
19474TIP3    H279838   1.434   4.475   2.931 -0.8654  0.8015 -0.1526
19475TIP3   OH279839   1.580   0.710   3.713 -0.4849  0.0939 -0.3423
19475TIP3    H179840   1.629   0.738   3.790 -0.7541  0.2996 -0.2418
19475TIP3    H279841   1.617   0.625   3.689  1.1990  1.1021 -1.4004
19476TIP3   OH279842   4.071   0.430  11.932 -0.1246 -0.6883 -0.0376
19476TIP3    H179843   4.071   0.334  11.930  1.3289 -0.6928 -1.1887
19476TIP3    H279844   4.065   0.455  11.839 -1.6867  0.3524  0.3257
19477TIP3   OH279845   6.188   4.261  14.450  0.2016 -0.1210 -0.0908
19477TIP3    H179846   6.206   4.303  14.365  1.0965 -2.6454 -1.1985
19477TIP3    H279847   6.152   4.176  14.427  2.3416 -1.6565  2.0300
19478TIP3   OH279848   4.032   2.860  16.711  0.2375 -0.3819  0.2610
19478TIP3    H179849   4.043   2.779  16.662 -3.2861  0.2140 -1.7170
19478TIP3    H279850   3.952   2.899  16.675  0.2828  2.5709  3.1081
19479TIP3   OH279851   5.572   4.530   4.188 -0.6933  0.3445  0.0587
19479TIP3    H179852   5.612   4.521   4.102 -0.5991  1.1917  0.0151
19479TIP3    H279853   5.632   4.486   4.248  0.0593  1.2024 -0.0715
19480TIP3   OH279854   3.303   4.481   6.099  0.5534 -0.2120  0.2262
19480TIP3    H179855   3.370   4.413   6.097  0.4213 -0.3358  0.0121
19480TIP3    H279856   3.331   4.545   6.034  1.1737  0.4059  1.1014
19481TIP3   OH279857   4.782   1.679   1.602 -0.0821  0.6673  0.4621
19481TIP3    H179858   4.834   1.754   1.576  1.6205 -0.5715  0.1676
19481TIP3    H279859   4.842   1.605   1.595 -1.6478 -0.6867  0.9662
19482TIP3   OH279860   0.353   2.273   3.568  0.3403 -0.6844 -0.1748
19482TIP3    H179861   0.365   2.327   3.647 -0.8928 -0.1033 -0.3721
19482TIP3    H279862   0.349   2.336   3.496  1.9614 -1.2479 -0.7705
19483TIP3   OH279863   2.106   5.371  13.854  0.1698 -0.0855 -0.8003
19483TIP3    H179864   2.058   5.451  13.876 -1.3593 -1.4126  0.9281
19483TIP3    H279865   2.066   5.304  13.910  2.9913 -1.5680 -0.5005
19484TIP3   OH279866   5.685   5.904   1.520  0.1016  0.5326 -0.6534
19484TIP3    H179867   5.611   5.844   1.515 -0.6168  1.4493 -1.1046
19484TIP3    H279868   5.750   5.858   1.573 -1.1685  0.1369  0.5609
19485TIP3   OH279869   3.267   0.469   2.850  0.3755  0.7444 -0.9156
19485TIP3    H179870   3.257   0.411   2.926 -0.8400 -1.4512 -2.7062
19485TIP3    H279871   3.352   0.446   2.813 -0.5054 -0.6062 -2.1632
19486TIP3   OH279872   3.453   2.476   0.952 -0.0564  0.0253 -0.3621
19486TIP3    H179873   3.522   2.542   0.949  0.6433 -0.7281 -1.6234
19486TIP3    H279874   3.376   2.522   0.985  0.6445  1.2627 -0.4477
19487TIP3   OH279875   0.007   2.604  12.857  0.1822 -0.3269 -0.4910
19487TIP3    H179876  -0.027   2.575  12.772 -0.3460  3.2576 -1.6143
19487TIP3    H279877   0.093   2.641  12.837  0.2704  0.0960  0.6262
19488TIP3   OH279878   5.065   1.543  10.760  0.3735 -0.2166  0.4427
19488TIP3    H179879   5.076   1.637  10.770 -0.9685  0.0190 -0.0944
19488TIP3    H279880   4.984   1.523  10.809 -1.9226 -0.3066 -3.2362
19489TIP3   OH279881   4.738   0.370  12.765  0.2474  0.2983 -0.2139
19489TIP3    H179882   4.662   0.322  12.797  0.5154 -1.0119 -1.5065
19489TIP3    H279883   4.709   0.407  12.681 -0.0646  2.6766  0.9139
19490TIP3   OH279884   1.990   3.134   3.220  0.1785 -0.5095  0.2466
19490TIP3    H179885   2.069   3.157   3.268  1.7030 -1.2577 -1.8786
19490TIP3    H279886   1.950   3.218   3.198  1.9009 -0.0346 -1.1496
19491TIP3   OH279887   3.943   1.017   4.505 -0.1998 -0.3271  0.2240
19491TIP3    H179888   3.867   1.072   4.490 -1.0312 -0.9338  2.0943
19491TIP3    H279889   3.920   0.963   4.580  2.1310 -0.3891  0.9577
19492TIP3   OH279890   3.291   3.461  15.316 -0.1570 -0.0385  0.2270
19492TIP3    H179891   3.277   3.430  15.227  0.4823  0.7606 -0.1596
19492TIP3    H279892   3.296   3.556  15.308  0.3299  0.0106  1.0532
19493TIP3   OH279893   5.430   2.325  15.822  0.1605  0.0704 -0.0196
19493TIP3    H179894   5.508   2.273  15.801 -0.0900  0.8257 -3.1151
19493TIP3    H279895   5.448   2.362  15.908  2.4263 -1.2677  0.1186
19494TIP3   OH279896   6.019   1.014   0.599 -0.2397 -0.1732  0.0807
19494TIP3    H179897   5.957   1.035   0.668  1.5260  0.8489  1.4085
19494TIP3    H279898   5.993   1.070   0.525  1.9284  3.9282  2.2184
19495TIP3   OH279899   3.253   2.879  17.167  0.1612  0.0313  0.0401
19495TIP3    H179900   3.211   2.897  17.083  0.1189 -1.4524 -0.2672
19495TIP3    H279901   3.346   2.892  17.149  0.2004 -0.7808 -0.3798
19496TIP3   OH279902   0.738   6.433   3.300  0.6055 -0.5387  0.2951
19496TIP3    H179903   0.697   6.416   3.215  0.3427  0.7936  0.1431
19496TIP3    H279904   0.703   6.365   3.358 -0.9745 -0.0960 -0.1118
19497TIP3   OH279905   2.082   0.555  10.717  0.3172 -0.0712  0.2952
19497TIP3    H179906   2.142   0.508  10.658 -0.5112 -1.1516  0.3159
19497TIP3    H279907   2.006   0.498  10.724 -0.3008  0.8527  1.0661
19498TIP3   OH279908   1.129   6.533   1.417  0.0560  0.1132 -0.0265
19498TIP3    H179909   1.145   6.454   1.364  0.9400  0.2692  0.0015
19498TIP3    H279910   1.083   6.501   1.494  0.3472 -0.3729 -0.0502
19499TIP3   OH279911   2.120   5.393  13.496  0.5934 -0.1730 -0.3361
19499TIP3    H179912   2.181   5.326  13.465 -0.7610 -1.1300 -0.9888
19499TIP3    H279913   2.126   5.390  13.591  1.4101 -0.4094 -0.3973
19500TIP3   OH279914   6.276   0.636   1.299  0.4073  0.3875  0.0685
19500TIP3    H179915   6.249   0.693   1.227 -1.7307 -0.9092 -0.1948
19500TIP3    H279916   6.330   0.569   1.257  0.1770  0.3252 -0.1274
19501TIP3   OH279917   4.301   6.262   2.662 -0.2692  0.1856  0.6382
19501TIP3    H179918   4.351   6.230   2.737 -0.8810 -1.0895  0.5302
19501TIP3    H279919   4.214   6.223   2.673 -1.3106  2.5182  0.9275
19502TIP3   OH279920   0.819   0.210   3.906  0.3818  0.2943  0.1446
19502TIP3    H179921   0.735   0.177   3.876  0.3500  0.4739  0.0395
19502TIP3    H279922   0.845   0.149   3.976  1.9726 -2.0596 -2.4005
19503TIP3   OH279923   4.758   5.483  13.579  0.2652 -0.3220 -0.0143
19503TIP3    H179924   4.782   5.410  13.522 -1.1987  0.1694 -1.3175
19503TIP3    H279925   4.763   5.448  13.668 -1.0087 -2.1891 -0.6511
19504TIP3   OH279926   5.818   6.307   1.163  0.4333 -0.0612  0.2783
19504TIP3    H179927   5.865   6.314   1.247  0.9778 -0.0306 -0.0257
19504TIP3    H279928   5.733   6.270   1.186  0.5131  0.1215  0.8717
19505TIP3   OH279929   0.591   5.603  14.013 -0.1383  0.2367 -0.1811
19505TIP3    H179930   0.557   5.689  13.990 -0.5104 -0.2635 -1.5224
19505TIP3    H279931   0.609   5.609  14.107  0.3427  1.9432 -0.3671
19506TIP3   OH279932   6.756   0.586   2.361 -0.2559 -0.5001 -0.0906
19506TIP3    H179933   6.729   0.663   2.412 -1.6607 -0.7050 -0.5066
19506TIP3    H279934   6.727   0.512   2.414  1.6657 -0.7762  0.6192
19507TIP3   OH279935   2.834   6.401  13.832  0.3791 -0.1609  0.0094
19507TIP3    H179936   2.915   6.354  13.811  0.5400  0.8007 -1.6670
19507TIP3    H279937   2.777   6.384  13.757 -0.4727  0.2808  0.5476
19508TIP3   OH279938   2.314   5.487  16.227 -0.6713 -0.2179 -0.0078
19508TIP3    H179939   2.383   5.444  16.277 -0.2429 -0.5055 -0.8305
19508TIP3    H279940   2.350   5.494  16.138 -1.0024  1.2234 -0.0448
19509TIP3   OH279941   5.079   2.557   1.970  0.2445  0.0236 -0.0697
19509TIP3    H179942   5.081   2.585   2.062 -0.0171  1.5139 -0.5033
19509TIP3    H279943   5.035   2.628   1.924 -3.2013 -2.4313 -0.7924
19510TIP3   OH279944   0.087   1.843   5.688  0.2493  0.4878  0.1413
19510TIP3    H179945   0.095   1.778   5.758 -0.2557 -0.6817 -0.8434
19510TIP3    H279946   0.146   1.914   5.713 -1.3505  0.9551  2.6729
19511TIP3   OH279947   5.962   4.586   3.260 -0.0242 -0.2547  0.2363
19511TIP3    H179948   6.041   4.560   3.213  0.5363 -0.0960  1.0766
19511TIP3    H279949   5.899   4.609   3.191  0.4601 -0.9554 -0.4447
19512TIP3   OH279950   3.051   2.423  11.151  0.3976 -0.2238  0.6654
19512TIP3    H179951   3.016   2.349  11.101 -1.9485  1.3283 -0.0217
19512TIP3    H279952   3.073   2.488  11.085 -1.7255  1.4160  1.5362
19513TIP3   OH279953   2.299   5.321   2.246  0.0699  0.3104 -0.4908
19513TIP3    H179954   2.251   5.240   2.230  2.0822 -0.6047 -2.3493
19513TIP3    H279955   2.237   5.379   2.289 -2.2286 -1.2935 -1.5719
19514TIP3   OH279956   5.355   5.945  15.885 -0.6727  0.7407  0.2398
19514TIP3    H179957   5.361   5.851  15.870 -3.5093  0.5882 -0.2188
19514TIP3    H279958   5.342   5.982  15.797  0.2327  1.5508  0.4381
19515TIP3   OH279959   3.939   5.335   5.406 -0.1903  0.3114  0.1103
19515TIP3    H179960   3.917   5.349   5.498  2.3933  0.8092  0.6886
19515TIP3    H279961   3.925   5.420   5.365  1.3942  0.8206  0.6255
19516TIP3   OH279962   2.913   4.074   4.667  0.6026 -0.0695 -0.1198
19516TIP3    H179963   2.902   3.989   4.711  1.0961 -0.0691  0.0030
19516TIP3    H279964   2.871   4.062   4.581  0.3927 -0.3378  0.0181
19517TIP3   OH279965   0.566   0.901  12.118 -0.3020  0.2180  0.6185
19517TIP3    H179966   0.473   0.877  12.125 -0.7885  2.0182  0.5863
19517TIP3    H279967   0.565   0.996  12.106  1.5393  0.2036  0.2414
19518TIP3   OH279968   1.424   2.242  14.315  0.5849 -0.3736  0.0881
19518TIP3    H179969   1.430   2.317  14.373 -1.4743  0.9914 -1.4144
19518TIP3    H279970   1.471   2.269  14.236  2.3623 -1.7899  0.6083
19519TIP3   OH279971   3.796   3.688   0.666 -0.0207 -0.2002 -0.2829
19519TIP3    H179972   3.847   3.698   0.746  1.4760  0.3195 -1.2817
19519TIP3    H279973   3.798   3.594   0.648 -0.8547 -0.3911  0.6002
19520TIP3   OH279974   2.173   1.225   1.571 -0.0221 -0.4408  0.1403
19520TIP3    H179975   2.261   1.188   1.580 -0.7636 -1.9866  1.4274
19520TIP3    H279976   2.133   1.175   1.499  0.1798  0.3039 -0.4868
19521TIP3   OH279977   5.478   1.805   4.062 -0.2799  0.0599 -0.0925
19521TIP3    H179978   5.416   1.735   4.080 -0.2504  0.1695  0.4330
19521TIP3    H279979   5.553   1.786   4.118  0.4985 -0.5111 -1.2867
19522TIP3   OH279980   3.052   3.193  16.100  0.1429 -0.6070 -0.3819
19522TIP3    H179981   3.134   3.199  16.050 -0.6810  3.6531 -1.4735
19522TIP3    H279982   2.984   3.203  16.033 -1.0818  0.7771  1.0400
19523TIP3   OH279983   1.612   0.022  13.135  0.0253  0.6781  0.5283
19523TIP3    H179984   1.676  -0.049  13.129 -0.3660  0.1004  2.8309
19523TIP3    H279985   1.661   0.100  13.109  1.0933 -0.0683  0.2544
19524TIP3   OH279986   1.592   6.518  15.831 -0.3338 -0.5876 -0.5732
19524TIP3    H179987   1.614   6.425  15.839  1.2583 -0.0835  1.0964
19524TIP3    H279988   1.652   6.551  15.765  1.5577  0.0145  1.4173
19525TIP3   OH279989   6.300   1.708  12.353  0.3058 -0.0649 -0.6206
19525TIP3    H179990   6.346   1.664  12.281  1.2181 -0.8360  0.4243
19525TIP3    H279991   6.315   1.801  12.337  1.1188 -0.2595 -1.0344
19526TIP3   OH279992   5.189   3.384   0.812 -0.5279  0.8462 -0.2646
19526TIP3    H179993   5.112   3.412   0.862 -0.3369 -0.2698  0.6491
19526TIP3    H279994   5.244   3.338   0.875  1.9208  3.4526 -0.3777
19527TIP3   OH279995   0.438   5.170  11.544 -0.3744  0.3932  0.1539
19527TIP3    H179996   0.437   5.093  11.601 -0.7260 -1.1492 -1.8679
19527TIP3    H279997   0.350   5.173  11.507 -0.1559  1.3801 -0.2968
19528TIP3   OH279998   3.843   3.674   4.650 -0.0618  0.0260  0.2747
19528TIP3    H179999   3.830   3.587   4.690 -0.0439  0.0674  0.3700
19528TIP3    H280000   3.782   3.675   4.577 -1.2309  0.5525  1.2395
19529TIP3   OH280001   2.273   1.476  11.054 -0.3321  0.2574  0.2851
19529TIP3    H180002   2.259   1.410  11.122 -1.0049  0.0039 -0.0970
19529TIP3    H280003   2.223   1.444  10.978 -0.7665  1.2693  0.1369
19530TIP3   OH280004   2.959   4.238  15.901  0.0913 -0.3505  0.1637
19530TIP3    H180005   2.900   4.240  15.826 -0.0281 -0.3527  0.2574
19530TIP3    H280006   2.983   4.330  15.915  0.8057 -0.4461 -0.4212
19531TIP3   OH280007   6.392   0.196   2.857  0.3085 -0.5645 -0.2187
19531TIP3    H180008   6.304   0.223   2.883  1.0525 -1.1354  3.0187
19531TIP3    H280009   6.432   0.275   2.820 -0.8705  0.1982  0.1136
19532TIP3   OH280010   1.214   4.460  13.902  0.6754 -0.3696  0.6761
19532TIP3    H180011   1.206   4.555  13.894  0.3262 -0.5601 -1.5973
19532TIP3    H280012   1.129   4.426  13.875  1.2867 -1.3691 -0.0694
19533TIP3   OH280013   5.450   1.083  16.489  0.1564 -0.5343 -0.3789
19533TIP3    H180014   5.485   1.052  16.572  0.5274 -1.5731 -0.9062
19533TIP3    H280015   5.527   1.105  16.437  0.0853 -2.8996 -1.5695
19534TIP3   OH280016   3.438   1.410   5.998 -0.0429  0.1417 -0.3954
19534TIP3    H180017   3.448   1.455   5.915  1.9056 -0.3796 -0.4790
19534TIP3    H280018   3.364   1.453   6.041  0.1697  1.6821 -1.5589
19535TIP3   OH280019   6.675   2.273  14.679 -0.1657  0.5607 -0.1016
19535TIP3    H180020   6.752   2.218  14.673 -0.5599 -0.1610  1.1544
19535TIP3    H280021   6.709   2.363  14.678  1.0060  0.2415  3.7551
19536TIP3   OH280022   2.629   1.257   0.767 -0.0369 -0.4582 -0.5940
19536TIP3    H180023   2.638   1.294   0.855  1.4100 -2.2323  0.0577
19536TIP3    H280024   2.633   1.332   0.708  0.9247  0.5890  0.7708
19537TIP3   OH280025   5.162   2.678  11.282 -0.2283 -0.2373  0.5716
19537TIP3    H180026   5.144   2.644  11.194 -4.0272 -0.8177  1.4703
19537TIP3    H280027   5.130   2.609  11.341  0.0980  1.1490  2.4189
19538TIP3   OH280028   2.398   5.028  13.923 -0.3179  0.3421 -0.5022
19538TIP3    H180029   2.431   5.109  13.884 -0.1318  0.1143 -0.8200
19538TIP3    H280030   2.377   4.973  13.848  1.2576 -0.5873 -0.2743
19539TIP3   OH280031   2.478   6.330  13.234 -0.1210 -0.4420 -0.7350
19539TIP3    H180032   2.414   6.269  13.198  0.8345 -1.9762  0.0927
19539TIP3    H280033   2.525   6.364  13.158 -1.3874  0.1075 -1.2865
19540TIP3   OH280034   3.216   4.870  12.118 -0.3994  0.0812 -0.5061
19540TIP3    H180035   3.276   4.829  12.056 -0.0650 -0.7143  0.3324
19540TIP3    H280036   3.131   4.831  12.099 -0.3798  0.1455 -0.7305
19541TIP3   OH280037   3.069   1.761   2.745 -0.5970  0.2979 -0.3987
19541TIP3    H180038   3.102   1.823   2.810 -0.7633  1.9159 -1.8007
19541TIP3    H280039   3.071   1.676   2.789  2.9533  0.7245  0.4010
19542TIP3   OH280040   3.582   3.126  16.920  0.0071 -0.2278  0.6951
19542TIP3    H180041   3.630   3.190  16.973  0.2241 -0.8109  1.2197
19542TIP3    H280042   3.570   3.168  16.835 -0.1643  0.6411  1.1487
19543TIP3   OH280043   6.776   0.367   3.760  0.1316 -0.1847 -0.1952
19543TIP3    H180044   6.769   0.368   3.856  1.3989 -1.0547 -0.0750
19543TIP3    H280045   6.868   0.389   3.744 -0.4797  1.6095 -1.2747
19544TIP3   OH280046   5.181   3.642  11.777  0.2708 -0.5382  0.4571
19544TIP3    H180047   5.127   3.594  11.714  2.6905 -0.3365 -1.8738
19544TIP3    H280048   5.191   3.583  11.851 -0.0315 -2.0613 -0.6991
19545TIP3   OH280049   2.422   1.268  11.589 -0.3759  0.5782 -0.4436
19545TIP3    H180050   2.505   1.235  11.624 -1.3500 -0.4146  0.9568
19545TIP3    H280051   2.382   1.315  11.662 -1.4531  0.2923 -0.8453
19546TIP3   OH280052   4.898   0.983  17.018 -0.4729 -0.3586 -0.1183
19546TIP3    H180053   4.911   0.973  17.112  0.8823 -2.6554 -0.4922
19546TIP3    H280054   4.951   1.059  16.994  0.4423 -0.7107  0.7435
19547TIP3   OH280055   6.076   2.048   1.696 -0.4561  0.1146 -0.1135
19547TIP3    H180056   6.084   2.028   1.789 -1.6534 -0.3412 -0.0969
19547TIP3    H280057   6.137   2.120   1.681  0.3380 -0.3421  0.8482
19548TIP3   OH280058   1.119   5.078   0.982  0.2069 -0.3826 -0.3288
19548TIP3    H180059   1.038   5.059   0.934 -0.2992 -2.0574  1.1203
19548TIP3    H280060   1.171   5.132   0.923 -1.6697  0.0892 -1.5634
19549TIP3   OH280061   5.672   3.023  14.907 -0.0517  0.1643  0.5399
19549TIP3    H180062   5.653   2.961  14.977 -0.3008 -1.6619 -1.1110
19549TIP3    H280063   5.766   3.014  14.892 -0.0998  0.1307  0.2535
19550TIP3   OH280064   4.270   5.445   3.435 -0.2535  0.0056 -0.3359
19550TIP3    H180065   4.349   5.459   3.383 -0.0592  1.9470  0.4622
19550TIP3    H280066   4.286   5.493   3.516 -2.6019  1.0689 -0.4912
19551TIP3   OH280067   5.564   0.338   2.268  0.1721 -0.5727 -0.0255
19551TIP3    H180068   5.643   0.390   2.282  0.3143 -0.5650 -0.8031
19551TIP3    H280069   5.595   0.250   2.250  0.0947 -0.2474 -1.8664
19552TIP3   OH280070   3.130   5.441   6.382  0.1127  0.2554  0.7114
19552TIP3    H180071   3.057   5.500   6.364 -0.7381 -1.3254 -1.2506
19552TIP3    H280072   3.194   5.495   6.429 -0.5218  2.7981 -1.2170
19553TIP3   OH280073   0.805   3.730  15.785 -0.4462  0.4740  0.0456
19553TIP3    H180074   0.742   3.679  15.735 -0.7895  0.7069  0.2349
19553TIP3    H280075   0.884   3.676  15.788 -0.1771  0.7633 -1.3692
19554TIP3   OH280076   4.555   3.550  11.740 -0.5017  0.0843  0.5721
19554TIP3    H180077   4.544   3.550  11.645  0.2841  0.7961  0.4770
19554TIP3    H280078   4.517   3.633  11.769  0.4577  0.4802  0.7276
19555TIP3   OH280079   0.443   4.779   1.055 -0.4248 -0.8155 -0.0504
19555TIP3    H180080   0.518   4.736   1.096  0.0521  1.5130  1.6194
19555TIP3    H280081   0.368   4.729   1.086  0.3172 -2.3285 -0.6224
19556TIP3   OH280082   2.844   1.305  11.108  0.3820 -0.1843 -0.3255
19556TIP3    H180083   2.927   1.324  11.065 -1.4722 -0.5056 -4.2771
19556TIP3    H280084   2.777   1.331  11.044 -2.5319 -1.9857  1.8475
19557TIP3   OH280085   2.980   3.938  12.802 -0.2827 -0.3487  0.0514
19557TIP3    H180086   2.919   3.880  12.756  0.1169 -1.3290  0.7451
19557TIP3    H280087   2.994   3.896  12.887  0.2561  0.6061  0.4473
19558TIP3   OH280088   2.120   0.894  15.799  0.3354 -0.1834  0.7220
19558TIP3    H180089   2.095   0.814  15.846  1.0079 -1.0976 -0.4304
19558TIP3    H280090   2.214   0.884  15.783 -0.0069 -0.2121 -1.3752
19559TIP3   OH280091   2.859   5.347   3.323 -0.7293 -0.1111  0.0634
19559TIP3    H180092   2.911   5.377   3.397 -1.0873 -2.1389  1.1929
19559TIP3    H280093   2.918   5.350   3.248 -0.3147  1.8051  0.4414
19560TIP3   OH280094   5.743   3.037  12.146  0.6142  0.3618  0.0021
19560TIP3    H180095   5.773   2.978  12.077 -1.3789 -1.6145  0.7757
19560TIP3    H280096   5.809   3.029  12.215  1.4482  0.6736 -0.7455
19561TIP3   OH280097   6.394   1.797   5.806 -0.2739  0.2026 -0.1977
19561TIP3    H180098   6.336   1.725   5.783  1.9048 -0.9727 -2.1161
19561TIP3    H280099   6.361   1.828   5.891 -2.5305 -1.6257 -0.3697
19562TIP3   OH280100   1.011   4.085   3.186  0.1356 -0.2847  0.4704
19562TIP3    H180101   1.067   4.099   3.109 -0.2979  0.8557  0.3572
19562TIP3    H280102   0.925   4.065   3.150 -0.2895  1.1730  0.6528
19563TIP3   OH280103   3.789   5.681   3.427 -0.9241  0.2414 -0.7671
19563TIP3    H180104   3.855   5.621   3.393 -1.4162 -0.8327  0.1563
19563TIP3    H280105   3.708   5.656   3.383 -1.7891 -1.8570  1.9371
19564TIP3   OH280106   6.215   0.380  15.859  0.2886  0.4181 -0.1946
19564TIP3    H180107   6.125   0.389  15.829  0.2703  1.0504  0.0490
19564TIP3    H280108   6.249   0.470  15.862  0.4845  0.3060  1.0887
19565TIP3   OH280109   3.462   1.784   5.726 -0.0057  0.2514  0.1206
19565TIP3    H180110   3.453   1.879   5.733 -0.0348  0.2814 -0.3268
19565TIP3    H280111   3.467   1.767   5.632  0.2581 -0.1653  0.2090
19566TIP3   OH280112   5.410   4.825  16.636  0.1778 -0.8051  0.1086
19566TIP3    H180113   5.455   4.800  16.555  2.8568  0.0409  1.2844
19566TIP3    H280114   5.397   4.919  16.628  0.7549 -0.6627  0.7916
19567TIP3   OH280115   2.038   3.927   3.012  0.2436 -0.2291  0.4942
19567TIP3    H180116   1.951   3.946   3.048  0.7061  0.1766  1.4012
19567TIP3    H280117   2.021   3.905   2.921 -0.6568  1.2571  0.2884
19568TIP3   OH280118   1.705   6.260  12.188 -0.1299  0.2086 -0.6811
19568TIP3    H180119   1.790   6.303  12.179 -0.0462  0.0933 -0.4455
19568TIP3    H280120   1.711   6.182  12.132 -0.5045  0.8304 -1.6043
19569TIP3   OH280121   5.217   1.220   5.890  0.3441 -0.4508 -0.4418
19569TIP3    H180122   5.195   1.296   5.944 -1.3723  0.5185 -2.4069
19569TIP3    H280123   5.307   1.237   5.862  1.1898 -0.8910  1.9423
19570TIP3   OH280124   6.180   1.482   6.036  0.0008  0.3801 -0.0815
19570TIP3    H180125   6.237   1.496   6.112  1.7675 -0.0465 -1.2993
19570TIP3    H280126   6.107   1.432   6.070  0.9291 -0.0870  1.2852
19571TIP3   OH280127   3.959   3.510   2.243 -0.4568 -0.3951  0.1065
19571TIP3    H180128   3.975   3.447   2.173  0.5498 -0.1753  0.1284
19571TIP3    H280129   3.980   3.595   2.204 -0.4455 -0.2166  0.4995
19572TIP3   OH280130   1.056   6.389   4.211  0.3615 -0.1547 -0.1260
19572TIP3    H180131   1.046   6.327   4.284 -0.1137 -0.1821 -0.2096
19572TIP3    H280132   1.129   6.445   4.237  0.2768 -0.2427  0.3146
19573TIP3   OH280133   6.040   0.748   2.754  0.2066  0.6303 -0.2662
19573TIP3    H180134   5.963   0.738   2.811 -1.1465  1.4609 -1.9181
19573TIP3    H280135   6.083   0.828   2.787 -0.1229  0.6614  0.1000
19574TIP3   OH280136   5.863   0.665  13.024  0.6610  0.1696 -0.4083
19574TIP3    H180137   5.957   0.651  13.012  0.6860 -0.7143  0.7825
19574TIP3    H280138   5.848   0.655  13.118 -0.6391  0.1759 -0.5970
19575TIP3   OH280139   4.515   5.725  14.652  0.1592 -0.0728  0.2655
19575TIP3    H180140   4.580   5.656  14.638  0.7501  0.0416  2.1940
19575TIP3    H280141   4.432   5.686  14.628  0.8595 -0.4533 -1.5759
19576TIP3   OH280142   6.118   1.215  12.788  0.0207 -0.4002 -0.4881
19576TIP3    H180143   6.210   1.197  12.770 -0.1856 -1.8424 -0.1709
19576TIP3    H280144   6.117   1.252  12.876  0.3191 -0.2187 -0.5615
19577TIP3   OH280145   3.215   2.662  14.792  0.1062 -0.0312  0.7900
19577TIP3    H180146   3.268   2.610  14.732 -1.0413 -1.0008  0.5789
19577TIP3    H280147   3.186   2.737  14.739 -0.2028 -0.4368  0.3797
19578TIP3   OH280148   3.514   5.208  11.890  0.0237  0.6664 -0.1546
19578TIP3    H180149   3.538   5.296  11.861 -0.7644  1.3058  1.1273
19578TIP3    H280150   3.580   5.151  11.849  0.8695  1.8950 -0.5434
19579TIP3   OH280151   6.205   3.915   3.477  0.7571  0.0970  0.5930
19579TIP3    H180152   6.241   3.908   3.388 -0.4014  2.7486 -0.1421
19579TIP3    H280153   6.272   3.959   3.527  0.4107  0.8793  0.3793
19580TIP3   OH280154   6.122   6.632   0.164 -0.1282  0.4223 -0.4363
19580TIP3    H180155   6.068   6.554   0.152 -0.8160  0.9139 -0.5693
19580TIP3    H280156   6.158   6.650   0.078 -2.0991  1.7891 -1.0066
19581TIP3   OH280157   1.701   3.507  14.812 -0.7651  0.0740 -0.0155
19581TIP3    H180158   1.770   3.450  14.779 -0.9528  0.0392 -0.3518
19581TIP3    H280159   1.638   3.512  14.740 -1.6474 -0.7757  0.6951
19582TIP3   OH280160   1.156   0.997  14.736  0.5754  0.2809 -0.2423
19582TIP3    H180161   1.116   1.082  14.719  0.4562  0.2603 -0.0622
19582TIP3    H280162   1.102   0.934  14.687 -0.0463  0.1649  0.5838
19583TIP3   OH280163   4.969   6.046  11.809 -0.5507 -0.3419 -0.5427
19583TIP3    H180164   4.894   5.991  11.786  0.0619 -1.0107 -0.9878
19583TIP3    H280165   5.037   5.984  11.835 -0.5810  0.3278  1.1740
19584TIP3   OH280166   4.067   0.813  14.601  0.5876  0.4368 -0.3801
19584TIP3    H180167   4.064   0.718  14.599 -0.2445  0.4788 -2.3646
19584TIP3    H280168   4.159   0.834  14.615  0.3769 -0.6416  3.0321
19585TIP3   OH280169   5.598   1.229  17.203 -0.3580 -0.2199  0.3603
19585TIP3    H180170   5.534   1.237  17.273  1.0941 -1.9289  1.9757
19585TIP3    H280171   5.547   1.228  17.122 -2.3339 -1.3322  1.5959
19586TIP3   OH280172   3.059   0.998   2.716  0.1793  0.0340 -0.4999
19586TIP3    H180173   3.109   1.065   2.763 -2.9821  0.8754  1.8178
19586TIP3    H280174   3.064   0.921   2.772 -0.8902  0.0718 -0.3379
19587TIP3   OH280175   3.112   1.619  15.095  0.4347  0.0274  0.6029
19587TIP3    H180176   3.116   1.538  15.044  0.0636  0.9744 -0.9489
19587TIP3    H280177   3.064   1.595  15.174  1.6431 -1.6320  0.8601
19588TIP3   OH280178   6.246   0.673  12.762  0.3774 -0.8211  0.4500
19588TIP3    H180179   6.202   0.754  12.791  2.5641  0.1716  1.1482
19588TIP3    H280180   6.279   0.634  12.843  2.7388 -0.3271 -0.2265
19589TIP3   OH280181   3.789   2.979  12.430 -0.1664 -0.1114  0.3992
19589TIP3    H180182   3.858   3.044  12.443 -0.1955 -0.1495  0.7520
19589TIP3    H280183   3.825   2.917  12.367  0.1356 -0.1527  0.6103
19590TIP3   OH280184   0.030   5.135   4.858 -0.3746 -0.2122  0.1463
19590TIP3    H180185  -0.010   5.114   4.942  0.1767 -0.4922  0.3321
19590TIP3    H280186   0.089   5.208   4.877 -1.4193  0.7712 -0.2831
19591TIP3   OH280187   3.656   4.488   5.632 -0.7655  0.4303 -0.2176
19591TIP3    H180188   3.618   4.427   5.695 -1.3299  0.2407 -0.7318
19591TIP3    H280189   3.749   4.469   5.632 -1.2385 -2.2471 -2.2787
19592TIP3   OH280190   1.924   5.751   5.212  0.1037  0.3468  0.1337
19592TIP3    H180191   1.836   5.726   5.186 -0.0548  0.8176  0.2220
19592TIP3    H280192   1.977   5.735   5.134 -0.0898  0.2429  0.0225
19593TIP3   OH280193   1.958   6.065  11.631  0.0802  0.0837  0.2693
19593TIP3    H180194   1.863   6.063  11.620  0.3138  0.4108 -2.0139
19593TIP3    H280195   1.993   6.067  11.542  2.3416 -3.8293  0.9708
19594TIP3   OH280196   2.294   5.047  12.574  0.0463 -0.0259  0.7104
19594TIP3    H180197   2.245   5.129  12.577  1.7680  1.0116  1.0539
19594TIP3    H280198   2.312   5.034  12.481 -0.5017 -0.2041  0.6230
19595TIP3   OH280199   6.401   2.131  15.670 -0.1734 -0.2012  0.1353
19595TIP3    H180200   6.309   2.106  15.680 -0.5641  0.2768 -1.9688
19595TIP3    H280201   6.418   2.121  15.576  2.0846 -0.8196  0.5940
19596TIP3   OH280202   2.792   6.431   1.406  0.4903 -0.4253  0.3297
19596TIP3    H180203   2.863   6.426   1.470  0.2005 -0.3131  0.6598
19596TIP3    H280204   2.712   6.418   1.457  0.0814  2.1614  0.4000
19597TIP3   OH280205   2.027   5.811  14.345  0.2606  0.8630  0.0120
19597TIP3    H180206   1.965   5.740  14.359 -0.9693  1.6667 -1.2057
19597TIP3    H280207   2.033   5.819  14.249  1.4829  1.4438  0.1223
19598TIP3   OH280208   5.816   2.073  12.697  0.3256 -0.6096 -0.5724
19598TIP3    H180209   5.812   1.978  12.687  1.1090 -0.8706  1.3859
19598TIP3    H280210   5.830   2.087  12.790  1.4633  1.4034 -1.0044
19599TIP3   OH280211   5.415   2.255  11.789 -0.0135 -0.0400 -0.1853
19599TIP3    H180212   5.349   2.207  11.739  0.8936 -2.1143  0.5607
19599TIP3    H280213   5.409   2.220  11.877  1.1821  0.7000  0.2042
19600TIP3   OH280214   1.071   2.260   2.495  0.4969 -0.4828  0.0718
19600TIP3    H180215   1.115   2.242   2.579 -2.1686  0.1779  1.6707
19600TIP3    H280216   1.058   2.173   2.456 -1.1818 -1.1075  1.9296
19601TIP3   OH280217   5.361   1.934  12.185 -0.0569 -0.3503 -0.2455
19601TIP3    H180218   5.337   1.850  12.146 -0.2077  0.1889 -1.3314
19601TIP3    H280219   5.279   1.968  12.221 -0.1758 -0.2359 -0.6281
19602TIP3   OH280220   0.795   5.044   1.259 -0.0133 -0.5614  0.3278
19602TIP3    H180221   0.802   5.139   1.270 -0.4313 -0.6294  1.2230
19602TIP3    H280222   0.720   5.019   1.312  1.2489 -1.6480  1.6511
19603TIP3   OH280223   1.499   6.709   3.809  0.7553 -1.1696 -0.0874
19603TIP3    H180224   1.503   6.633   3.751 -0.4269 -0.9616 -0.4630
19603TIP3    H280225   1.413   6.701   3.852  0.7123 -0.1527  0.0113
19604TIP3   OH280226   3.213   3.764  15.660 -0.1363  0.2667  0.1581
19604TIP3    H180227   3.298   3.724  15.676  0.8152  0.9737 -2.8608
19604TIP3    H280228   3.159   3.736  15.734  1.4952 -3.6887 -0.0506
19605TIP3   OH280229   4.642   6.454   2.079 -0.1313 -0.6966  0.3416
19605TIP3    H180230   4.585   6.379   2.061  0.2573 -0.7122 -0.8798
19605TIP3    H280231   4.692   6.428   2.157 -0.4195 -1.4729  0.2737
19606TIP3   OH280232   6.041   5.635   1.108  0.2712  0.1700  0.1282
19606TIP3    H180233   6.095   5.709   1.137  0.5021 -1.0659  2.9211
19606TIP3    H280234   5.952   5.671   1.104  0.8129  1.4100 -1.6158
19607TIP3   OH280235   5.003   2.235   1.481  0.2414  0.8635 -0.5156
19607TIP3    H180236   5.053   2.206   1.558 -0.9384  2.3744  0.8592
19607TIP3    H280237   5.069   2.276   1.425  0.7527  1.7699  0.7265
19608TIP3   OH280238   0.866   0.386  15.556 -0.0817  0.4488  0.0793
19608TIP3    H180239   0.795   0.334  15.519 -0.1901 -0.0852  1.0362
19608TIP3    H280240   0.934   0.322  15.577 -0.2103  0.6911  1.2634
19609TIP3   OH280241   4.146   3.461  16.206 -0.0492  0.3540  0.2718
19609TIP3    H180242   4.067   3.416  16.177 -1.5777  2.1410  1.5371
19609TIP3    H280243   4.164   3.425  16.293 -0.0079  0.6055  0.3678
19610TIP3   OH280244   0.193   5.025   2.299 -0.0418  0.3601 -0.2332
19610TIP3    H180245   0.269   5.066   2.257 -0.0212  0.2623 -0.2920
19610TIP3    H280246   0.154   4.972   2.230  0.1555 -0.0230 -0.0542
19611TIP3   OH280247   2.423   1.639  12.882  0.1489  0.4010  0.2205
19611TIP3    H180248   2.387   1.727  12.872  0.6741  0.8376  2.0459
19611TIP3    H280249   2.518   1.650  12.873  0.2322  0.0392  0.6172
19612TIP3   OH280250   4.632   5.258  14.317 -0.3126  0.6046  0.2507
19612TIP3    H180251   4.725   5.264  14.338 -0.6531  1.8882  1.4687
19612TIP3    H280252   4.630   5.241  14.223  1.1443  1.0365  0.1308
19613TIP3   OH280253   3.030   5.073  12.508  0.8812  0.2515  0.6469
19613TIP3    H180254   2.997   5.162  12.497 -2.4555 -0.9644 -0.0177
19613TIP3    H280255   3.105   5.067  12.449  0.0713  2.0923 -0.6163
19614TIP3   OH280256   6.077   6.721   1.895  0.0747 -0.6552  0.4298
19614TIP3    H180257   6.054   6.649   1.836  1.1207  0.4822 -1.4121
19614TIP3    H280258   5.996   6.741   1.941 -1.0777 -0.8126 -1.4773
19615TIP3   OH280259   4.122   2.330  11.393  0.2049  0.1680  0.0751
19615TIP3    H180260   4.142   2.243  11.429  0.8206  0.8179  1.3267
19615TIP3    H280261   4.199   2.383  11.416 -0.0455  0.9738 -0.9275
19616TIP3   OH280262   2.413   1.994  15.566 -0.0887  0.2129  0.3695
19616TIP3    H180263   2.326   1.978  15.601 -0.3763  0.7560 -0.0805
19616TIP3    H280264   2.397   2.021  15.475  0.4024  2.3077  0.8787
19617TIP3   OH280265   5.552   3.160  10.943  0.3337 -0.5093  0.0507
19617TIP3    H180266   5.554   3.064  10.934 -0.0686 -0.4660 -0.5062
19617TIP3    H280267   5.459   3.183  10.934  0.5203  0.0063 -0.5600
19618TIP3   OH280268   2.846   3.136  10.704 -0.8964 -0.6287 -0.2198
19618TIP3    H180269   2.788   3.107  10.774 -2.2692 -1.2827 -1.5776
19618TIP3    H280270   2.925   3.085  10.714 -0.3136  0.6741  2.0105
19619TIP3   OH280271   3.534   6.050   1.655 -0.7223  0.4109 -0.0298
19619TIP3    H180272   3.505   6.046   1.563  0.2606  1.5023 -0.3972
19619TIP3    H280273   3.613   5.996   1.657 -1.0385 -0.0478  0.3034
19620TIP3   OH280274   4.678   6.248  14.022 -0.7267  0.5606 -0.0654
19620TIP3    H180275   4.754   6.285  13.978 -0.1203  2.4379  2.4543
19620TIP3    H280276   4.694   6.154  14.021  1.1857  0.8651 -0.3532
19621TIP3   OH280277   5.585   6.501  14.128  0.1145  0.1042  0.4488
19621TIP3    H180278   5.625   6.439  14.066  1.1028  3.0874 -2.0174
19621TIP3    H280279   5.492   6.501  14.106 -0.0094 -0.9212  0.9044
19622TIP3   OH280280   4.489   3.606  11.487  0.2691  0.7420 -0.1114
19622TIP3    H180281   4.536   3.682  11.453  3.5475 -1.2518 -0.3280
19622TIP3    H280282   4.441   3.572  11.411  2.1129  0.2663 -1.1155
19623TIP3   OH280283   2.586   1.479  14.145  0.1667 -0.4361  0.0297
19623TIP3    H180284   2.532   1.443  14.216 -0.7751 -0.3201 -0.6183
19623TIP3    H280285   2.564   1.572  14.143  1.3761 -0.1388  0.6254
19624TIP3   OH280286   5.121   0.606   2.556 -0.1806 -0.3549 -0.0820
19624TIP3    H180287   5.152   0.696   2.547  1.5178 -0.8900  0.2429
19624TIP3    H280288   5.169   0.571   2.631 -0.1035 -1.8227 -0.7884
19625TIP3   OH280289   2.610   5.236  14.719  0.3649 -0.2073  0.1627
19625TIP3    H180290   2.529   5.200  14.682  0.2632  0.6207 -0.4453
19625TIP3    H280291   2.613   5.325  14.685  0.6219  0.3485  1.6398
19626TIP3   OH280292   4.051   1.761   4.502  0.3876  0.3069 -0.0010
19626TIP3    H180293   4.025   1.720   4.420 -1.8390  0.6185  0.5182
19626TIP3    H280294   4.128   1.712   4.530 -0.2294 -1.3210 -1.0924
19627TIP3   OH280295   4.972   1.123  13.765 -0.2344 -0.5473  0.9922
19627TIP3    H180296   4.917   1.099  13.840 -0.0351  2.0965  2.0470
19627TIP3    H280297   5.006   1.210  13.787 -0.5484  0.4969 -2.3772
19628TIP3   OH280298   5.205   1.909   3.072 -0.0576 -0.7453  0.3096
19628TIP3    H180299   5.248   1.989   3.102 -2.2924  0.4690  0.3666
19628TIP3    H280300   5.241   1.840   3.129  1.7562  0.2163  0.3629
19629TIP3   OH280301   2.204   4.661   3.956  1.0787 -0.2756  0.0848
19629TIP3    H180302   2.276   4.722   3.973  1.7971 -0.4567 -2.0947
19629TIP3    H280303   2.231   4.580   3.999  1.8264 -0.0998 -0.0332
19630TIP3   OH280304   1.794   5.937   2.055  0.0301 -0.8143  0.6177
19630TIP3    H180305   1.791   6.005   1.987  2.4755 -0.2249  1.0610
19630TIP3    H280306   1.714   5.951   2.106 -0.6715  0.2242 -0.7193
19631TIP3   OH280307   6.568   0.189   5.372  0.0273 -0.1816  0.1078
19631TIP3    H180308   6.624   0.111   5.372  0.7091  0.3062 -0.5268
19631TIP3    H280309   6.510   0.176   5.297  0.5363  0.2010 -0.3554
19632TIP3   OH280310   1.788   2.884   1.451  0.9181 -0.2648  0.1182
19632TIP3    H180311   1.868   2.891   1.398  0.8330  0.4492  0.0793
19632TIP3    H280312   1.819   2.856   1.537  1.0770 -1.2433 -0.2559
19633TIP3   OH280313   1.360   2.434  10.798  0.5112 -0.1610  0.4715
19633TIP3    H180314   1.269   2.409  10.780  0.6547  0.2676 -0.8901
19633TIP3    H280315   1.397   2.358  10.842 -0.2875 -0.6471  0.3208
19634TIP3   OH280316   1.253   5.409   2.939 -0.1481  0.0834  0.3690
19634TIP3    H180317   1.179   5.468   2.927 -1.6089 -1.9804 -1.0944
19634TIP3    H280318   1.315   5.459   2.992 -1.7652  2.5317  0.0315
19635TIP3   OH280319   0.506   4.033  13.439  0.7721  0.3844  0.2608
19635TIP3    H180320   0.478   3.967  13.502 -0.3447  0.1287 -0.4893
19635TIP3    H280321   0.429   4.089  13.427  1.4467  1.3225  0.2579
19636TIP3   OH280322   6.141   2.308   1.545 -0.2479 -0.5944  0.1527
19636TIP3    H180323   6.052   2.339   1.561  0.3537  0.4299  1.6500
19636TIP3    H280324   6.194   2.387   1.541  0.7234 -1.2339  0.1365
19637TIP3   OH280325   0.294   6.118   1.083  0.2386 -0.0560 -0.1943
19637TIP3    H180326   0.311   6.040   1.031  1.5535  0.7412 -1.0042
19637TIP3    H280327   0.253   6.179   1.021  0.1600  0.2605  0.1689
19638TIP3   OH280328   2.875   3.195  15.138  0.9249  0.4432  0.6190
19638TIP3    H180329   2.781   3.182  15.156  0.6686  3.0491  1.3707
19638TIP3    H280330   2.887   3.159  15.050 -0.4427 -1.3379  1.1241
19639TIP3   OH280331   1.371   1.460   5.877 -0.9824 -0.0718  0.1371
19639TIP3    H180332   1.324   1.524   5.824 -1.5925 -0.1945  0.5279
19639TIP3    H280333   1.445   1.508   5.913 -1.7803  0.5713  0.9165
19640TIP3   OH280334   1.948   0.873  17.057 -0.3728  0.0473 -0.5526
19640TIP3    H180335   1.915   0.963  17.049 -0.9206 -0.0295  0.6450
19640TIP3    H280336   1.869   0.819  17.053 -0.1848 -0.2802  0.2138
19641TIP3   OH280337   1.367   3.103   2.953  0.1452  0.4398 -0.3192
19641TIP3    H180338   1.407   3.072   3.034 -2.6109 -0.6071  0.6920
19641TIP3    H280339   1.366   3.198   2.961 -0.7251  0.3158  1.1929
19642TIP3   OH280340   2.465   4.795   0.229 -0.2707  0.0741  0.0782
19642TIP3    H180341   2.534   4.759   0.284 -0.2764  1.0058  0.7053
19642TIP3    H280342   2.485   4.762   0.141  1.3129  0.7836  0.1380
19643TIP3   OH280343   2.617   2.654   4.903  0.4159  0.2719  0.0764
19643TIP3    H180344   2.618   2.705   4.822 -1.2096 -1.0064 -0.7759
19643TIP3    H280345   2.668   2.575   4.882 -1.1729 -0.7108 -0.1671
19644TIP3   OH280346   1.170   5.969  15.445 -0.6423  0.0086  0.8629
19644TIP3    H180347   1.156   5.961  15.540 -1.3271 -1.0427  0.6836
19644TIP3    H280348   1.135   5.887  15.409  0.4854 -0.0134 -0.2088
19645TIP3   OH280349   3.625   5.211  16.805 -0.1024 -0.1629 -0.3423
19645TIP3    H180350   3.717   5.200  16.781  0.1990  0.2700  0.5854
19645TIP3    H280351   3.596   5.287  16.756  0.0208 -0.3471 -0.6997
19646TIP3   OH280352   5.578   2.268   5.255  0.1233  0.4457 -0.4889
19646TIP3    H180353   5.493   2.242   5.220 -0.0116 -0.4986  0.5360
19646TIP3    H280354   5.559   2.308   5.339  0.6519  0.6999 -0.4869
19647TIP3   OH280355   4.739   1.661   5.998 -0.1275  0.4803 -0.5014
19647TIP3    H180356   4.670   1.676   5.933 -0.1889  1.1574 -0.2847
19647TIP3    H280357   4.714   1.716   6.072  0.5449  0.5728 -0.3466
19648TIP3   OH280358   5.934   6.776   5.639 -0.3908  0.0877  0.2825
19648TIP3    H180359   6.009   6.818   5.598  0.3323 -2.4219 -1.1350
19648TIP3    H280360   5.971   6.729   5.714 -0.7530 -0.0803  0.3562
19649TIP3   OH280361   5.290   0.053   0.211  0.6121  0.0835  0.2333
19649TIP3    H180362   5.270   0.039   0.118  2.1295  1.5524 -0.3488
19649TIP3    H280363   5.323   0.143   0.215 -0.4113  0.3852  2.3727
19650TIP3   OH280364   3.480   2.946   4.419 -0.1625  0.0775  0.4515
19650TIP3    H180365   3.407   2.938   4.358  1.8358  0.4924 -2.0810
19650TIP3    H280366   3.529   3.022   4.388  0.4711  0.7970  3.0774
19651TIP3   OH280367   5.846   5.874   5.291  0.1869  0.9642  0.4383
19651TIP3    H180368   5.906   5.901   5.360  2.1195  0.8769 -1.1679
19651TIP3    H280369   5.898   5.816   5.235 -1.0775  1.7259 -1.5874
19652TIP3   OH280370   1.810   3.545   5.511  0.2232 -0.7830 -0.3822
19652TIP3    H180371   1.856   3.577   5.590 -0.3496  0.6968 -0.6241
19652TIP3    H280372   1.749   3.479   5.544 -0.4726  0.2816  0.5415
19653TIP3   OH280373   3.433   0.669  15.787  0.5947  0.8346 -0.1793
19653TIP3    H180374   3.429   0.663  15.882  0.1679  1.1932 -0.1710
19653TIP3    H280375   3.355   0.622  15.756  2.1895 -1.6744 -0.4630
19654TIP3   OH280376   3.040   6.061   5.164  0.1560  0.2286 -0.1758
19654TIP3    H180377   2.973   6.067   5.096 -1.9994 -2.8811  1.5578
19654TIP3    H280378   2.992   6.068   5.246  2.3569  0.9155  1.1044
19655TIP3   OH280379   5.317   4.610   2.597 -0.0506  0.5432 -0.1363
19655TIP3    H180380   5.397   4.614   2.648 -0.6165  1.9152  0.6589
19655TIP3    H280381   5.261   4.679   2.633 -0.9582  0.6879 -1.7474
19656TIP3   OH280382   3.623   1.034   2.829 -0.1337  0.4586  0.0400
19656TIP3    H180383   3.533   1.021   2.800  0.2447 -3.3510  0.3527
19656TIP3    H280384   3.619   1.025   2.925  0.3033  2.2343  0.2452
19657TIP3   OH280385   1.442   5.677   3.370  0.0984 -0.2451  0.0430
19657TIP3    H180386   1.438   5.748   3.435  0.9038 -0.5444  0.4314
19657TIP3    H280387   1.534   5.677   3.341 -0.1014 -0.5691 -0.5866
19658TIP3   OH280388   0.615   6.505   4.456  0.1286  0.3058  0.2945
19658TIP3    H180389   0.672   6.581   4.467 -0.0555  0.4248  0.4265
19658TIP3    H280390   0.671   6.429   4.472  0.3442  0.4095  0.0349
19659TIP3   OH280391   4.335   6.447   3.531  0.3970 -0.4003  0.0919
19659TIP3    H180392   4.391   6.491   3.595  2.7601 -1.1032 -1.4116
19659TIP3    H280393   4.305   6.368   3.575 -1.8842  1.4281  1.9537
19660TIP3   OH280394   2.196   3.635   1.296 -0.5298  0.2268 -0.3088
19660TIP3    H180395   2.102   3.645   1.315 -0.4348 -0.5310  0.5779
19660TIP3    H280396   2.223   3.560   1.348  0.2962 -0.3359 -1.5327
19661TIP3   OH280397   6.457   2.692  15.304  0.1302 -0.6419  0.2821
19661TIP3    H180398   6.530   2.716  15.248 -0.6558  0.5853 -0.2264
19661TIP3    H280399   6.496   2.681  15.391  1.0645 -0.9134 -0.1626
19662TIP3   OH280400   2.917   1.045   4.206 -0.9830  0.1787 -0.2424
19662TIP3    H180401   2.974   0.992   4.261  0.8225  1.5005 -0.7895
19662TIP3    H280402   2.905   0.993   4.127 -0.4615 -0.0673 -0.1644
19663TIP3   OH280403   1.337   0.284   0.475 -0.0023  0.1317 -0.3699
19663TIP3    H180404   1.402   0.291   0.405  0.0423 -0.6718 -0.4026
19663TIP3    H280405   1.352   0.362   0.529  2.4365 -1.1580  0.8944
19664TIP3   OH280406   1.025   3.688   3.395  0.4351 -0.3536 -0.1685
19664TIP3    H180407   1.077   3.715   3.319  0.8732 -0.9572 -0.0890
19664TIP3    H280408   0.984   3.769   3.425  2.3965  0.4166  0.5739
19665TIP3   OH280409   0.051   6.695  15.252  0.1267 -0.4888 -0.6461
19665TIP3    H180410   0.085   6.643  15.325  1.3623 -0.1427 -0.9627
19665TIP3    H280411   0.084   6.651  15.174  0.2029  0.0957 -0.9462
19666TIP3   OH280412   0.094   2.492   0.371 -0.2436 -0.1397 -0.1795
19666TIP3    H180413   0.058   2.474   0.284 -0.2029  0.0531 -0.2366
19666TIP3    H280414   0.092   2.408   0.415 -3.3154  0.3720  0.7680
19667TIP3   OH280415   3.513   4.480   2.426 -0.4682 -0.2271 -0.1578
19667TIP3    H180416   3.608   4.479   2.416 -0.3452  1.3485  0.6639
19667TIP3    H280417   3.483   4.404   2.377  0.9979  0.8585 -2.8659
19668TIP3   OH280418   2.336   4.683  15.858  0.0489  0.8476  0.1346
19668TIP3    H180419   2.382   4.605  15.827  0.6404  0.9921  0.6462
19668TIP3    H280420   2.315   4.731  15.778  0.8695  0.8233 -0.1049
19669TIP3   OH280421   3.881   4.119   5.382 -0.2571 -0.0881 -0.3406
19669TIP3    H180422   3.835   4.192   5.340  0.0246  0.0693 -0.3755
19669TIP3    H280423   3.882   4.050   5.316 -0.4648 -0.1024 -0.3302
19670TIP3   OH280424   0.796   0.568   1.658  0.1785 -0.1566  0.1070
19670TIP3    H180425   0.745   0.637   1.700 -0.7559 -0.8476  0.1211
19670TIP3    H280426   0.825   0.607   1.575 -0.2168  0.3006  0.1825
19671TIP3   OH280427   5.997   2.456   2.386 -0.4211  0.5376  0.1090
19671TIP3    H180428   6.004   2.458   2.290  0.0795 -0.2390  0.1272
19671TIP3    H280429   6.069   2.511   2.416  1.8707 -2.3542  0.1269
19672TIP3   OH280430   1.131   3.754  13.326  0.5234 -0.2072  0.5001
19672TIP3    H180431   1.155   3.800  13.406 -0.4689  0.4584  0.4270
19672TIP3    H280432   1.211   3.709  13.298  0.8195 -0.6308  1.9896
19673TIP3   OH280433   4.652   5.217  11.186 -0.1162  0.3855  0.2579
19673TIP3    H180434   4.681   5.130  11.214 -0.2658  0.4899  0.7393
19673TIP3    H280435   4.587   5.242  11.251 -1.3719  0.1052 -0.8730
19674TIP3   OH280436   1.554   2.851  15.149  0.2431 -0.5621 -0.1766
19674TIP3    H180437   1.559   2.926  15.090 -2.1007 -0.1904  0.0506
19674TIP3    H280438   1.634   2.857  15.202  0.6122  1.1427 -0.8953
19675TIP3   OH280439   5.285   4.623   2.907 -0.0089 -0.3916 -0.0739
19675TIP3    H180440   5.218   4.676   2.950  2.0253  1.3387  0.9961
19675TIP3    H280441   5.270   4.534   2.941 -0.3203  0.3955  1.8916
19676TIP3   OH280442   6.694   0.536   1.019 -0.4408  0.4122  0.8877
19676TIP3    H180443   6.643   0.455   1.006 -1.6311  1.1840  0.6513
19676TIP3    H280444   6.774   0.507   1.062 -1.1608 -0.8092  1.4346
19677TIP3   OH280445   6.329   2.206   2.730 -0.1658 -0.4784 -0.1605
19677TIP3    H180446   6.403   2.181   2.784  0.2874  0.5689 -0.2787
19677TIP3    H280447   6.261   2.232   2.792  0.2106  0.3262 -0.0746
19678TIP3   OH280448   3.434   6.010   4.436  0.2926  0.2528 -0.5239
19678TIP3    H180449   3.473   6.038   4.353  0.6532  1.0185 -0.1022
19678TIP3    H280450   3.403   5.922   4.419  2.2387 -0.3986 -0.8754
19679TIP3   OH280451   5.872   4.378   2.545  0.1466  0.4386  0.4064
19679TIP3    H180452   5.840   4.390   2.456 -0.7299 -1.3796  0.4635
19679TIP3    H280453   5.797   4.397   2.601  0.3007  0.1754  0.7054
19680TIP3   OH280454   2.466   2.659  13.092 -0.1995  0.3545  0.1373
19680TIP3    H180455   2.454   2.613  13.008 -2.1165 -0.7516  0.9830
19680TIP3    H280456   2.486   2.749  13.067 -2.4790  0.4508 -1.5413
19681TIP3   OH280457   4.441   2.873  16.044  0.4387 -0.3800  0.2301
19681TIP3    H180458   4.515   2.820  16.071 -0.5953 -1.4259  1.0321
19681TIP3    H280459   4.376   2.861  16.112  0.0244  1.6117  0.2285
19682TIP3   OH280460   3.916   4.792   5.607 -0.2395  0.1666 -0.0364
19682TIP3    H180461   3.893   4.740   5.530 -1.3936 -1.1685  1.1863
19682TIP3    H280462   3.903   4.883   5.579 -4.2836 -0.3992 -0.3302
19683TIP3   OH280463   5.776   5.783   2.804  0.5194  0.0463  0.2984
19683TIP3    H180464   5.811   5.760   2.718 -1.6396  1.3964 -1.0022
19683TIP3    H280465   5.711   5.852   2.785  1.1902  1.5294  3.1766
19684TIP3   OH280466   3.984   1.660  15.466 -0.3012 -0.4061  0.5694
19684TIP3    H180467   4.060   1.697  15.511 -0.9806  0.6758  0.8353
19684TIP3    H280468   3.949   1.596  15.528 -0.6098  0.3232  1.1658
19685TIP3   OH280469   2.538   5.278  16.693 -0.1956 -0.6698  0.1387
19685TIP3    H180470   2.516   5.209  16.631 -2.8502  0.2595 -0.0107
19685TIP3    H280471   2.581   5.345  16.639 -0.6709 -0.7435 -0.3442
19686TIP3   OH280472   4.193   5.145   0.565  0.6545  0.3105  0.7763
19686TIP3    H180473   4.170   5.199   0.640  0.4445  0.8439  0.3297
19686TIP3    H280474   4.207   5.207   0.493  0.8574 -0.1925  0.3760
19687TIP3   OH280475   4.830   3.461   2.606  0.3144  0.1492 -0.2949
19687TIP3    H180476   4.859   3.451   2.697 -2.5233  1.1457  0.7613
19687TIP3    H280477   4.822   3.556   2.594 -1.3942 -0.0695 -0.9093
19688TIP3   OH280478   3.252   3.584  12.969 -0.2534  0.8494  0.4413
19688TIP3    H180479   3.167   3.598  13.011 -0.9850  1.2638 -1.1619
19688TIP3    H280480   3.301   3.665  12.987 -0.0601  0.4683  1.6672
19689TIP3   OH280481   0.520   1.803   1.639 -0.6812  0.4859 -0.2033
19689TIP3    H180482   0.486   1.774   1.554 -1.7859 -0.0598  0.4065
19689TIP3    H280483   0.547   1.722   1.682  0.0760  0.7858 -0.1217
19690TIP3   OH280484   2.836   2.636  10.864 -0.4621 -0.5144  0.7554
19690TIP3    H180485   2.924   2.601  10.857  0.0963  0.8561  0.7550
19690TIP3    H280486   2.786   2.590  10.796  0.0417 -1.8593  1.2736
19691TIP3   OH280487   1.020   1.612  12.584 -0.3061  0.0381  0.1121
19691TIP3    H180488   1.030   1.605  12.489 -1.4612  0.2399 -0.0343
19691TIP3    H280489   1.060   1.533  12.619 -2.1184 -1.2635 -0.7036
19692TIP3   OH280490   5.369   2.769   5.382  0.2898  0.0608 -0.1422
19692TIP3    H180491   5.368   2.679   5.351 -0.2431 -0.0194  0.0934
19692TIP3    H280492   5.300   2.772   5.449  0.0774  0.7220 -0.3866
19693TIP3   OH280493   4.289   3.557  14.227 -0.1598  0.5728 -0.5412
19693TIP3    H180494   4.269   3.642  14.188  0.5638  1.1506  0.3157
19693TIP3    H280495   4.217   3.501  14.201  0.1520  1.0338 -2.4313
19694TIP3   OH280496   2.931   3.096  13.658 -0.2587  0.1943 -0.1227
19694TIP3    H180497   2.899   3.044  13.584 -1.9202 -0.1734  0.8463
19694TIP3    H280498   2.862   3.159  13.676  1.2827  2.0750 -0.5805
19695TIP3   OH280499   0.412   0.264   0.367  0.1558  0.4079  0.1359
19695TIP3    H180500   0.426   0.237   0.276 -0.3974 -0.5119  0.3152
19695TIP3    H280501   0.336   0.322   0.363  0.3859  0.6977 -0.0439
19696TIP3   OH280502   4.489   1.724   3.053 -0.4422 -0.5122  0.6853
19696TIP3    H180503   4.548   1.790   3.017 -0.7061 -0.5566  0.1637
19696TIP3    H280504   4.403   1.748   3.019 -0.3157 -1.9821 -0.7034
19697TIP3   OH280505   4.610   4.151  13.982 -0.3764  0.0625 -0.1456
19697TIP3    H180506   4.563   4.149  14.066 -1.2251  0.9383 -0.5847
19697TIP3    H280507   4.578   4.074  13.936 -0.3278 -0.1155  0.1142
19698TIP3   OH280508   3.633   3.183   5.674  0.0484 -0.2377  0.3685
19698TIP3    H180509   3.605   3.200   5.764 -1.5081  0.9499 -0.2991
19698TIP3    H280510   3.600   3.095   5.655 -1.1735  0.1909  0.4140
19699TIP3   OH280511   3.394   2.191  14.208 -0.1844  0.1764 -0.4287
19699TIP3    H180512   3.461   2.220  14.269 -1.7717  0.9945  0.9795
19699TIP3    H280513   3.392   2.259  14.141 -0.5192  0.8608  0.2581
19700TIP3   OH280514   5.684   2.424  13.004 -0.0379 -0.4163  0.0758
19700TIP3    H180515   5.701   2.391  12.916 -1.2870  0.0892 -0.3693
19700TIP3    H280516   5.653   2.514  12.990 -0.0724 -0.2738  1.0359
19701TIP3   OH280517   0.346   2.170   5.661 -0.0363 -0.3763 -0.6421
19701TIP3    H180518   0.375   2.086   5.696  0.0080 -0.0881  0.0320
19701TIP3    H280519   0.258   2.154   5.629  0.8014 -1.2394 -2.6062
19702TIP3   OH280520   1.762   1.537   4.750 -0.1709  0.1659  0.0807
19702TIP3    H180521   1.678   1.535   4.797  0.2268  2.0884  0.9355
19702TIP3    H280522   1.751   1.607   4.685  0.2590 -0.5949 -0.8074
19703TIP3   OH280523   0.571   0.094   0.761 -0.1825 -0.0479 -0.8259
19703TIP3    H180524   0.614   0.161   0.709  0.7462  1.0006  1.2397
19703TIP3    H280525   0.615   0.012   0.738  0.0594  0.3722 -1.8347
19704TIP3   OH280526   4.800   0.876  14.682  0.1253  0.0953  0.1771
19704TIP3    H180527   4.784   0.867  14.588  0.2179 -0.2277  0.1939
19704TIP3    H280528   4.742   0.812  14.723 -0.5376  0.8260  0.3918
19705TIP3   OH280529   6.713   2.052  14.157 -0.2578 -0.1109 -0.1761
19705TIP3    H180530   6.796   2.088  14.128 -0.3072 -0.2948 -0.5572
19705TIP3    H280531   6.680   2.115  14.221  1.3176 -1.2261  1.8158
19706TIP3   OH280532   0.021   0.773   0.947 -0.1507  0.5118 -0.1535
19706TIP3    H180533   0.112   0.755   0.922 -0.3193  0.6303 -0.8774
19706TIP3    H280534  -0.011   0.691   0.985  0.5278  0.7408  0.9168
19707TIP3   OH280535   5.070   3.384   0.237  0.1030 -0.2288 -0.0284
19707TIP3    H180536   5.138   3.396   0.304 -1.7270  2.0013  1.5063
19707TIP3    H280537   5.002   3.333   0.280 -2.0021  2.9351  0.5618
19708TIP3   OH280538   3.122   3.101   1.405 -0.2148 -0.2438  0.1131
19708TIP3    H180539   3.205   3.063   1.434  0.2506  1.4598  1.1199
19708TIP3    H280540   3.134   3.195   1.416 -2.5017  0.0004  0.8758
19709TIP3   OH280541   6.555   4.386   4.294 -0.1171  0.1225 -0.4492
19709TIP3    H180542   6.603   4.367   4.213 -0.4564  0.2572 -0.6841
19709TIP3    H280543   6.566   4.480   4.307  1.7089 -0.2379  0.8093
19710TIP3   OH280544   3.808   5.029   2.271 -0.6845  0.2971 -0.5539
19710TIP3    H180545   3.807   4.935   2.289 -1.5074  0.3078 -0.5686
19710TIP3    H280546   3.896   5.045   2.234 -0.3575 -0.3669 -0.0662
19711TIP3   OH280547   2.026   0.480  14.088 -0.0185 -0.2214  0.5258
19711TIP3    H180548   2.002   0.569  14.113  0.0159 -0.0486 -0.0420
19711TIP3    H280549   2.066   0.443  14.166 -1.3764 -0.2341  1.2283
19712TIP3   OH280550   5.567   4.890   4.157  0.0164 -0.1665  0.2248
19712TIP3    H180551   5.591   4.979   4.131  3.1826 -0.9706  0.2336
19712TIP3    H280552   5.591   4.836   4.083 -2.5530 -0.9767 -0.0549
19713TIP3   OH280553   4.080   4.677  14.642  0.3700  0.3192 -0.2559
19713TIP3    H180554   4.117   4.648  14.559  0.1149  0.2173 -0.3351
19713TIP3    H280555   4.142   4.648  14.708 -0.4249 -1.3685 -0.2393
19714TIP3   OH280556   6.770   2.092   0.124  0.4057  0.0561 -0.3190
19714TIP3    H180557   6.789   2.185   0.135  0.0564 -0.0929  1.8565
19714TIP3    H280558   6.744   2.063   0.212 -1.6694 -1.5860 -1.4444
19715TIP3   OH280559   5.303   0.000  16.493 -0.1451 -1.0747 -0.1584
19715TIP3    H180560   5.216   0.019  16.456 -0.7274  2.0702  2.5492
19715TIP3    H280561   5.286  -0.049  16.573  0.4341  0.5509  1.0021
19716TIP3   OH280562   1.311   4.147  13.067 -0.1690  0.1760  0.4492
19716TIP3    H180563   1.391   4.198  13.076  1.0198 -1.5147 -0.4512
19716TIP3    H280564   1.306   4.096  13.149 -0.4592  0.4693  0.6149
19717TIP3   OH280565   2.481   0.581  11.983  0.4459 -0.3182  0.4860
19717TIP3    H180566   2.547   0.639  11.945 -0.6684  1.4116  1.1660
19717TIP3    H280567   2.527   0.498  11.996  2.3542  0.7213  0.5056
19718TIP3   OH280568   2.665   1.743   0.887 -0.3340 -0.1358  0.3757
19718TIP3    H180569   2.699   1.832   0.882 -0.1597 -0.3092 -2.5152
19718TIP3    H280570   2.604   1.744   0.960  1.9102  1.5479  2.2932
19719TIP3   OH280571   6.261   3.649  16.123  0.3601 -0.2304 -0.0028
19719TIP3    H180572   6.260   3.721  16.187  0.9661 -1.1233  1.0262
19719TIP3    H280573   6.341   3.664  16.072  1.0331 -0.7322  0.8816
19720TIP3   OH280574   0.256   4.135   1.852 -0.0003 -0.2422  0.0652
19720TIP3    H180575   0.252   4.140   1.756 -0.9828 -2.8298 -0.0633
19720TIP3    H280576   0.337   4.086   1.869 -1.9699 -3.5166  0.3578
19721TIP3   OH280577   1.015   1.988  12.062  0.2775 -0.2111  0.6837
19721TIP3    H180578   1.020   2.057  11.997  1.3202  0.1272  1.1210
19721TIP3    H280579   0.973   2.029  12.138  0.2751 -0.2435  0.7001
19722TIP3   OH280580   5.106   6.283  15.893 -0.0783  0.0469 -0.1749
19722TIP3    H180581   5.181   6.300  15.836 -0.0280 -0.5926 -0.2982
19722TIP3    H280582   5.055   6.364  15.890  0.2711  0.2527 -0.5999
19723TIP3   OH280583   4.466   0.988   4.311 -0.3007  0.3645 -0.1669
19723TIP3    H180584   4.391   1.009   4.255 -0.0592  3.1817  0.4656
19723TIP3    H280585   4.540   0.981   4.251 -0.7122 -0.5029 -0.5852
19724TIP3   OH280586   1.503   6.642  11.620 -0.3822  0.0664 -0.0586
19724TIP3    H180587   1.550   6.657  11.538 -0.0707  0.9535  0.2828
19724TIP3    H280588   1.419   6.685  11.609 -0.2550  0.3791  0.1631
19725TIP3   OH280589   4.903   0.570   5.152 -0.6319  0.1854  0.6016
19725TIP3    H180590   4.917   0.645   5.094  0.0568  0.1467  0.7170
19725TIP3    H280591   4.815   0.539   5.130 -0.3723  0.1691 -0.4354
19726TIP3   OH280592   0.360   3.070   4.994 -0.2978  0.7969  0.0154
19726TIP3    H180593   0.383   3.053   4.903  0.6466 -0.0359  0.4101
19726TIP3    H280594   0.288   3.133   4.989  0.0204  1.0640 -1.2954
19727TIP3   OH280595   0.383   6.259   3.978  0.0649 -0.3311  0.4297
19727TIP3    H180596   0.307   6.242   4.034 -2.2289 -1.5588 -2.8574
19727TIP3    H280597   0.406   6.174   3.943  1.2009  0.4485 -0.7601
19728TIP3   OH280598   3.086   1.510   5.659 -0.0055  0.2163  0.5737
19728TIP3    H180599   3.062   1.595   5.623 -0.7176  0.0739  0.7064
19728TIP3    H280600   3.005   1.476   5.698  0.1891 -0.6672  0.2359
19729TIP3   OH280601   6.695   2.376  15.336  0.2582  0.2748 -0.5471
19729TIP3    H180602   6.789   2.362  15.331  0.3614  1.2800 -1.5301
19729TIP3    H280603   6.684   2.471  15.335 -0.7873  0.1587 -1.0823
19730TIP3   OH280604   5.142   1.496   0.094  0.5407  0.2214 -0.3748
19730TIP3    H180605   5.201   1.541   0.155 -0.3784 -0.5273  1.0932
19730TIP3    H280606   5.094   1.434   0.148 -0.9018  0.1249 -1.7238
19731TIP3   OH280607   4.486   5.312  11.438  0.0730  0.4789  0.1959
19731TIP3    H180608   4.416   5.359  11.484 -0.3644 -0.0251  0.0521
19731TIP3    H280609   4.447   5.228  11.413 -0.1031  1.2242 -2.2051
19732TIP3   OH280610   3.122   4.679   1.365  0.2242  0.2020 -0.7711
19732TIP3    H180611   3.121   4.694   1.271  0.3340 -0.3745 -0.8650
19732TIP3    H280612   3.038   4.713   1.396 -0.0447 -0.1075 -1.1529
19733TIP3   OH280613   2.667   3.264  16.157  0.3524 -0.1394  0.4937
19733TIP3    H180614   2.760   3.257  16.179  1.2776  0.3011 -2.8764
19733TIP3    H280615   2.656   3.356  16.131 -0.1193 -1.0301 -2.6191
19734TIP3   OH280616   0.781   0.153  15.023 -0.0664 -0.0246 -0.3261
19734TIP3    H180617   0.722   0.187  14.956 -0.2464 -0.4500 -0.3847
19734TIP3    H280618   0.729   0.155  15.104  0.0666  0.2487 -0.2467
19735TIP3   OH280619   0.933   1.171  14.831  0.3456  0.1790 -0.2490
19735TIP3    H180620   0.903   1.262  14.838 -1.2193 -0.3020 -0.4118
19735TIP3    H280621   0.883   1.135  14.757 -0.2875 -1.2837  0.8755
19736TIP3   OH280622   6.290   4.787  10.944 -0.2114 -0.1455 -0.1323
19736TIP3    H180623   6.295   4.793  10.848 -0.9720 -0.9166 -0.2227
19736TIP3    H280624   6.374   4.748  10.969 -0.5913 -1.3140 -0.6175
19737TIP3   OH280625   5.698   3.262   0.494 -0.2389  0.2243  0.3748
19737TIP3    H180626   5.701   3.264   0.398 -0.7875  2.5694  0.3875
19737TIP3    H280627   5.784   3.294   0.521 -0.2411 -0.0186  0.6694
19738TIP3   OH280628   4.499   6.014  11.185  0.1265  0.0645  0.6328
19738TIP3    H180629   4.575   6.032  11.131 -2.0928  2.3132 -1.9167
19738TIP3    H280630   4.486   5.920  11.178  0.6456  0.1391 -1.7515
19739TIP3   OH280631   2.589   6.261   0.113 -0.4795 -0.7867  0.3305
19739TIP3    H180632   2.600   6.354   0.130  2.4022 -1.0252  0.0362
19739TIP3    H280633   2.657   6.240   0.048 -2.3278 -2.6946 -1.0620
19740TIP3   OH280634   5.305   4.542  12.251  0.1050 -0.2082 -0.3278
19740TIP3    H180635   5.367   4.615  12.256  0.9546 -0.8928 -0.5393
19740TIP3    H280636   5.314   4.509  12.161 -0.5486 -0.3283 -0.3479
19741TIP3   OH280637   2.185   2.834  16.580  0.1120 -0.2334 -0.0599
19741TIP3    H180638   2.187   2.799  16.669 -0.7795  0.2893  0.1672
19741TIP3    H280639   2.191   2.929  16.590 -2.5404  0.0073 -0.4003
19742TIP3   OH280640   1.090   3.229   1.368 -0.1657 -0.1241 -0.0902
19742TIP3    H180641   1.057   3.288   1.300 -0.8627 -0.9186 -0.4526
19742TIP3    H280642   1.164   3.184   1.327 -0.2753 -0.2444 -0.1553
19743TIP3   OH280643   6.712   2.564   1.105  0.1154  0.2048  0.0605
19743TIP3    H180644   6.766   2.539   1.180  1.2366 -0.8109 -1.0647
19743TIP3    H280645   6.706   2.484   1.053 -2.3182  0.3456  0.0563
19744TIP3   OH280646   2.048   2.421   6.153 -0.8154  0.3897 -0.0346
19744TIP3    H180647   2.084   2.350   6.207 -3.3090 -0.3314  0.7626
19744TIP3    H280648   2.067   2.394   6.063 -0.0319 -0.3297  0.3390
19745TIP3   OH280649   0.821   6.154  11.858  0.3059  0.2108  0.0535
19745TIP3    H180650   0.744   6.202  11.828  0.0050  0.9508  1.9632
19745TIP3    H280651   0.895   6.199  11.818 -0.1657  0.0812 -1.0066
19746TIP3   OH280652   5.269   5.507  14.881 -0.2944 -0.3731 -0.3294
19746TIP3    H180653   5.244   5.432  14.933 -0.5578 -0.4415 -0.5528
19746TIP3    H280654   5.365   5.505  14.880 -0.2747  0.0994  0.8219
19747TIP3   OH280655   0.061   2.807   1.352 -0.1484  0.3365 -0.4301
19747TIP3    H180656   0.119   2.827   1.279 -1.6205 -0.6355 -1.8973
19747TIP3    H280657  -0.027   2.824   1.318 -0.9996 -2.3467  0.3365
19748TIP3   OH280658   5.704   2.072   6.456  0.3778  0.1275 -0.2865
19748TIP3    H180659   5.796   2.059   6.477  0.3089  1.5720  0.9573
19748TIP3    H280660   5.705   2.124   6.376  0.6259 -0.2223 -0.5158
19749TIP3   OH280661   4.184   1.587  12.465 -0.4802  0.3958  0.2927
19749TIP3    H180662   4.141   1.533  12.399 -0.5913  0.0359  0.6522
19749TIP3    H280663   4.175   1.537  12.546 -0.6492  0.9918  0.6470
19750TIP3   OH280664   2.581   1.981   2.088 -0.3139  0.1827 -0.0527
19750TIP3    H180665   2.609   2.024   2.007 -2.6232  1.2024 -0.3590
19750TIP3    H280666   2.549   1.896   2.060  0.3354 -0.0770 -0.0062
19751TIP3   OH280667   6.680   5.931  14.865 -0.1845 -0.7116  0.2633
19751TIP3    H180668   6.695   5.882  14.946 -0.4421 -0.9819  0.1500
19751TIP3    H280669   6.735   5.889  14.800  1.3880  0.6130  0.7014
19752TIP3   OH280670   0.042   0.076   2.883 -0.3297  0.3496 -0.3154
19752TIP3    H180671   0.095   0.053   2.807  0.3923 -0.5332  0.4303
19752TIP3    H280672   0.104   0.121   2.942 -1.0218  1.5623 -0.5022
19753TIP3   OH280673   1.821   2.141  11.956  0.4635  0.3323  0.3655
19753TIP3    H180674   1.861   2.119  11.872  0.2972 -0.6905  0.5498
19753TIP3    H280675   1.729   2.155  11.935  0.1430 -1.3266  0.5942
19754TIP3   OH280676   1.985   2.254   1.624  0.3114  0.1133  0.0091
19754TIP3    H180677   2.060   2.307   1.596 -0.6920  1.4325 -0.2075
19754TIP3    H280678   2.008   2.225   1.712  1.1062  0.4450 -0.0851
19755TIP3   OH280679   4.068   0.617   1.267  0.3461 -0.4481 -0.1554
19755TIP3    H180680   4.158   0.585   1.257  0.6544  0.6761 -1.0213
19755TIP3    H280681   4.020   0.541   1.301  1.7087 -0.9219  0.7657
19756TIP3   OH280682   0.691   4.961   0.473  0.0633  0.0511 -0.2098
19756TIP3    H180683   0.728   4.995   0.392 -1.0820  0.5312 -0.5404
19756TIP3    H280684   0.604   4.930   0.448 -1.0327  1.9212  1.2131
19757TIP3   OH280685   2.240   6.011  16.049  0.1962  0.3669  0.0422
19757TIP3    H180686   2.251   6.034  16.142 -0.0637 -2.6053  0.8553
19757TIP3    H280687   2.329   5.989  16.020 -0.0692 -1.1081  0.2937
19758TIP3   OH280688   5.207   3.610   3.826  0.2193  0.3744 -0.4080
19758TIP3    H180689   5.212   3.556   3.905 -0.1534  1.2987  0.2568
19758TIP3    H280690   5.294   3.606   3.788 -0.7236 -3.7216 -2.4066
19759TIP3   OH280691   0.233   0.188   3.038  0.3114 -0.0746 -0.3520
19759TIP3    H180692   0.314   0.214   3.081 -0.7711  1.7879  0.6562
19759TIP3    H280693   0.198   0.270   3.002 -1.7597 -0.6256  0.3362
19760TIP3   OH280694   2.002   1.831   1.714 -0.0861 -0.5162 -0.2624
19760TIP3    H180695   2.074   1.884   1.679 -0.9419  2.2576  1.9205
19760TIP3    H280696   2.044   1.753   1.749  1.6579  0.2838 -0.5277
19761TIP3   OH280697   4.031   0.732  11.556  0.2832  0.5038  0.1361
19761TIP3    H180698   3.984   0.815  11.565 -0.2715  0.0548  1.5285
19761TIP3    H280699   4.022   0.710  11.464 -1.8822  0.6459  0.2883
19762TIP3   OH280700   6.593   3.814  11.169  0.2183  0.1281 -0.1858
19762TIP3    H180701   6.572   3.723  11.145  0.4982 -0.4942  1.8329
19762TIP3    H280702   6.617   3.856  11.087 -0.9243 -1.3558 -1.3048
19763TIP3   OH280703   0.711   6.719   1.133 -0.0522  0.1455  0.8090
19763TIP3    H180704   0.785   6.658   1.141 -2.2159 -2.8688 -1.0998
19763TIP3    H280705   0.655   6.699   1.207  0.3689  1.5221  1.5151
19764TIP3   OH280706   4.709   3.962  15.053 -0.6175 -0.6079 -0.3879
19764TIP3    H180707   4.781   3.946  15.114 -0.3022 -0.1374 -0.6334
19764TIP3    H280708   4.700   3.881  15.005  0.3097 -0.3909 -0.9366
19765TIP3   OH280709   6.383   1.115  14.059  0.2698  0.0246 -0.0540
19765TIP3    H180710   6.316   1.177  14.088  0.8941 -0.2003  1.9535
19765TIP3    H280711   6.404   1.063  14.137  3.0454  0.3357 -0.5149
19766TIP3   OH280712   4.448   4.083   1.139 -0.5189 -0.2516 -0.3259
19766TIP3    H180713   4.452   4.070   1.044 -1.8076 -0.4232 -0.3624
19766TIP3    H280714   4.430   3.996   1.174 -2.0670  0.1699 -0.0670
19767TIP3   OH280715   3.193   2.622   1.113 -0.0517  0.4251  0.8675
19767TIP3    H180716   3.245   2.613   1.193  1.4476  2.9427  0.2142
19767TIP3    H280717   3.137   2.698   1.130 -0.5968  0.2124  0.0082
19768TIP3   OH280718   5.715   6.523  11.830  0.2081 -0.0557  0.3518
19768TIP3    H180719   5.708   6.617  11.816  0.7456 -0.1986 -0.8983
19768TIP3    H280720   5.655   6.485  11.766  1.3828 -0.6523 -0.3915
19769TIP3   OH280721   4.282   4.427  15.158 -0.4105 -0.1268 -0.2235
19769TIP3    H180722   4.283   4.386  15.071 -1.2381  0.3327 -0.4503
19769TIP3    H280723   4.357   4.389  15.203  1.7137  1.7153 -2.0992
19770TIP3   OH280724   2.583   6.218  14.811  0.5613 -0.4936 -0.6824
19770TIP3    H180725   2.666   6.266  14.820  0.5984 -0.6994  0.0786
19770TIP3    H280726   2.595   6.139  14.864 -0.4595 -0.0878  0.1555
19771TIP3   OH280727   3.888   2.769   5.987 -0.5210  0.1300  1.0108
19771TIP3    H180728   3.857   2.729   6.068  0.9909  1.3549  2.2004
19771TIP3    H280729   3.968   2.815   6.011  0.2801  0.0275 -1.2955
19772TIP3   OH280730   1.994   0.829  14.431 -0.2821 -0.1368  0.0625
19772TIP3    H180731   2.024   0.746  14.468  1.2630  1.1292  1.7351
19772TIP3    H280732   2.004   0.818  14.336  0.5713 -1.6163  0.3099
19773TIP3   OH280733   2.018   3.469   3.883 -0.3715  0.0611 -0.0263
19773TIP3    H180734   2.036   3.391   3.934 -3.4810 -0.7081  0.0247
19773TIP3    H280735   1.993   3.436   3.796 -1.9302  0.9337  0.0631
19774TIP3   OH280736   4.150   5.909  13.348 -0.4116  0.0666 -0.1307
19774TIP3    H180737   4.227   5.857  13.372  1.2339  1.6916 -1.6762
19774TIP3    H280738   4.139   5.893  13.254 -0.2446  1.9901 -0.5000
19775TIP3   OH280739   5.939   3.403  16.756  0.0057  0.4417  0.1554
19775TIP3    H180740   5.861   3.455  16.775 -1.4323 -1.3026 -0.7681
19775TIP3    H280741   5.978   3.445  16.680 -0.6967  0.6620 -0.0919
19776TIP3   OH280742   0.994   1.029  15.673  0.0044 -0.1758 -0.0527
19776TIP3    H180743   0.930   0.974  15.719  0.9035 -0.2019  1.1893
19776TIP3    H280744   1.068   1.035  15.734  0.0918  2.0662 -0.3438
19777TIP3   OH280745   3.514   5.024   5.405 -0.1172  0.1759 -0.2405
19777TIP3    H180746   3.599   5.045   5.441  0.2933 -1.9266  0.0511
19777TIP3    H280747   3.511   5.071   5.321 -0.0335  2.9087  1.2317
19778TIP3   OH280748   5.937   0.426   5.272  0.2186  0.3799  0.3861
19778TIP3    H180749   5.903   0.504   5.316 -0.6803 -0.3825  1.0380
19778TIP3    H280750   6.019   0.406   5.317  0.7463  1.2862 -0.1600
19779TIP3   OH280751   2.488   4.789  16.479 -0.5103  0.4377  0.7338
19779TIP3    H180752   2.498   4.753  16.391 -2.3900  2.3331 -0.3195
19779TIP3    H280753   2.455   4.716  16.531  1.0717 -0.8374  0.0156
19780TIP3   OH280754   6.648   2.732   3.461 -0.2542  0.3616 -0.4940
19780TIP3    H180755   6.652   2.826   3.482 -1.9527  0.6651 -1.3995
19780TIP3    H280756   6.556   2.709   3.475  0.3298 -1.3719  0.5244
19781TIP3   OH280757   1.042   3.835  11.823  0.7741  0.4348  0.1240
19781TIP3    H180758   0.998   3.758  11.788 -1.0131  1.4263  0.1164
19781TIP3    H280759   1.076   3.808  11.908 -1.4596  0.1622  0.9446
19782TIP3   OH280760   4.556   0.307   6.139  0.2758 -0.3992 -0.5071
19782TIP3    H180761   4.531   0.220   6.107  1.8200 -0.9853 -0.1666
19782TIP3    H280762   4.596   0.290   6.225 -0.3413  0.7673  0.0277
19783TIP3   OH280763   1.526   2.673  14.130 -0.1585  0.2368  0.9511
19783TIP3    H180764   1.471   2.750  14.142  0.0006  0.2301  1.7931
19783TIP3    H280765   1.616   2.707  14.131 -0.1517  0.3103 -0.9076
19784TIP3   OH280766   2.107   0.346   2.587 -0.4433  0.0948  0.0180
19784TIP3    H180767   2.120   0.271   2.529 -1.3457  0.1527 -0.2798
19784TIP3    H280768   2.075   0.308   2.669 -0.4482  0.1138  0.0251
19785TIP3   OH280769   3.489   6.782  16.624 -0.4305 -0.1453 -0.1919
19785TIP3    H180770   3.567   6.835  16.638  0.2340 -1.0759 -0.2783
19785TIP3    H280771   3.523   6.695  16.601 -1.3337 -2.3327  5.8853
19786TIP3   OH280772   1.178   2.960   5.812  0.2111 -0.2174  0.2882
19786TIP3    H180773   1.084   2.950   5.826  0.4510 -2.5075  0.3658
19786TIP3    H280774   1.190   3.054   5.797 -2.2127 -0.0455 -0.7622
19787TIP3   OH280775   6.345   6.577   5.831  0.6025 -0.4754  0.0261
19787TIP3    H180776   6.326   6.662   5.871 -0.7867 -1.5040  1.6652
19787TIP3    H280777   6.402   6.533   5.894 -2.4474 -2.5227  1.5036
19788TIP3   OH280778   4.389   2.535  11.779 -0.2575 -0.3975 -0.0372
19788TIP3    H180779   4.311   2.547  11.832 -1.0604 -1.5790 -0.9333
19788TIP3    H280780   4.393   2.613  11.723 -0.6800 -0.2424  0.1513
19789TIP3   OH280781   3.373   3.568   1.233  0.3265 -0.3665 -0.1470
19789TIP3    H180782   3.293   3.621   1.240  1.3129  1.1601 -0.1590
19789TIP3    H280783   3.421   3.607   1.160  2.1424  0.2045  1.3207
19790TIP3   OH280784   5.605   6.315  17.162 -0.4849 -0.1266  0.8007
19790TIP3    H180785   5.602   6.271  17.247  1.1267  1.7562  1.8761
19790TIP3    H280786   5.677   6.272  17.116  0.4005  0.6326  1.4483
19791TIP3   OH280787   0.334   6.053   0.223  0.3965 -0.2269 -0.2840
19791TIP3    H180788   0.272   6.048   0.151 -0.8070  2.1260  0.5455
19791TIP3    H280789   0.286   6.021   0.300  0.6122  0.3784  0.1086
19792TIP3   OH280790   5.882   0.004  17.112 -0.7776 -0.1035 -0.4717
19792TIP3    H180791   5.850  -0.009  17.023 -1.1148  0.8185 -0.4963
19792TIP3    H280792   5.910  -0.083  17.141 -3.4762 -0.9881 -0.3920
19793TIP3   OH280793   6.764   0.373  16.022 -0.4039 -0.5041 -0.0003
19793TIP3    H180794   6.812   0.455  16.014 -1.5176  0.0630 -1.1728
19793TIP3    H280795   6.675   0.399  16.047 -0.5504 -1.4089  0.4697
19794TIP3   OH280796   6.724   2.895   2.317  0.3025 -0.1356  0.4981
19794TIP3    H180797   6.673   2.967   2.355  0.6711  0.2166  0.3350
19794TIP3    H280798   6.745   2.924   2.229  1.1165 -0.1012  0.6929
19795TIP3   OH280799   4.684   0.658   3.221 -0.1006  0.4429 -0.3708
19795TIP3    H180800   4.663   0.612   3.303 -2.5107 -0.8782 -1.6912
19795TIP3    H280801   4.600   0.692   3.190  0.5452 -0.3587 -3.0782
19796TIP3   OH280802   1.156   3.177   0.466  0.0969  0.5999 -0.0638
19796TIP3    H180803   1.213   3.101   0.456 -1.2169 -0.5483  0.9995
19796TIP3    H280804   1.119   3.168   0.554 -2.2988  0.9125 -1.0156
19797TIP3   OH280805   5.548   3.963   0.041  0.3375 -0.0360 -0.9994
19797TIP3    H180806   5.464   4.007   0.059  0.2874 -0.1362 -0.9896
19797TIP3    H280807   5.611   4.013   0.092  0.1069 -0.6775 -0.0816
19798TIP3   OH280808   3.108   3.237  17.085  0.0416  0.5760  0.4079
19798TIP3    H180809   3.161   3.303  17.039  2.1571 -0.7119  0.9377
19798TIP3    H280810   3.054   3.198  17.017  1.8292 -0.0528 -0.6669
19799TIP3   OH280811   1.338   5.037   4.739  0.9851 -0.1308 -0.3720
19799TIP3    H180812   1.252   5.047   4.698  0.9005  0.5332 -0.0351
19799TIP3    H280813   1.357   4.943   4.732  0.6404 -0.1442 -1.2601
19800TIP3   OH280814   3.041   0.796  11.477 -0.0066 -0.3978  0.1833
19800TIP3    H180815   3.032   0.735  11.404 -1.2726  0.1944 -0.1707
19800TIP3    H280816   3.091   0.869  11.441 -1.0344  0.1097 -0.2426
19801TIP3   OH280817   1.676   4.406   5.084  0.2469  0.0233 -0.4529
19801TIP3    H180818   1.693   4.449   5.000  0.1145  1.1829  0.1148
19801TIP3    H280819   1.614   4.337   5.063 -1.0050  1.3106 -1.0393
19802TIP3   OH280820   0.689   3.332   5.839 -0.1447 -0.2156  0.6713
19802TIP3    H180821   0.682   3.255   5.784 -1.3786  1.9892 -2.3877
19802TIP3    H280822   0.606   3.334   5.888 -0.7298 -0.0514 -0.3211
19803TIP3   OH280823   3.270   6.001   0.865  0.2483  0.2366  0.1219
19803TIP3    H180824   3.343   6.050   0.903  0.6383 -1.2952  1.4052
19803TIP3    H280825   3.192   6.042   0.902  0.6183 -1.3408  2.8319
19804TIP3   OH280826   2.378   2.880  11.167 -0.1879  0.3273 -0.0602
19804TIP3    H180827   2.456   2.874  11.222  0.0934 -0.1216 -0.5124
19804TIP3    H280828   2.411   2.877  11.077 -0.6337  1.2158 -0.2652
19805TIP3   OH280829   6.558   3.960  16.671  0.4279 -0.1474 -0.3916
19805TIP3    H180830   6.465   3.980  16.680  0.2982 -0.6298 -0.6709
19805TIP3    H280831   6.561   3.869  16.643  0.9775 -0.0781 -0.5684
19806TIP3   OH280832   2.688   0.185   0.684  0.0814 -0.4300 -0.5301
19806TIP3    H180833   2.674   0.146   0.770  0.5198 -1.0444 -0.7298
19806TIP3    H280834   2.616   0.151   0.630  0.9574 -1.7130 -0.9400
19807TIP3   OH280835   0.379   1.338  12.984  0.3033  0.2090  0.0244
19807TIP3    H180836   0.402   1.392  13.060 -0.3509 -0.0734  0.4284
19807TIP3    H280837   0.356   1.401  12.916 -1.4550  0.4471  0.8065
19808TIP3   OH280838   3.873   4.255  16.243 -0.2387  0.1036 -0.3102
19808TIP3    H180839   3.810   4.194  16.280  1.6925 -1.1046  1.0798
19808TIP3    H280840   3.910   4.301  16.319  0.0849  1.2632 -1.1474
19809TIP3   OH280841   1.876   6.333  16.575  0.3129 -0.4340  0.0925
19809TIP3    H180842   1.842   6.398  16.638 -0.9298 -1.2034  0.2445
19809TIP3    H280843   1.971   6.335  16.587  0.2896  1.3914  0.0629
19810TIP3   OH280844   0.001   4.275   3.036 -0.6312  0.1228 -0.0557
19810TIP3    H180845  -0.031   4.309   2.952 -0.4444 -0.3277 -0.3120
19810TIP3    H280846  -0.035   4.187   3.042 -1.5941  0.5706  0.8836
19811TIP3   OH280847   5.258   0.966   3.077 -0.0342  0.4869 -0.0217
19811TIP3    H180848   5.345   0.978   3.115  0.1691 -0.0114 -0.3266
19811TIP3    H280849   5.204   1.034   3.119  0.1624 -0.0892  1.1990
19812TIP3   OH280850   4.546   3.210   0.357  0.0143  0.2414 -0.0711
19812TIP3    H180851   4.517   3.188   0.445 -0.1901 -0.1015 -0.2234
19812TIP3    H280852   4.572   3.302   0.362  0.7240  0.0119  0.5364
19813TIP3   OH280853   5.242   1.693  11.469 -0.4332  0.3322 -0.0133
19813TIP3    H180854   5.241   1.716  11.376  1.6471 -0.8211 -0.3494
19813TIP3    H280855   5.277   1.771  11.513  3.0719 -0.7069 -0.7547
19814TIP3   OH280856   0.734   4.028   1.896 -0.6153 -0.6293 -0.5704
19814TIP3    H180857   0.785   3.987   1.826  0.3507 -1.1797  0.4386
19814TIP3    H280858   0.797   4.040   1.967 -0.8979  2.3991 -0.7438
19815TIP3   OH280859   5.640   0.513  12.587  0.1169  0.0951  0.2257
19815TIP3    H180860   5.680   0.555  12.664 -2.3834 -1.1464  2.2803
19815TIP3    H280861   5.672   0.423  12.589  2.6871  0.8788 -2.1704
19816TIP3   OH280862   6.561   1.865  13.819 -0.3038  1.0972 -0.1014
19816TIP3    H180863   6.508   1.836  13.745  0.6525  1.1122 -0.8001
19816TIP3    H280864   6.636   1.806  13.818 -1.0481  0.0789  1.8121
19817TIP3   OH280865   6.023   2.359   3.336  0.4284 -0.0688  0.3026
19817TIP3    H180866   6.105   2.405   3.350 -0.0378  1.0146 -0.4340
19817TIP3    H280867   5.955   2.422   3.360 -0.2367 -0.0646 -1.4559
19818TIP3   OH280868   3.087   4.734   1.875  0.0872  0.8481 -0.3148
19818TIP3    H180869   3.106   4.813   1.926  0.1551  1.7621 -1.7306
19818TIP3    H280870   2.999   4.748   1.841  0.9083  1.3155 -2.3490
19819TIP3   OH280871   4.974   3.559   1.029  0.0645 -0.4170 -0.2914
19819TIP3    H180872   5.049   3.595   1.074  0.0761 -1.0267  0.1900
19819TIP3    H280873   4.937   3.496   1.090 -2.0431  1.3263  0.2935
19820TIP3   OH280874   6.321   6.572  12.671  0.9287 -0.4289  0.3023
19820TIP3    H180875   6.375   6.630  12.618  1.2046 -1.1899 -0.2387
19820TIP3    H280876   6.345   6.594  12.761  0.4718  0.8472  0.1318
19821TIP3   OH280877   0.405   3.015   6.191  0.3428  0.1923  0.2271
19821TIP3    H180878   0.478   3.034   6.132  0.6458  0.5901  0.7294
19821TIP3    H280879   0.445   2.975   6.268 -0.0738 -0.5104  0.0816
19822TIP3   OH280880   2.461   4.284   6.323  0.3585 -0.1692  0.1645
19822TIP3    H180881   2.500   4.250   6.404  1.0783 -0.9111 -0.4812
19822TIP3    H280882   2.502   4.370   6.311  0.1271  0.0161  0.6745
19823TIP3   OH280883   5.165   0.717   4.493  0.2014 -0.4788  0.2485
19823TIP3    H180884   5.241   0.695   4.438  0.5540  0.7730  0.2295
19823TIP3    H280885   5.140   0.634   4.532  2.1889 -0.7399  1.0280
19824TIP3   OH280886   6.547   1.909  12.646 -0.1514 -0.1752 -0.1910
19824TIP3    H180887   6.457   1.880  12.661  0.1609  0.3800  2.9653
19824TIP3    H280888   6.600   1.831  12.661  0.0316 -0.0584 -0.2280
19825TIP3   OH280889   6.019   2.023  17.212 -0.0172  0.6374  0.5377
19825TIP3    H180890   5.929   2.009  17.181  1.1514  0.3113 -2.9552
19825TIP3    H280891   6.073   2.015  17.133  3.0612  1.2387  2.4936
19826TIP3   OH280892   1.159   0.248  15.243  0.1731  0.3128 -0.6366
19826TIP3    H180893   1.238   0.233  15.295 -0.7191  1.0806  0.9840
19826TIP3    H280894   1.124   0.161  15.227  0.4088  0.0707  0.1331
19827TIP3   OH280895   5.773   0.314  11.335 -0.1174 -0.1758  0.0149
19827TIP3    H180896   5.850   0.308  11.278  0.4195 -1.1194  0.8304
19827TIP3    H280897   5.701   0.284  11.281  0.0683  0.7180 -0.7594
19828TIP3   OH280898   4.261   4.263   5.262 -0.4948  0.3052  0.1070
19828TIP3    H180899   4.209   4.269   5.342 -1.0266 -0.0984 -0.2057
19828TIP3    H280900   4.209   4.307   5.195 -1.2242 -1.5678 -0.5978
19829TIP3   OH280901   6.238   6.309  14.960 -0.0928 -0.3714 -0.5914
19829TIP3    H180902   6.232   6.335  15.052  2.3368 -3.2563  0.4672
19829TIP3    H280903   6.307   6.365  14.924 -1.0171  0.7309 -0.6697
19830TIP3   OH280904   4.326   6.587  15.538 -0.2722  0.6716  0.0212
19830TIP3    H180905   4.396   6.542  15.491 -0.2715  1.2313 -0.5215
19830TIP3    H280906   4.251   6.585  15.478 -0.4737  0.7972  0.2648
19831TIP3   OH280907   6.471   3.203  15.565 -0.1936  0.0875  0.6302
19831TIP3    H180908   6.508   3.120  15.534  2.0824  0.9370  0.9099
19831TIP3    H280909   6.385   3.181  15.600  0.5939 -2.2352  1.1560
19832TIP3   OH280910   5.695   5.427   3.712 -0.7528 -0.4177 -0.1147
19832TIP3    H180911   5.630   5.496   3.730 -1.7063 -1.1353 -0.7423
19832TIP3    H280912   5.767   5.473   3.668 -2.0894 -0.0684 -2.0075
19833TIP3   OH280913   4.472   2.335   1.203  0.3923  0.3628 -0.2614
19833TIP3    H180914   4.436   2.341   1.292  1.3512 -1.4919  0.2759
19833TIP3    H280915   4.428   2.258   1.165  1.1495  0.2100 -0.8330
19834TIP3   OH280916   4.039   6.370   3.489 -0.0864  0.7086  0.4579
19834TIP3    H180917   4.087   6.294   3.522  0.3074  0.9171  0.3620
19834TIP3    H280918   3.988   6.400   3.565 -0.7082 -0.0101  0.3360
19835TIP3   OH280919   0.626   5.454   3.800  0.4762 -0.2039  0.2529
19835TIP3    H180920   0.707   5.487   3.763  0.6145  1.0869  1.6678
19835TIP3    H280921   0.645   5.438   3.892 -0.1886 -2.2783  0.0745
19836TIP3   OH280922   0.052   2.387   5.078  0.1271  0.4492  0.4414
19836TIP3    H180923   0.132   2.380   5.026 -1.3860  1.5676 -2.1197
19836TIP3    H280924   0.051   2.478   5.109  0.4824  0.0770  1.5823
19837TIP3   OH280925   3.138   6.302  15.288  0.4047  0.3145  0.3261
19837TIP3    H180926   3.193   6.343  15.221  1.2965 -0.2884  0.6822
19837TIP3    H280927   3.153   6.355  15.367 -0.1767  0.6502  0.2232
19838TIP3   OH280928   6.369   4.457  12.407  0.1136  0.8086  0.3651
19838TIP3    H180929   6.399   4.440  12.318  0.0816  1.8059  0.1586
19838TIP3    H280930   6.290   4.403  12.417 -0.3237  1.2925 -0.4710
19839TIP3   OH280931   2.909   6.381   4.236  0.1035 -0.2114  0.0975
19839TIP3    H180932   2.827   6.388   4.188  0.2097 -0.1547 -0.0769
19839TIP3    H280933   2.939   6.291   4.218 -1.1036 -1.0439  2.0796
19840TIP3   OH280934   5.248   5.216   5.023 -0.7588 -0.0730  0.5145
19840TIP3    H180935   5.344   5.207   5.024 -0.7317  0.1757  2.3126
19840TIP3    H280936   5.218   5.148   4.963  0.6740  1.3210 -1.8510
19841TIP3   OH280937   4.420   6.750  12.800 -0.7213 -0.2195 -0.0440
19841TIP3    H180938   4.418   6.823  12.738 -0.0361  2.2015  2.6515
19841TIP3    H280939   4.333   6.752  12.841 -0.1792  0.0633  1.1045
19842TIP3   OH280940   6.650   0.290   0.785 -0.2290 -0.2294  0.4418
19842TIP3    H180941   6.724   0.346   0.760 -0.4865  0.8510  2.0226
19842TIP3    H280942   6.688   0.204   0.797  0.5110 -0.0012 -0.1977
19843TIP3   OH280943   4.950   2.335   4.818  0.1175 -0.6300  0.2320
19843TIP3    H180944   4.928   2.243   4.836  2.0494 -0.9465  1.1010
19843TIP3    H280945   4.904   2.384   4.885 -1.3859 -0.9152 -0.5824
19844TIP3   OH280946   0.060   3.818   0.353 -0.8538 -0.4058  0.4470
19844TIP3    H180947   0.099   3.789   0.436  1.1803 -0.0330 -0.3498
19844TIP3    H280948   0.053   3.739   0.301 -1.9285 -0.6039  0.8776
19845TIP3   OH280949   4.446   1.522   3.585  0.7363 -0.2989  0.1524
19845TIP3    H180950   4.473   1.577   3.512  0.2541 -1.5625 -1.0183
19845TIP3    H280951   4.500   1.550   3.658 -0.3332  2.5229 -0.0672
19846TIP3   OH280952   6.118   0.236   4.049  0.2296  0.5248  0.1032
19846TIP3    H180953   6.045   0.277   4.004  0.3016 -0.2923 -0.7752
19846TIP3    H280954   6.194   0.290   4.026  0.1571  0.4874 -0.2305
19847TIP3   OH280955   4.181   3.550  16.936 -0.0175  0.0974 -0.6606
19847TIP3    H180956   4.133   3.633  16.941  1.0251  0.7609 -1.4331
19847TIP3    H280957   4.160   3.515  16.850 -1.2479 -0.9526  0.0452
19848TIP3   OH280958   0.849   6.320  13.842 -0.0891  0.7805 -0.1917
19848TIP3    H180959   0.869   6.410  13.817 -1.2940  1.6554  1.8960
19848TIP3    H280960   0.841   6.322  13.938 -0.6128 -1.4427 -0.1431
19849TIP3   OH280961   4.473   0.303  17.054 -0.0768  0.5454  0.2063
19849TIP3    H180962   4.382   0.301  17.025 -0.4816 -0.7607  1.5409
19849TIP3    H280963   4.492   0.214  17.082  1.4318  0.9454  0.5060
19850TIP3   OH280964   2.710   2.459   0.978  0.2239 -0.0770  0.1017
19850TIP3    H180965   2.710   2.547   1.016  3.1358 -0.3720  0.9496
19850TIP3    H280966   2.779   2.413   1.025 -0.6368 -2.5594 -0.9639
19851TIP3   OH280967   5.464   5.036   0.136  0.1486 -0.3498  0.4643
19851TIP3    H180968   5.382   5.018   0.089  0.3413 -0.7576  0.2841
19851TIP3    H280969   5.503   5.110   0.089  0.6236 -1.1224 -0.3776
19852TIP3   OH280970   3.276   5.214  12.674 -0.0011  0.4720  0.1566
19852TIP3    H180971   3.290   5.138  12.731  0.1636  0.7665  0.5146
19852TIP3    H280972   3.296   5.182  12.586  0.5739  0.2419  0.3697
19853TIP3   OH280973   0.336   4.873   3.729 -0.5064  0.0786 -0.7457
19853TIP3    H180974   0.382   4.945   3.686  0.0637 -0.4261 -0.9988
19853TIP3    H280975   0.375   4.794   3.692 -2.1824 -0.3697 -1.5988
19854TIP3   OH280976   3.078   3.681   2.883 -0.1925  0.1672 -0.4665
19854TIP3    H180977   3.102   3.683   2.790 -0.0527  0.2899 -0.4268
19854TIP3    H280978   3.161   3.676   2.929 -0.3233 -2.6250 -0.4238
19855TIP3   OH280979   4.783   2.316  16.066 -0.0718 -0.2215 -0.1973
19855TIP3    H180980   4.814   2.231  16.036  2.2371  1.5321 -3.2035
19855TIP3    H280981   4.704   2.333  16.014  0.2861  0.0331 -0.6759
19856TIP3   OH280982   0.461   3.294   5.966 -0.1287 -0.5658  0.7535
19856TIP3    H180983   0.492   3.236   6.035  0.9418  0.4126  1.1088
19856TIP3    H280984   0.430   3.372   6.013 -0.7418 -0.4831  0.2228
19857TIP3   OH280985   6.355   1.284  15.907 -0.0234 -0.0264 -0.0096
19857TIP3    H180986   6.368   1.342  15.981 -0.0671  0.9186 -0.7352
19857TIP3    H280987   6.443   1.259  15.880 -0.0269 -1.2749  1.0400
19858TIP3   OH280988   5.254   5.218  15.041 -0.3350  0.2736  0.3199
19858TIP3    H180989   5.165   5.195  15.013  0.1686 -1.3706  0.0272
19858TIP3    H280990   5.301   5.134  15.041  1.4199  1.2458 -0.2833
19859TIP3   OH280991   1.059   0.417  12.771 -0.1086 -0.0375  0.3630
19859TIP3    H180992   1.062   0.435  12.865  3.2793  1.5956  0.0427
19859TIP3    H280993   1.054   0.503  12.730 -2.2374 -0.7673 -0.9848
19860TIP3   OH280994   5.391   3.766   3.324  0.5048 -0.0538  0.4354
19860TIP3    H180995   5.320   3.792   3.265  0.7472 -3.4620 -1.5016
19860TIP3    H280996   5.466   3.816   3.295 -0.6520  2.2936  1.3737
19861TIP3   OH280997   6.406   6.703   5.378  0.1224  0.5517  0.0616
19861TIP3    H180998   6.474   6.764   5.406  0.0387  1.3996 -1.4992
19861TIP3    H280999   6.328   6.758   5.368  0.3792  0.5028 -2.7022
19862TIP3   OH281000   5.827   2.564   4.781  0.4391 -0.0399  0.2725
19862TIP3    H181001   5.893   2.622   4.820  1.6766  0.2941 -2.2147
19862TIP3    H281002   5.869   2.478   4.777  0.2080 -0.1426 -0.0112
19863TIP3   OH281003   4.571   5.064   2.315 -0.3905  0.0260  0.8123
19863TIP3    H181004   4.639   4.997   2.309  1.4024  1.6656  1.9769
19863TIP3    H281005   4.618   5.147   2.303 -2.5209  1.0889 -0.4367
19864TIP3   OH281006   4.019   3.627  12.694 -0.5681  0.3288  0.4540
19864TIP3    H181007   3.932   3.603  12.725  0.3872 -1.3221  1.9483
19864TIP3    H281008   4.029   3.580  12.612 -0.8399  0.0043  0.6054
19865TIP3   OH281009   2.682   6.079  16.692  0.1242 -0.3380 -0.6716
19865TIP3    H181010   2.592   6.085  16.662 -0.0738 -1.0320 -0.2169
19865TIP3    H281011   2.724   6.158  16.657 -0.4483 -0.4310 -1.5683
19866TIP3   OH281012   5.846   0.584  15.687 -0.0503  0.1155  0.1382
19866TIP3    H181013   5.858   0.492  15.713  0.3061  0.5970  1.6768
19866TIP3    H281014   5.759   0.607  15.717 -1.6604 -0.7857 -3.5003
19867TIP3   OH281015   4.811   2.035   3.243  0.5992 -0.2067 -0.6824
19867TIP3    H181016   4.820   1.967   3.310  0.6885  0.8573  0.3912
19867TIP3    H281017   4.732   2.084   3.268 -0.3734 -0.8692 -2.3278
19868TIP3   OH281018   6.477   5.510  14.996  0.3494  0.5757  0.3582
19868TIP3    H181019   6.406   5.548  15.048 -0.5447 -1.1572  0.4218
19868TIP3    H281020   6.510   5.438  15.048  0.2937 -0.3816 -0.9020
19869TIP3   OH281021   5.375   4.557  16.516 -0.2355  0.0181  0.2667
19869TIP3    H181022   5.363   4.649  16.494 -0.3325 -0.2976 -1.0006
19869TIP3    H281023   5.303   4.537  16.577  0.5439  1.1062  1.5585
19870TIP3   OH281024   3.877   0.121  12.666 -0.1157 -0.0834 -0.1238
19870TIP3    H181025   3.941   0.052  12.686 -1.7781 -1.0050  2.3564
19870TIP3    H281026   3.819   0.082  12.601  0.1101 -0.3293 -0.1796
19871TIP3   OH281027   4.270   0.477   3.350  0.0076 -0.0412  0.6901
19871TIP3    H181028   4.175   0.465   3.355 -0.0056 -0.8758 -1.2014
19871TIP3    H281029   4.297   0.488   3.441 -1.9634  0.7506  1.2162
19872TIP3   OH281030   6.595   4.622   0.382  0.7298 -0.2141  0.0146
19872TIP3    H181031   6.610   4.575   0.464  2.3899  1.6851  0.8425
19872TIP3    H281032   6.682   4.633   0.344  0.0893 -0.0844 -1.4430
19873TIP3   OH281033   4.932   6.231  17.027 -0.2296 -0.5408  0.4350
19873TIP3    H181034   4.894   6.251  16.941  2.4320 -0.6688 -0.8527
19873TIP3    H281035   5.008   6.177  17.006  1.0807  0.3339  2.8157
19874TIP3   OH281036   1.077   1.233   0.895 -0.3758  0.4840  0.7058
19874TIP3    H181037   1.042   1.291   0.827 -1.8152 -0.6826  0.4174
19874TIP3    H281038   1.018   1.245   0.969  0.0425  0.3072  1.0684
19875TIP3   OH281039   6.553   4.704  12.527 -0.2004 -0.4913 -0.8101
19875TIP3    H181040   6.541   4.679  12.618 -1.0369 -0.6238 -0.9536
19875TIP3    H281041   6.521   4.629  12.477 -1.9677  0.5154 -1.2337
19876TIP3   OH281042   3.377   4.947   1.788  0.2923 -0.2036 -0.4640
19876TIP3    H181043   3.378   5.030   1.836  0.0071 -0.5734  0.1783
19876TIP3    H281044   3.467   4.938   1.755  0.4840  0.0596 -0.0220
19877TIP3   OH281045   2.563   5.802   2.666  0.3153  0.0212  0.1790
19877TIP3    H181046   2.609   5.742   2.607 -2.2527  0.1293 -2.0876
19877TIP3    H281047   2.607   5.886   2.654  2.2664 -0.8241  1.3659
19878TIP3   OH281048   2.578   5.837  14.315 -0.1520 -0.0409  0.2833
19878TIP3    H181049   2.583   5.745  14.291 -0.9767 -0.0172 -0.0070
19878TIP3    H281050   2.535   5.837  14.401  0.0158  0.0539  0.3652
19879TIP3   OH281051   3.375   5.972  13.780 -0.3353  0.8201 -1.1020
19879TIP3    H181052   3.394   5.879  13.781  2.3955  1.3407 -0.8002
19879TIP3    H281053   3.293   5.981  13.829 -0.4066 -1.3522 -0.7843
19880TIP3   OH281054   3.629   1.020   0.183  0.2390 -0.0458 -0.0455
19880TIP3    H181055   3.577   1.070   0.245 -1.0056 -2.7570  1.1967
19880TIP3    H281056   3.715   1.012   0.225 -0.5493 -1.7265  1.3059
19881TIP3   OH281057   4.669   1.009   1.143 -0.4740 -0.0619 -0.1981
19881TIP3    H181058   4.602   1.045   1.201 -1.6313  0.8783 -2.0764
19881TIP3    H281059   4.750   1.052   1.170 -1.0503  0.5739  0.5431
19882TIP3   OH281060   3.178   5.642   1.046  0.5619  0.0714 -0.1011
19882TIP3    H181061   3.257   5.594   1.071 -0.0345 -0.9147 -0.0893
19882TIP3    H281062   3.198   5.680   0.961  1.7519  1.4618  0.7713
19883TIP3   OH281063   4.468   3.064   5.937  0.4759  0.4353 -0.1131
19883TIP3    H181064   4.385   3.110   5.949 -0.4282 -0.5459 -2.3478
19883TIP3    H281065   4.533   3.135   5.930 -0.3571  1.2544  0.2980
19884TIP3   OH281066   5.083   3.908  11.933  0.0867 -0.2155 -0.1014
19884TIP3    H181067   5.093   3.834  11.874  0.5328 -1.0086  0.9702
19884TIP3    H281068   5.172   3.928  11.962 -0.1476  0.0803  0.4210
19885TIP3   OH281069   6.147   2.005  14.687 -0.1022  0.9982  0.7942
19885TIP3    H181070   6.238   2.005  14.716  0.4935 -2.0863 -0.7660
19885TIP3    H281071   6.153   2.011  14.592 -1.3267 -1.9747  0.4676
19886TIP3   OH281072   0.812   1.350   3.516  0.2429  0.5744 -0.5516
19886TIP3    H181073   0.801   1.284   3.448 -0.5191 -0.9903  1.0379
19886TIP3    H281074   0.903   1.340   3.545  0.4400  0.9475 -1.0411
19887TIP3   OH281075   4.016   3.699  13.154 -0.0707  0.0639  0.0086
19887TIP3    H181076   3.925   3.686  13.129  0.3893  1.2307 -2.5182
19887TIP3    H281077   4.036   3.628  13.214 -2.1229 -1.2410 -0.8169
19888TIP3   OH281078   6.102   5.427   1.735 -0.4818  0.3894 -0.9356
19888TIP3    H181079   6.130   5.336   1.747 -2.1329 -0.4304 -2.8018
19888TIP3    H281080   6.083   5.459   1.823  0.6386 -0.9011 -0.2110
19889TIP3   OH281081   3.623   6.257  13.236  0.5046 -0.1364 -0.1735
19889TIP3    H181082   3.700   6.200  13.233  0.4782 -0.2490  0.9334
19889TIP3    H281083   3.601   6.261  13.329 -1.4205 -0.9196 -0.5712
19890TIP3   OH281084   1.580   5.482  16.629 -0.2571  0.4051 -0.0172
19890TIP3    H181085   1.557   5.473  16.536  0.1434 -2.0189  0.0933
19890TIP3    H281086   1.593   5.576  16.641  0.0434  0.7153 -2.4987
19891TIP3   OH281087   1.359   1.838  16.717 -0.9478 -0.7375 -0.2520
19891TIP3    H181088   1.317   1.842  16.631 -0.5670  0.7071 -0.3816
19891TIP3    H281089   1.288   1.856  16.778 -0.6030  1.5242 -0.4640
19892TIP3   OH281090   0.706   3.591  16.847 -0.4900 -0.0314 -0.0135
19892TIP3    H181091   0.699   3.684  16.870 -0.5434  0.0929 -0.5260
19892TIP3    H281092   0.693   3.589  16.752  1.7510 -0.2897 -0.3455
19893TIP3   OH281093   5.614   2.163  13.529 -0.3071 -0.4671  0.1585
19893TIP3    H181094   5.575   2.250  13.526  0.7744 -0.0135 -1.9902
19893TIP3    H281095   5.561   2.111  13.468 -0.5636 -1.1619  0.9595
19894TIP3   OH281096   1.373   1.080   0.297 -0.7233 -0.6211  0.1565
19894TIP3    H181097   1.303   1.016   0.308 -0.8527 -0.2410  1.7217
19894TIP3    H281098   1.440   1.054   0.360 -0.3085  0.1459  0.0390
19895TIP3   OH281099   5.564   2.394  15.405  0.2428  0.1278  0.5396
19895TIP3    H181100   5.502   2.461  15.431 -1.7651 -1.9327  1.1854
19895TIP3    H281101   5.583   2.346  15.485 -0.3576 -1.7093 -0.4052
19896TIP3   OH281102   3.949   4.382  13.367  0.4038 -0.8369  0.7024
19896TIP3    H181103   4.038   4.414  13.354 -0.1522  0.7818  0.7867
19896TIP3    H281104   3.926   4.341  13.283  0.6008  0.3061  0.0807
19897TIP3   OH281105   4.877   5.196  14.827 -0.1127  0.0235 -0.4923
19897TIP3    H181106   4.811   5.265  14.839  0.3196  0.4312 -0.4481
19897TIP3    H281107   4.837   5.135  14.765 -0.1597  0.7522 -1.1885
19898TIP3   OH281108   4.444   1.599   2.023  0.9002 -0.5300  0.2089
19898TIP3    H181109   4.466   1.665   2.089  0.4930 -1.3604  1.1712
19898TIP3    H281110   4.484   1.633   1.943  1.0196  0.7034  0.7720
19899TIP3   OH281111   6.593   4.543   0.652  0.9129 -0.1358 -0.2039
19899TIP3    H181112   6.551   4.460   0.630  1.5067 -0.6748  0.6418
19899TIP3    H281113   6.605   4.539   0.747  0.0071  1.3680 -0.0125
19900TIP3   OH281114   4.697   6.591   3.850  0.4643 -0.0560  0.0123
19900TIP3    H181115   4.700   6.515   3.908  1.6385  0.3294  0.4622
19900TIP3    H281116   4.702   6.666   3.909 -0.7342  0.3929 -0.4236
19901TIP3   OH281117   1.721   0.613   1.220  0.1832 -0.0264  0.0264
19901TIP3    H181118   1.643   0.558   1.219 -0.4594  0.7690  2.8578
19901TIP3    H281119   1.790   0.556   1.254  0.7531 -0.5474 -1.9028
19902TIP3   OH281120   2.906   1.110  12.712 -0.8466  0.2797 -0.0468
19902TIP3    H181121   2.903   1.057  12.632  0.5997  1.5474 -0.9725
19902TIP3    H281122   2.814   1.128  12.732 -1.1521  2.4222 -3.1208
19903TIP3   OH281123   6.001   6.202   5.257 -0.3459  0.3709 -0.4481
19903TIP3    H181124   6.017   6.205   5.163 -1.0711  0.3233 -0.5749
19903TIP3    H281125   6.085   6.226   5.296  0.7283 -2.2565 -1.0615
19904TIP3   OH281126   6.452   4.895   3.788 -0.3795  0.5484  0.0161
19904TIP3    H181127   6.387   4.841   3.742  0.0929  0.9364 -1.1104
19904TIP3    H281128   6.533   4.883   3.739  0.9194 -1.3956  2.4770
19905TIP3   OH281129   0.260   3.191   4.579 -0.0216 -0.1870  0.4878
19905TIP3    H181130   0.312   3.117   4.610  0.6461 -1.3783 -3.1796
19905TIP3    H281131   0.325   3.256   4.550 -0.6079  1.0683  1.9169
19906TIP3   OH281132   5.913   6.218  13.355 -0.4299 -0.0880  0.4837
19906TIP3    H181133   5.902   6.301  13.308 -0.4703 -0.6902 -0.5579
19906TIP3    H281134   5.964   6.243  13.433  0.5047  0.7302 -0.3727
19907TIP3   OH281135   4.762   6.269  12.410  0.2186 -0.1882  0.1912
19907TIP3    H181136   4.847   6.295  12.376 -0.1755 -0.9734 -1.4843
19907TIP3    H281137   4.722   6.350  12.440  1.7514  0.1121  1.4823
19908TIP3   OH281138   5.065   0.139  11.262 -0.4066  0.3015 -0.4141
19908TIP3    H181139   5.104   0.123  11.176 -0.1812  0.7336 -0.3938
19908TIP3    H281140   5.006   0.065  11.276 -0.4707  0.2478 -0.9586
19909TIP3   OH281141   1.320   5.250  10.222  0.4812 -0.5733  0.1037
19909TIP3    H181142   1.375   5.209  10.289  1.9709  1.2633  0.0586
19909TIP3    H281143   1.255   5.299  10.272  1.7517  1.0100  0.2632
19910TIP3   OH281144   3.316   5.223  17.189  0.5189  0.2762 -0.1445
19910TIP3    H181145   3.311   5.200  17.282  1.2332  0.9941  0.0751
19910TIP3    H281146   3.315   5.138  17.144 -0.0289 -0.0667  0.5034
19911TIP3   OH281147   5.573   0.206   4.186 -0.0340  0.0891 -0.2680
19911TIP3    H181148   5.528   0.122   4.192  1.1609 -0.6612 -1.5935
19911TIP3    H281149   5.504   0.268   4.160 -0.6779 -0.6880 -0.4407
19912TIP3   OH281150   0.247   2.855  13.462  0.0836  0.2383 -0.0999
19912TIP3    H181151   0.269   2.870  13.554 -0.2300 -0.7943  0.1425
19912TIP3    H281152   0.320   2.802  13.428  0.3724  0.9090 -0.5396
19913TIP3   OH281153   4.401   3.380   1.805  0.8098  0.1051 -0.6860
19913TIP3    H181154   4.371   3.469   1.825 -0.2984 -0.7794  1.7865
19913TIP3    H281155   4.325   3.337   1.767  1.4461  0.2773 -2.2025
19914TIP3   OH281156   5.884   0.127   0.903  0.0304 -0.7602 -0.3971
19914TIP3    H181157   5.854   0.207   0.859  0.2108 -0.1406  0.5945
19914TIP3    H281158   5.974   0.116   0.872 -0.0882 -0.7357 -0.7533
19915TIP3   OH281159   3.803   6.639   3.121 -0.1947 -0.4258 -0.0424
19915TIP3    H181160   3.793   6.717   3.066 -0.2528  0.4722  1.2328
19915TIP3    H281161   3.723   6.589   3.107  1.2593 -1.9854 -3.5110
19916TIP3   OH281162   1.423   2.623  11.054  0.0236  0.2098  0.5376
19916TIP3    H181163   1.418   2.607  10.960  1.7164  1.8434  0.1244
19916TIP3    H281164   1.397   2.715  11.064  3.2019  1.1004  1.1978
19917TIP3   OH281165   5.711   0.817  13.783  0.2584  0.5617 -0.0369
19917TIP3    H181166   5.712   0.772  13.868 -0.3378 -0.0466 -0.3537
19917TIP3    H281167   5.658   0.895  13.798  1.0507  1.0229  0.4327
19918TIP3   OH281168   3.283   6.278  15.657 -0.2197 -0.5367 -0.6327
19918TIP3    H181169   3.347   6.294  15.588  0.1510  0.5890 -0.0447
19918TIP3    H281170   3.305   6.341  15.726 -0.6432 -1.5625  0.4765
19919TIP3   OH281171   3.731   3.144  15.276  0.0690 -0.1503 -0.2735
19919TIP3    H181172   3.711   3.133  15.369  0.0850  0.7518 -0.1581
19919TIP3    H281173   3.740   3.238  15.264  1.4652 -0.3543 -0.9095
19920TIP3   OH281174   2.871   1.872   0.641  0.2405  0.4565  0.7291
19920TIP3    H181175   2.867   1.779   0.663 -0.1916  0.1776 -0.4608
19920TIP3    H281176   2.918   1.912   0.714 -0.7111 -0.4881  1.8886
19921TIP3   OH281177   5.632   3.189   5.665  0.1972 -0.0978 -0.0777
19921TIP3    H181178   5.585   3.121   5.616  0.5540 -1.4759  1.4366
19921TIP3    H281179   5.635   3.263   5.606 -2.2650 -0.6132 -0.9196
19922TIP3   OH281180   0.954   2.416   1.911 -0.2204 -0.0812 -0.3199
19922TIP3    H181181   0.969   2.481   1.842  0.9119 -0.2844 -0.2659
19922TIP3    H281182   0.970   2.463   1.993  0.3137 -0.3504 -0.2685
19923TIP3   OH281183   5.309   6.505  12.354  0.4702  0.6926  0.2995
19923TIP3    H181184   5.267   6.535  12.435  2.0825  1.5654  0.8295
19923TIP3    H281185   5.236   6.487  12.295 -0.7388 -0.0476  1.9679
19924TIP3   OH281186   4.385   1.877   4.003 -0.4076  0.0400 -0.4553
19924TIP3    H181187   4.393   1.858   3.909 -0.6617  0.9208 -0.6673
19924TIP3    H281188   4.364   1.970   4.006 -1.9079 -0.3013  0.4078
19925TIP3   OH281189   1.656   5.848   4.438  0.3218 -0.9620 -0.2151
19925TIP3    H181190   1.629   5.803   4.358  1.6941 -0.4647 -0.9725
19925TIP3    H281191   1.622   5.793   4.509 -1.1822 -1.2340 -1.1331
19926TIP3   OH281192   3.526   5.621  12.816 -0.0527  0.1163 -0.0576
19926TIP3    H181193   3.571   5.541  12.843  0.2786  0.4425  0.3635
19926TIP3    H281194   3.455   5.632  12.880 -1.0526 -0.6682 -1.0113
19927TIP3   OH281195   5.737   4.941  11.252  0.5269 -0.1892  0.3802
19927TIP3    H181196   5.697   4.862  11.288  0.0217  0.3266  0.9515
19927TIP3    H281197   5.782   4.981  11.326 -0.4865  0.8607  0.4347
19928TIP3   OH281198   1.387   0.551  14.203  0.3092 -0.2094 -0.1687
19928TIP3    H181199   1.407   0.566  14.111 -2.0753 -0.6437 -0.8057
19928TIP3    H281200   1.409   0.459  14.218  3.2746  0.5713  0.4488
19929TIP3   OH281201   3.579   4.925   4.773 -0.3872 -0.2998 -0.0791
19929TIP3    H181202   3.659   4.879   4.749 -0.8079 -0.3324 -1.4271
19929TIP3    H281203   3.541   4.870   4.842  0.5517 -0.4751  0.3097
19930TIP3   OH281204   0.665   3.316   2.949 -1.1705  0.3880  0.3160
19930TIP3    H181205   0.658   3.278   3.037 -0.0050  1.3976  0.8713
19930TIP3    H281206   0.662   3.410   2.963 -3.2669  0.5345 -0.9759
19931TIP3   OH281207   4.668   5.707  15.366 -0.2035  1.3291 -0.6984
19931TIP3    H181208   4.618   5.788  15.378 -0.0342  1.1777  1.1315
19931TIP3    H281209   4.601   5.641  15.350 -0.5445  1.3148  0.7148
19932TIP3   OH281210   1.029   1.043  12.782 -0.1141  0.4024  0.0728
19932TIP3    H181211   1.047   1.028  12.689 -1.4334  1.9991 -0.4788
19932TIP3    H281212   1.054   0.962  12.825  2.2411  0.2552 -1.4362
19933TIP3   OH281213   2.034   4.360   3.769 -0.6395 -0.3892  0.4190
19933TIP3    H181214   2.058   4.275   3.806 -1.7600 -0.7179  0.4337
19933TIP3    H281215   2.117   4.402   3.748 -0.0728 -1.5002  0.3985
19934TIP3   OH281216   0.818   0.300   0.689  0.9158 -0.2147 -0.4867
19934TIP3    H181217   0.871   0.379   0.688  0.4896  0.0694 -1.1496
19934TIP3    H281218   0.778   0.299   0.776 -0.2893  1.1258 -1.0136
19935TIP3   OH281219   6.782   3.602  12.816 -0.1742 -0.2469 -0.4281
19935TIP3    H181220   6.710   3.539  12.808  0.1405 -0.9782  2.0496
19935TIP3    H281221   6.742   3.687  12.801 -1.3409 -0.7577 -0.2419
19936TIP3   OH281222   6.540   6.609   3.954 -0.7407 -0.5559 -0.3485
19936TIP3    H181223   6.461   6.656   3.981 -1.0414 -0.6322 -1.0750
19936TIP3    H281224   6.570   6.565   4.033 -1.7398 -0.9723 -0.1898
19937TIP3   OH281225   2.338   4.068   5.445 -0.3514 -0.2152  0.2469
19937TIP3    H181226   2.409   4.059   5.382 -0.8685 -0.5444 -0.2973
19937TIP3    H281227   2.286   3.988   5.436 -0.6526 -0.0943  0.8143
19938TIP3   OH281228   2.060   0.845   3.162 -0.7304  0.1669  0.3238
19938TIP3    H181229   1.987   0.902   3.186 -0.9537 -0.1075  0.2909
19938TIP3    H281230   2.024   0.756   3.165 -0.6106  0.0935 -0.4873
19939TIP3   OH281231   3.963   2.975   2.987  0.3170  0.0085  0.5484
19939TIP3    H181232   3.956   3.063   3.022  0.5037  1.4540 -2.8447
19939TIP3    H281233   3.953   2.918   3.063  0.0021  2.9206  2.7792
19940TIP3   OH281234   3.177   2.583  11.767 -0.3164  0.2827 -0.6026
19940TIP3    H181235   3.228   2.540  11.698 -1.0999  2.3414 -2.5504
19940TIP3    H281236   3.088   2.586  11.733 -0.4073  2.7945 -0.2783
19941TIP3   OH281237   4.041   3.438   1.125 -0.2835  0.2549 -0.1822
19941TIP3    H181238   3.989   3.485   1.060 -1.7365 -2.0964 -0.7849
19941TIP3    H281239   3.989   3.442   1.205  0.5477  1.3953  0.3141
19942TIP3   OH281240   1.140   0.985   1.984 -0.1738  0.5371  0.5054
19942TIP3    H181241   1.097   1.016   1.904 -1.1128 -2.0380 -0.0427
19942TIP3    H281242   1.085   0.912   2.013  2.3847 -1.1468  1.2507
19943TIP3   OH281243   3.458   6.665  15.401  0.2220  0.0398 -0.1857
19943TIP3    H181244   3.394   6.719  15.354  0.4012 -0.4294 -0.9707
19943TIP3    H281245   3.493   6.606  15.335  0.9336 -0.2065  0.4064
19944TIP3   OH281246   5.367   2.751   3.231  0.1670  0.2211 -0.0871
19944TIP3    H181247   5.341   2.663   3.257  0.7679  0.2984  0.7852
19944TIP3    H281248   5.378   2.745   3.136  1.1352 -0.8947  0.0833
19945TIP3   OH281249   4.852   2.106   4.901 -0.6104  0.0372 -0.4326
19945TIP3    H181250   4.818   2.031   4.950  0.7269  0.4515  1.2037
19945TIP3    H281251   4.784   2.126   4.837 -1.3687 -2.0218 -0.3171
19946TIP3   OH281252   3.061   2.101   3.988  0.3583  0.1577  0.5950
19946TIP3    H181253   2.991   2.150   4.031 -0.1601 -0.0052 -0.0524
19946TIP3    H281254   3.025   2.080   3.901  1.1816  0.0138  0.2901
19947TIP3   OH281255   4.088   5.857  13.096  0.3845  0.0013  0.7420
19947TIP3    H181256   4.068   5.805  13.018 -0.5620  0.9695  0.3298
19947TIP3    H281257   4.051   5.944  13.077  2.3384  0.9589  1.2364
19948TIP3   OH281258   3.212   2.896  11.454  0.2829  0.1240 -0.0048
19948TIP3    H181259   3.118   2.877  11.445  0.7012 -1.9598 -0.2024
19948TIP3    H281260   3.255   2.826  11.405  1.9698  0.5094  0.8977
19949TIP3   OH281261   4.951   0.044   3.398  0.2550  0.1310 -0.3484
19949TIP3    H181262   5.024   0.093   3.437  1.5234 -1.0028 -1.2697
19949TIP3    H281263   4.920  -0.013   3.468  0.4008  0.4436 -0.0271
19950TIP3   OH281264   1.054   0.580  11.521  0.4202  0.4491 -0.5502
19950TIP3    H181265   1.133   0.567  11.573 -0.8372  0.2681  1.4118
19950TIP3    H281266   0.995   0.627  11.580 -2.1424 -2.3783 -0.7118
19951TIP3   OH281267   1.519   2.010  12.757 -0.7642  0.2751 -0.3784
19951TIP3    H181268   1.538   2.011  12.851 -0.1528  0.2681 -0.5003
19951TIP3    H281269   1.599   2.040  12.716 -0.6749 -0.7222 -0.9583
19952LIG     O181270   5.123   1.718  16.204 -0.3364  0.1227  0.0961
19952LIG     O281271   4.926   1.690  16.376 -0.3141 -0.6429 -0.6470
19952LIG     O381272   4.967   1.603  15.980 -0.1036  0.0419 -0.2564
19952LIG     O481273   4.836   1.849  16.517 -0.0198 -0.3728 -0.3991
19952LIG     O581274   4.790   1.803  16.155  0.0481 -0.7768 -0.6579
19952LIG     O681275   4.561   1.985  16.242 -0.2897  0.5321  0.1741
19952LIG     O781276   4.659   2.161  16.467 -0.4280 -0.3000 -0.3033
19952LIG     O881277   4.884   2.002  16.756 -0.5822 -0.4580 -0.3186
19952LIG     O981278   4.683   2.098  16.724  0.6564 -0.1480 -0.3109
19952LIG      N81279   5.517   1.478  16.398 -0.3247 -0.0968 -0.4269
19952LIG     C181280   5.277   1.607  16.334  0.6215 -0.1361  0.2321
19952LIG     C281281   5.291   1.530  16.462  1.0988  0.5712  0.3938
19952LIG     C381282   5.174   1.714  16.336  0.1902 -0.5981  0.1716
19952LIG     C481283   5.382   1.418  16.429  0.0835 -0.0373  0.2109
19952LIG     C581284   5.412   1.658  16.276  0.1319 -0.2947 -0.2488
19952LIG     C681285   5.236   1.514  16.219  1.0768 -0.4871  0.1696
19952LIG     C781286   5.333   1.314  16.321  0.5330 -0.4620  0.9392
19952LIG     C881287   5.521   1.554  16.273  0.2837 -0.5786  0.6695
19952LIG     C981288   5.056   1.682  16.432  0.3536  0.6677  0.4376
19952LIG    C1081289   5.254   1.384  16.204  0.7456 -0.9959  0.5340
19952LIG    C1181290   5.160   1.470  16.510  0.8730  0.2517 -0.0284
19952LIG    C1281291   5.132   1.584  16.150  0.5390 -0.2857 -0.4223
19952LIG    C1381292   5.051   1.541  16.491  0.1727  0.1022  0.4297
19952LIG    C1481293   5.621   1.384  16.403  0.4238  0.2371 -0.3578
19952LIG    C1581294   5.192   1.319  16.096  0.5618  0.4407  0.0413
19952LIG    C1681295   5.062   1.521  16.048  0.1718 -0.3703  0.3166
19952LIG    C1781296   5.099   1.392  16.017  0.2971  0.5645 -0.3254
19952LIG    C1881297   4.877   1.826  16.380 -0.4372 -0.8647 -0.6639
19952LIG    C1981298   4.756   1.839  16.295 -0.5049  0.0632  0.3868
19952LIG    C2081299   4.688   1.980  16.306 -0.1612  0.3658 -0.4778
19952LIG    C2181300   4.680   2.022  16.455 -0.7377  0.5504 -0.0948
19952LIG    C2281301   4.798   1.988  16.531  0.3033  0.2050  0.8241
19952LIG    C2381302   4.780   2.041  16.677 -0.3043 -0.4138  0.2502
19952LIG     H181303   5.330   1.593  16.544  2.2273 -0.7514  0.8918
19952LIG     H281304   5.217   1.815  16.351  0.1959 -0.3104 -1.6909
19952LIG     H381305   5.395   1.364  16.526  0.5660  1.9988  1.3008
19952LIG     H481306   5.446   1.736  16.347 -0.5733 -0.4532  0.2694
19952LIG     H581307   5.404   1.699  16.173  0.1238  0.4642  0.0448
19952LIG     H681308   5.262   1.247  16.374  0.1546 -1.2187 -0.4941
19952LIG     H781309   5.420   1.262  16.276  1.1872  0.9124  0.6113
19952LIG     H881310   5.500   1.478  16.195  0.3532 -0.6947  0.7644
19952LIG     H981311   5.619   1.604  16.268  0.5909 -1.1279  1.0909
19952LIG    H1081312   5.062   1.754  16.518  0.4916  2.7220 -1.2414
19952LIG    H1181313   5.162   1.394  16.589  2.5950 -0.2977 -0.5731
19952LIG    H1281314   4.959   1.524  16.550  0.2389 -0.2593  0.4282
19952LIG    H1381315   5.661   1.378  16.506  1.2936  1.3598 -0.6163
19952LIG    H1481316   5.707   1.401  16.335 -1.0031 -1.1432 -2.5566
19952LIG    H1581317   5.595   1.281  16.371  1.9562  0.0613 -1.0829
19952LIG    H1681318   5.220   1.218  16.070  3.6193  1.1941  0.2250
19952LIG    H1781319   5.063   1.355  15.923  0.5940  2.3983 -1.1749
19952LIG    H1881320   4.950   1.899  16.337  0.0299 -0.2941  1.0798
19952LIG    H1981321   4.684   1.758  16.318 -3.0217  1.4163 -2.3722
19952LIG    H2081322   4.756   2.051  16.256 -0.8384  1.0814 -0.3920
19952LIG    H2181323   4.970   1.687  16.025 -0.6759  0.0231 -0.1771
19952LIG    H2281324   4.596   1.962  16.497 -0.9422  0.0999 -1.1219
19952LIG    H2381325   4.885   2.046  16.493 -1.2386  1.4360 -0.8796
19952LIG    H2481326   4.709   1.772  16.113  0.7011 -0.4680 -2.1601
19952LIG    H2581327   4.584   1.995  16.149 -0.3767 -3.7489 -0.4271
19952LIG    H2681328   4.567   2.171  16.443 -0.1836  1.2200 -0.6097
19952LIG    H2781329   4.875   2.023  16.849  1.2280  2.0771 -0.6681
   6.78697   6.78697  17.23950
